/*--------------------------------*- C++ -*----------------------------------*\
  =========                 |
  \\      /  F ield         | OpenFOAM: The Open Source CFD Toolbox
   \\    /   O peration     | Website:  https://openfoam.org
    \\  /    A nd           | Version:  7
     \\/     M anipulation  |
\*---------------------------------------------------------------------------*/
FoamFile
{
    version     2.0;
    format      ascii;
    class       volScalarField;
    location    "0.06";
    object      alphat;
}
// * * * * * * * * * * * * * * * * * * * * * * * * * * * * * * * * * * * * * //

dimensions      [1 -1 -1 0 0 0 0];

internalField   nonuniform List<scalar> 
814
(
0.000190787724125
0.000116284611561
1.4500595338e-05
0.000156951798291
9.72965246012e-05
1.23899375111e-05
0.000144948311988
9.21894033395e-05
1.16749531762e-05
0.000122600642074
8.38298778349e-05
2.46337829877e-05
0.000110524434492
8.36178664443e-05
4.14325886944e-05
0.000102599709125
8.68270275083e-05
5.78737328379e-05
9.96420671177e-05
9.38256414067e-05
7.65531343998e-05
0.000101942228921
0.0001038959767
9.73384627278e-05
0.000109000812568
0.000117082001237
0.00011950443833
0.000121080261571
0.000133396065835
0.000141483856843
0.000137816931298
0.000151655420771
0.000161230540029
0.000157205177308
0.000169205264818
0.000176562947101
0.000174685381989
0.000182620086688
0.000185485865973
0.000185362705627
0.000188579123553
0.000186457383535
0.000186222825037
0.000185923400374
0.000179750468844
0.0001785581762
0.000176266439859
0.000167932832962
0.000167387945414
0.000164537500326
0.000155883114146
0.000158024187946
0.000155310455192
0.00014744943115
0.000153290999492
0.000150760713305
0.000144194356224
0.000152330672048
0.000150539456529
0.000145170197821
0.000155606701183
0.000154018005596
0.000149769605949
0.00016120425471
0.000160366950746
0.000157299862002
0.000170705053171
0.000170114894226
0.0001683811125
0.000181199301849
0.000181705902049
0.000181632891916
0.000196095928995
0.000196638658338
0.000198111474828
0.000210515255801
0.000212385549617
0.000215003191315
0.000230123268023
0.000231250547306
0.000234684246575
0.000247850248416
0.000250037084488
0.000253202124733
0.000264915606727
0.000265460474814
0.00026798793537
0.000259303760078
0.000260415465271
0.00026134165116
0.000228325177368
0.000227753242471
0.000227776466987
0.00019255289707
0.000193276968037
0.000193780363
0.000102714342227
4.20917955438e-05
5.38914728056e-05
7.25298868836e-05
9.42602542305e-05
0.000116927671391
0.000138154000033
0.000155641153648
0.000167561840992
0.000172737151751
0.000170595188064
0.000162071600843
0.000150290799926
0.000139849684304
0.000133907526624
0.000133037701744
0.000136232284408
0.000142475526477
0.00015205898333
0.000165035711999
0.000180662570226
0.000198934655769
0.000217891887666
0.000237973506124
0.000257025241428
0.000270092817294
0.000262453849863
0.000227010719232
0.000194605089835
2.93748208035e-05
0.000162615796961
0.000222817107241
0.000252130251576
0.00027518830838
0.000298827521985
0.000323249258262
0.000349676088106
0.000375395689241
0.000398751536886
0.000417483796064
0.000430104252673
0.000435832040826
0.000435007992401
0.000429478768754
0.000420578524733
0.000412081796368
0.000402737096796
0.000379072382537
0.000111650686638
3.76529158784e-05
0.00012760235474
0.000207031395414
0.000256918584168
0.000299833914369
0.000336252180804
0.000367351663503
0.000396631158834
0.000422911165575
0.000443984311305
0.000459402639608
0.000467191597661
0.000467693355924
0.000461064205059
0.000450242626695
0.000436249404152
0.000423759424117
0.000410529076313
0.000372750768275
0.000113515599891
5.63568052487e-05
0.000114823300079
0.000166818579391
0.000244843607681
0.000295457388394
0.00034760909277
0.000386182139841
0.000420378368177
0.0004480972987
0.000467709527593
0.000480297172021
0.00048472018223
0.000481893351171
0.000472464824725
0.000459070997642
0.000443459937711
0.000429148909793
0.000415033781764
0.000368868620485
0.000115036650941
7.21349072242e-05
1.46278663479e-05
4.82785036549e-05
0.000161395660409
0.000240348448924
0.000318645568267
0.000374557369792
0.000421563360579
0.000458977687854
0.000482748382039
0.00049543041212
0.000497872229452
0.000492543268961
0.000481168135959
0.000465860418314
0.000449418759791
0.00043372322155
0.000419565780646
0.000366872214365
0.000128338743898
1.09389605652e-05
3.8471030736e-06
1.89841145299e-06
7.01303054055e-06
5.50587110048e-05
0.000180767126642
0.000304348708081
0.000382397325
0.000444474087581
0.000484399484864
0.000504690033124
0.000508382702089
0.000501921595011
0.000489075796209
0.000472229625213
0.000455005048501
0.000438206621207
0.000423668973089
0.000365649696203
0.000132723108078
1.86956412703e-05
6.22408491169e-06
1.88518940612e-06
3.94184184106e-06
3.38909698613e-05
0.000125403377283
0.000230433748854
0.000319050455994
0.000404327871146
0.000469430290057
0.000506521924223
0.000516569614215
0.000511038169403
0.000497116740689
0.00047891064404
0.000460694412146
0.000442978432939
0.000427339502366
0.000363371646529
0.000139044613826
3.56210299468e-05
7.42495509478e-06
2.08952090888e-06
3.96050450885e-06
2.88469279042e-05
9.3428399071e-05
0.00016938122568
0.000253491183727
0.000353130723371
0.000441312490604
0.000499540113094
0.00052153118459
0.000519925653384
0.00050577565932
0.000486337792401
0.000466951405048
0.000448340210955
0.000431268693814
0.000359991737547
0.000144905402581
5.68103291421e-05
1.07988197292e-05
2.28486842221e-06
4.55783777128e-06
2.55140426648e-05
6.77877794055e-05
0.00012146705921
0.0001986077363
0.000302982984795
0.000406051503482
0.000483438230744
0.000521431240275
0.0005275137769
0.000514855135187
0.000494545728273
0.000473949894126
0.00045435880624
0.000435809353043
0.000356325217419
0.000149305670693
7.98718334108e-05
1.50108847257e-05
2.5543580823e-06
4.85221908522e-06
2.03037360305e-05
4.66327256314e-05
8.62388039869e-05
0.000156075116153
0.00025720553632
0.000367717987221
0.000459083955289
0.000514469562367
0.000532067430932
0.000523557253392
0.00050324002486
0.000481584955305
0.000460912888423
0.000440811026406
0.000352810244926
0.000152890399508
9.97476198231e-05
1.95576155206e-05
2.95544323828e-06
4.76717616377e-06
1.48827319175e-05
3.14231359151e-05
6.17904450201e-05
0.000123000908453
0.000217226474894
0.000327948140167
0.000428336506739
0.000499923810736
0.000531961237951
0.000530837801616
0.000512018262847
0.000489686737534
0.000467885260735
0.000446022804365
0.000349055306613
0.000156242148961
0.00011318189632
2.44080744489e-05
3.5308536913e-06
4.60341885429e-06
1.10353863571e-05
2.16748953576e-05
4.50969821025e-05
9.67765232659e-05
0.000181848787551
0.000287512357189
0.000393709130187
0.000478447004524
0.00052618109073
0.000535633662554
0.000520439358595
0.00049813143386
0.000475238860545
0.000451312715173
0.000344586864877
0.000159250368864
0.000120180686555
2.83838820831e-05
4.65502767248e-06
4.9641840825e-06
9.19598237772e-06
1.5904215448e-05
3.34043378165e-05
7.51314374393e-05
0.000149370586008
0.000248631975392
0.000356942864426
0.000451523396318
0.000514449370507
0.000536984329057
0.000527968218482
0.000506778256406
0.000482975458731
0.000456651774606
0.000339686087493
0.00016177744914
0.000121071086452
3.16087526215e-05
6.32033795337e-06
6.15808761426e-06
8.98470899919e-06
1.27972834244e-05
2.5069826487e-05
5.71098516984e-05
0.000119969612002
0.000211752847254
0.000319487699339
0.000420792086165
0.000497159571907
0.000534181641699
0.000533961046631
0.000515402333118
0.000491060961338
0.000462022496108
0.000334985054156
0.000163912299178
0.000117023065059
3.30948738958e-05
8.3905753903e-06
8.33853848665e-06
9.90786694927e-06
1.15216195092e-05
1.93851204128e-05
4.27272125296e-05
9.42607137169e-05
0.000177688586401
0.000281653332992
0.000387849819275
0.000475238024175
0.000526910705136
0.000537763229905
0.000523660633236
0.000499385598226
0.000467367584809
0.000331013688298
0.000165827706464
0.000110111712033
3.44557046215e-05
1.17663531286e-05
1.12692957227e-05
1.18771540887e-05
1.1786683203e-05
1.6214256055e-05
3.23507032999e-05
7.29209741349e-05
0.000146301835131
0.000245210748905
0.000353592252726
0.000449807888518
0.000515339936721
0.000538856260703
0.000531116751462
0.000507730147862
0.000472561370709
0.00032797576016
0.000167631872521
0.000103579273776
3.7743682437e-05
1.74483519916e-05
1.46677578831e-05
1.48952860384e-05
1.3588420363e-05
1.56091169364e-05
2.60992457587e-05
5.65425786116e-05
0.000118601637173
0.000210757557114
0.00031838506296
0.00042185441193
0.000499970122457
0.000536923061073
0.000537254177484
0.000515719423118
0.000477364140005
0.000325808603927
0.000169343714291
0.000100583734951
4.46166747912e-05
2.58331167228e-05
2.07492678745e-05
1.89208226418e-05
1.7014879736e-05
1.77006359278e-05
2.37464366125e-05
4.5231919405e-05
9.51516395986e-05
0.000177872144612
0.00028303681086
0.000391839964361
0.000481269786558
0.000531769249366
0.000541468898497
0.000522734192665
0.000481324644079
0.000324240823932
0.000170919524207
0.000102312293179
5.52245884876e-05
3.68573534769e-05
2.90984557766e-05
2.33677717742e-05
2.21225346622e-05
2.27491281647e-05
2.50274315001e-05
3.84608247223e-05
7.56500613633e-05
0.00014618687899
0.000246388865358
0.000359125237228
0.000459180987242
0.000523097406125
0.00054297699023
0.000527803239586
0.000483650344393
0.00032275121881
0.000172260863696
0.000108093538579
6.84233654771e-05
4.96657061031e-05
3.86432013573e-05
2.81769899899e-05
2.86215049419e-05
3.10309787302e-05
3.01520115628e-05
3.56668231391e-05
5.94266063208e-05
0.000114410066397
0.000206017943363
0.000321246113085
0.000432581861839
0.000510201392163
0.000540654483935
0.000529483626917
0.000483056794932
0.000320477744425
0.00017318946591
0.000116116963209
8.30902975952e-05
6.36065975514e-05
4.91198635627e-05
3.56438834215e-05
3.53530590438e-05
4.16956304758e-05
3.94601801831e-05
3.74888861963e-05
4.73416450088e-05
8.29766231125e-05
0.000159249977035
0.000274291173686
0.000398581103245
0.000491633856368
0.000532985779772
0.000525817914229
0.000477711565259
0.000316226114078
0.000173501742276
0.000126531246969
9.96404792973e-05
7.96585428939e-05
6.21686708919e-05
4.62992971033e-05
4.27160844483e-05
5.23979821568e-05
5.25107283862e-05
4.55835114011e-05
4.32694603322e-05
5.83639034061e-05
0.000110435812222
0.000215945245791
0.000353143622167
0.000465038595865
0.0005181205507
0.00051437610205
0.000465250146414
0.000308436388725
0.000172977538175
0.000140342329887
0.000118642327525
9.84297854768e-05
7.81325545956e-05
5.91859802823e-05
5.02906922329e-05
6.18388735614e-05
6.72287783794e-05
6.00257799481e-05
4.92955945659e-05
4.72204663831e-05
7.21067151254e-05
0.000153262140748
0.000294474186442
0.00042853595327
0.000494321500797
0.000492878271612
0.000443317374264
0.000295614372535
0.000171538930174
0.000157244506884
0.000140425900105
0.000120709203243
9.82132354002e-05
7.62846033106e-05
6.46745521949e-05
6.95009576516e-05
8.04671868367e-05
7.78865175884e-05
6.39925320999e-05
4.94572425727e-05
5.23459745702e-05
0.000102046108726
0.000231210827836
0.000382813770947
0.000460467448708
0.00045951847577
0.000410212922133
0.00027670579695
0.000169275474203
0.000177153481087
0.00016522944501
0.000146915770041
0.000122860768799
9.7697040414e-05
8.31940376646e-05
8.49407502552e-05
9.03514619925e-05
9.43683582868e-05
8.40233242141e-05
6.12780849093e-05
4.72413707199e-05
7.09643551258e-05
0.000176542270432
0.000333701005801
0.000417281616328
0.000414011480015
0.000366051436403
0.000251991193965
0.00016657721224
0.000199195471866
0.000192226181308
0.000176083548568
0.000151560862431
0.000123711318628
0.000105770360246
0.000105605417895
0.000108299627333
0.00010623724813
0.000103535477774
7.79991355389e-05
5.04238759177e-05
5.5916740569e-05
0.000140171596157
0.00028897198835
0.00036678224457
0.000357622231828
0.000313213742247
0.000223192644529
0.000163948959575
0.000221699756776
0.000219553074116
0.000206484002045
0.000182738253403
0.000153350497676
0.000131924417523
0.000127453739628
0.000126476510176
0.000120523268322
0.000118499392755
9.37132862855e-05
5.58970490565e-05
4.99754461165e-05
0.000120121538806
0.000251739886231
0.00030973584725
0.000293535516673
0.000256453179819
0.000193426755267
0.000161786165195
0.000243521332615
0.00024430062081
0.000233519100144
0.000211056828308
0.000182559037374
0.000159993699615
0.000147694882938
0.000140266039952
0.00013252063394
0.000127220980198
0.000100873581022
5.88479099097e-05
4.87061989621e-05
0.000110528238781
0.000216583985153
0.000248156251015
0.000227653341521
0.000201746528479
0.00016610292093
0.000160111752359
0.000262717305047
0.000263761035263
0.000253666217192
0.000232401455362
0.000205506465574
0.000180377739048
0.00015953904861
0.000144246184067
0.00013275772064
0.000126430602683
9.75052378112e-05
5.69690833931e-05
5.04717762039e-05
0.000109850499988
0.000180882150788
0.000186637322983
0.000167593912792
0.000154480497767
0.000143192868258
0.000158404436357
0.000273713477477
0.000272129371269
0.0002604263961
0.000238746092069
0.000210257293471
0.000180909760697
0.000154974157065
0.000134080013979
0.000119692802538
0.000112474729996
8.22919726658e-05
5.05714460198e-05
5.62493497372e-05
0.000110875100112
0.000142839674943
0.000133793328838
0.000120627582609
0.000117911701727
0.000124762621757
0.0001557836019
0.000262810512939
0.000256895484975
0.000242272994606
0.000218986050712
0.000192663429234
0.000166027344377
0.000139278180811
0.000115399691541
0.000103905218298
8.84830303104e-05
6.22201623584e-05
4.59695563376e-05
6.58936394978e-05
0.000102686516144
0.000107281103479
9.67041434362e-05
9.00701538042e-05
9.30288332591e-05
0.000109929723062
0.00015144400751
0.000225318064371
0.000218843011249
0.000207765234954
0.000193727950322
0.000175136502169
0.000150701557726
0.000123040891291
0.00010336754621
8.23595688564e-05
6.59512813805e-05
5.00433630066e-05
4.87956565375e-05
7.07236720046e-05
8.61697968504e-05
8.27232316692e-05
7.65143932167e-05
7.44916348599e-05
7.91160371091e-05
9.82665566646e-05
0.000145494807833
0.000195800878494
0.000196563883185
0.00019393184664
0.000184397478718
0.000165109484702
0.000139476970844
0.000119022956227
8.811657328e-05
6.70591850475e-05
5.42268700961e-05
4.83113542976e-05
5.57973800175e-05
6.94808936747e-05
0.000208404673146
0.000107250623777
0.000173139504264
0.000140735841197
0.000174069067609
0.000159887026536
0.000170706840318
0.000157623553034
0.000167577215813
0.000149547377795
0.000164715544178
0.000140060365491
0.00016238020941
0.000130328098222
0.000160090229593
0.000120820850003
0.000157631564955
0.000111758052386
0.000154974797498
0.000103214764102
0.000152115910497
9.52202115248e-05
0.0001490660388
8.77810389409e-05
0.000145845808043
8.09134120613e-05
0.000142496158531
7.46573891729e-05
0.000139079352609
6.90745749298e-05
0.000135642696951
6.42314626851e-05
0.000132259591266
6.02201568547e-05
0.000128985903004
5.7096879707e-05
0.000125999627509
5.49528984609e-05
0.000123400241259
5.37710971379e-05
0.000121377085346
5.35911844653e-05
0.000120038584016
5.43466133564e-05
0.000119493576327
5.59942396433e-05
0.00011970718427
5.84162155085e-05
0.000120451106867
6.1488560124e-05
0.000121368767314
6.51002480949e-05
0.000122267710631
6.9201241631e-05
0.000123454738272
7.37318868737e-05
)
;

boundaryField
{
    inletfuel
    {
        type            calculated;
        value           nonuniform List<scalar> 3(0.000811155615098 0.000811083180818 0.000811215186942);
    }
    inletair
    {
        type            calculated;
        value           nonuniform List<scalar> 
20
(
0.000386806882863
0.000386806384187
0.000386806479975
0.000386806058947
0.000386807872546
0.000386812642222
0.000386819784174
0.000386824129822
0.000386821827644
0.000386817244599
0.000386819229302
0.000386825227021
0.000386826294293
0.000386825517959
0.000386829040388
0.000386833575801
0.000386836322688
0.000386839834304
0.000386841881997
0.000386844377217
)
;
    }
    outlet
    {
        type            calculated;
        value           nonuniform 0();
    }
    axis
    {
        type            empty;
    }
    leftside
    {
        type            compressible::alphatWallFunction;
        Prt             0.85;
        value           nonuniform List<scalar> 
33
(
0
0
4.7963988016e-06
5.08684676282e-06
5.36565604357e-06
0
0
0
0
0
0
0
0
0
0
0
0
0
0
0
0
0
0
0
0
0
0
0
0
0
0
0
0
)
;
    }
    burnerwall
    {
        type            compressible::alphatWallFunction;
        Prt             0.85;
        value           uniform 0;
    }
    front
    {
        type            wedge;
    }
    back
    {
        type            wedge;
    }
    procBoundary0to1
    {
        type            processor;
        value           nonuniform List<scalar> 
27
(
0.000191383610918
0.000190991919954
0.000192244323301
0.00019331072366
7.4147869353e-05
7.17035079163e-05
6.96969797271e-05
7.04259546299e-05
7.4975084491e-05
9.10768868239e-05
0.000138992380782
0.000195980888751
0.0001980672266
0.000194707489675
0.000182839112206
0.000163368113347
0.000146456516025
0.000116711407623
8.38357177839e-05
6.38092712288e-05
5.54781863449e-05
5.58781237266e-05
6.29003538085e-05
7.4147869353e-05
6.96921387671e-05
0.000125590463696
7.90165096973e-05
)
;
    }
}


// ************************************************************************* //
