/*--------------------------------*- C++ -*----------------------------------*\
  =========                 |
  \\      /  F ield         | OpenFOAM: The Open Source CFD Toolbox
   \\    /   O peration     | Website:  https://openfoam.org
    \\  /    A nd           | Version:  7
     \\/     M anipulation  |
\*---------------------------------------------------------------------------*/
FoamFile
{
    version     2.0;
    format      ascii;
    class       volScalarField;
    location    "0.06";
    object      dQ;
}
// * * * * * * * * * * * * * * * * * * * * * * * * * * * * * * * * * * * * * //

dimensions      [1 2 -3 0 0 0 0];

internalField   nonuniform List<scalar> 
814
(
9.26343677974e-10
3.33539184782e-09
5.54114026352e-09
6.46237670123e-08
2.88964872913e-07
1.46408989575e-06
2.01196918674e-06
1.30815950539e-05
0.000186868722491
7.05232943865e-05
0.000857227766823
0.0295230957049
0.000453055162905
0.0050800794039
0.0758202862402
0.000676394729636
0.00539100905329
0.0388960849077
0.000728663842771
0.00443068498946
0.0179529833424
0.000648009214394
0.00306479848757
0.0079311318231
0.000492880131397
0.00187776018375
0.0034788385521
0.000327658190514
0.00105282301962
0.00157139217695
0.000193214974961
0.000552953061629
0.000759262704056
0.000102922181015
0.000279178627963
0.000401801585762
5.09075907739e-05
0.000140201333717
0.000232803054132
2.49613351881e-05
7.52286281913e-05
0.000155114857994
1.39371791915e-05
4.894788649e-05
0.000126209670858
1.04063265289e-05
4.13947908619e-05
0.000119910471435
1.02638007229e-05
4.24566111508e-05
0.000124714653833
1.16394856721e-05
4.78107552474e-05
0.000137311825905
1.4041724655e-05
5.67575951888e-05
0.000159084075923
1.75138874135e-05
7.01476846596e-05
0.000193231462078
2.170118474e-05
8.54433802149e-05
0.000229225636336
2.49892573743e-05
9.61411265127e-05
0.000247169240067
2.61595394844e-05
9.73545495221e-05
0.000237177760112
2.41443436028e-05
8.69749110025e-05
0.000200193639489
2.0151535604e-05
6.99402272818e-05
0.000152266118051
1.51252211603e-05
5.09938082986e-05
0.000105077190414
1.07719956646e-05
3.5221583807e-05
6.94292755597e-05
7.78165817873e-06
2.51861254323e-05
4.84826123375e-05
9.40008856478e-06
3.05719961304e-05
6.02950910403e-05
2.71874085689e-05
8.90510835301e-05
0.000176488273112
9.18425025632e-05
0.000296162866971
0.000575021807566
0.00022581887658
0.000724357262597
0.00137668182361
0.0291797584356
0.292270923296
0.0909920260959
0.0283738345129
0.0093848170345
0.00351278146194
0.00161525765267
0.000927058952351
0.000603606737702
0.0004124998463
0.000320363883796
0.000289916218687
0.000279744697158
0.000281840279114
0.000298916547408
0.000335265645102
0.000398959885746
0.000457818340969
0.000470218755454
0.000425689304757
0.00033929509539
0.000243813866029
0.000159556752732
0.000100658954458
6.92194742116e-05
8.91860674668e-05
0.000263878531053
0.000835799517547
0.00195250158832
3.43039521144e-05
1.39354513801e-05
1.3940071371e-05
1.1924273632e-05
7.91852494866e-06
3.91728366383e-06
1.4096018127e-06
4.67210488117e-07
1.42421507117e-07
3.98044126341e-08
1.00731574897e-08
2.26865033938e-09
4.45556759404e-10
7.5010194937e-11
1.06069656791e-11
1.2282173911e-12
1.14603913089e-13
8.24732408724e-15
4.60724357378e-16
3.3930894119e-17
0.000904236542217
0.000410841490045
0.000278906525489
0.000176761071115
8.80524786877e-05
2.82208744769e-05
8.87574532885e-06
2.59554943322e-06
7.02878584021e-07
1.75094524898e-07
4.02086342718e-08
8.31149096711e-09
1.51283854672e-09
2.3812370673e-10
3.17322850161e-11
3.51441603169e-12
3.15034972012e-13
2.22168832237e-14
1.23646852851e-15
8.1265805139e-17
0.00401305596088
0.00185607309415
0.00136718354673
0.000722571323648
0.000213556176291
6.74037506559e-05
2.13259335689e-05
6.17730703496e-06
1.62323891798e-06
3.83765689664e-07
8.42682812544e-08
1.68049015205e-08
2.96064090025e-09
4.51051725739e-10
5.81801691592e-11
6.28869310374e-12
5.50582088318e-13
3.86237696706e-14
2.12739709141e-15
1.26431773067e-16
0.16180191909
0.116381166631
0.0218488788796
0.00304717356388
0.000894328165485
0.00023422710841
8.20536868859e-05
2.43818255284e-05
6.30686328024e-06
1.4203446856e-06
2.99735131494e-07
5.85940809172e-08
1.02197291093e-08
1.54380048265e-09
1.97455737208e-10
2.12632326938e-11
1.85749927712e-12
1.32296764956e-13
7.43841551194e-15
6.37244742625e-16
0.829344319036
0.457896761299
0.833127372989
0.109379980203
0.0107570737746
0.00148645283107
0.000297458421216
8.651488471e-05
2.19627584989e-05
4.69635810241e-06
9.55966104008e-07
1.86257018302e-07
3.29862181089e-08
5.07111937099e-09
6.59421412256e-10
7.22403900346e-11
6.43527158059e-12
4.73614660957e-13
2.83279431119e-14
4.02841408176e-15
0.174822222103
0.121174509866
0.907164345063
0.149335551207
0.017226285837
0.00284916870819
0.000811790523369
0.000227153278617
6.16968020308e-05
1.31013746036e-05
2.63181292764e-06
5.21943811197e-07
9.63076031288e-08
1.54612223453e-08
2.09326990159e-09
2.37988332179e-10
2.20194682042e-11
1.69489763902e-12
1.10662258558e-13
2.12077958904e-14
0.0386210249392
0.10234772127
0.789454959902
0.126508220347
0.016084849519
0.00365623795921
0.00142030061842
0.000535081887331
0.000131992875908
2.99426499098e-05
6.14495603282e-06
1.26758642638e-06
2.48668326966e-07
4.2566656689e-08
6.1188545674e-09
7.34134248548e-10
7.15246365032e-11
5.80600890012e-12
4.16045228531e-13
9.09206280117e-14
0.0139207941992
0.105162353153
0.735657693749
0.099624364389
0.013600547109
0.00405380552551
0.00205773690826
0.000917669522624
0.00024150470341
5.80895426937e-05
1.24571481343e-05
2.71453741235e-06
5.71443163546e-07
1.05524633031e-07
1.63145250927e-08
2.09025020867e-09
2.16431644786e-10
1.86168607855e-11
1.45722118212e-12
3.29007813369e-13
0.0094416307434
0.103353364104
0.740393345064
0.0925650632499
0.0129648414557
0.00431731625631
0.00256866595177
0.00125062955956
0.000403048061277
9.34758248491e-05
2.25120381486e-05
5.27574415181e-06
1.19111756406e-06
2.37711419448e-07
3.97513030421e-08
5.4743107665e-09
6.05579093634e-10
5.52934818047e-11
4.69032006007e-12
1.03494647149e-12
0.00794801027153
0.0967742406692
0.847070891744
0.103328646348
0.0147392654315
0.00461420095424
0.00286539588477
0.0015151202248
0.000553542843507
0.000143491173983
3.79050150354e-05
9.5534677931e-06
2.2942105118e-06
4.92404814465e-07
8.90575723405e-08
1.32075586147e-08
1.56407604388e-09
1.51580655091e-10
1.38284669951e-11
2.8888225393e-12
0.00651199438271
0.06860606951
1.02226762332
0.135621628504
0.0194016123979
0.00521079265268
0.00301092349716
0.00170655680599
0.000684096606
0.000220373597634
5.78818853021e-05
1.62899969385e-05
4.14543361502e-06
9.49220187818e-07
1.84774826363e-07
2.94554155265e-08
3.73345591628e-09
3.83814127472e-10
3.74701877941e-11
7.30087364597e-12
0.00482061835119
0.0430967789785
0.504873542373
0.183472207842
0.0263523032953
0.00642825285431
0.0031784436861
0.00188420844745
0.000833896732553
0.000303611250295
8.72903515113e-05
2.65304220174e-05
7.09855505589e-06
1.71840467012e-06
3.57202272658e-07
6.09651782475e-08
8.26007185961e-09
9.00425126075e-10
9.38158896546e-11
1.69923197023e-11
0.00341797000842
0.0280355828592
0.287499877749
0.243648751419
0.0351445551085
0.00866855720024
0.00358607943277
0.0021213439619
0.00101593090432
0.000400069695293
0.000126349925363
4.11624543889e-05
1.15684369228e-05
2.93872560813e-06
6.46867094126e-07
1.17654393833e-07
1.70072061992e-08
1.96590754648e-09
2.1833230758e-10
3.7020373961e-11
0.00282947778294
0.0232430081604
0.209042246899
0.299485816581
0.0510210922405
0.0130525844278
0.00455335785767
0.00248785957696
0.00124336304001
0.00050488170646
0.000182349872649
5.95369094384e-05
1.79446056156e-05
4.76708713289e-06
1.10329090502e-06
2.1288867208e-07
3.27558894405e-08
4.01669860839e-09
4.75536556203e-10
7.6540199913e-11
0.00264718407063
0.0204866486027
0.149909781252
0.351511976062
0.0739326784828
0.0206802847068
0.00653156621757
0.00305413130456
0.0015169253634
0.00063021774054
0.000242776624443
8.35159282562e-05
2.65983082008e-05
7.37237641658e-06
1.78287590698e-06
3.63434771949e-07
5.93770515386e-08
7.73174266479e-09
9.77951410089e-10
1.52426127463e-10
0.00245985107911
0.0161781754427
0.0889191419434
0.402139834325
0.111005957374
0.0335251729733
0.0101282355655
0.00389157353251
0.00181805107761
0.000765636115575
0.000305105107972
0.00011587872774
3.793371042e-05
1.09486381253e-05
2.74928603911e-06
5.89687726966e-07
1.02059286064e-07
1.41382064649e-08
1.92106015404e-09
2.97273957391e-10
0.00235146353954
0.0133042324789
0.0607010862641
0.248234554004
0.200962454813
0.0553878510836
0.015668991829
0.00507938963868
0.00215004244367
0.000913871966135
0.000379716055144
0.000152619086271
5.24002883544e-05
1.57877254514e-05
4.08454595321e-06
9.17644249913e-07
1.67814371743e-07
2.4811012945e-08
3.65647007928e-09
5.77462384881e-10
0.00240144625106
0.0122691517405
0.0509754654856
0.196873806108
0.303673002
0.0823574365482
0.0231094917949
0.0070581091056
0.00271928105653
0.00114895546614
0.000488260419666
0.000201664061402
7.18893919483e-05
2.25061807447e-05
5.92804956328e-06
1.38324917332e-06
2.66434776304e-07
4.2274622884e-08
6.85076346603e-09
1.13395348809e-09
0.00262351653928
0.0125289018556
0.0484260333158
0.169244307557
0.448497148347
0.120494959939
0.0350707001579
0.011655575606
0.00447552449775
0.00180786979202
0.0007339222666
0.000290517851564
0.00010385852986
3.21528316805e-05
8.59190445927e-06
2.03850448183e-06
4.1208202038e-07
7.08793155479e-08
1.28540174069e-08
2.27728197236e-09
0.00306291715023
0.0137662078179
0.0503052257717
0.16813464827
0.583359236786
0.216203838801
0.0629854290919
0.0243864980437
0.01058323796
0.00420489945021
0.00152199755149
0.000523737591004
0.000170234378096
4.90459902849e-05
1.28332119755e-05
2.98154654237e-06
6.28771318161e-07
1.1899573382e-07
2.4611064995e-08
4.75070509062e-09
0.00338697701144
0.0140325406355
0.0486897572893
0.157594905946
0.517300614079
0.38722845543
0.132909505715
0.0586198105498
0.0288787320416
0.012354109499
0.00426636127007
0.00126654490741
0.000342679114054
8.40527117399e-05
2.02464095499e-05
4.43389483791e-06
9.62444116909e-07
2.04333945083e-07
4.90906389111e-08
1.05860866877e-08
0.00328327408207
0.0124317433458
0.0398917676983
0.118179311933
0.33914708903
0.724709218986
0.294720904955
0.148570664315
0.0777863920335
0.0352328840349
0.0127249800866
0.00363355714911
0.000826277472773
0.00017266893476
3.28748243769e-05
6.81362159847e-06
1.51288590409e-06
3.6847798265e-07
1.04383681451e-07
2.61213347763e-08
0.00277719674462
0.00958940366046
0.0284540653314
0.0781886921383
0.206037867253
0.526225266491
0.688856162952
0.362801586362
0.195242063649
0.0903705621007
0.0337024118001
0.00976840292017
0.00210975728873
0.000361487757992
5.64221577196e-05
1.07954895475e-05
2.49435859865e-06
7.14188367684e-07
2.41712253614e-07
7.22097053444e-08
0.00207653420832
0.00656714696423
0.0180497030238
0.0461010089851
0.11258241307
0.260129967751
0.580837870804
0.90278414875
0.482341565002
0.222582030791
0.0802723390625
0.0225219181116
0.00479665751826
0.000717283042125
9.38896938588e-05
1.70869050299e-05
4.3817693416e-06
1.52278714511e-06
6.23030578176e-07
2.19197756877e-07
0.00140117795718
0.00407859182503
0.0104176052389
0.0248594282918
0.0573042005715
0.127940449208
0.276177267737
0.64488176959
1.1783990081
0.530020132422
0.181348058109
0.0462970841093
0.009081573378
0.00118331644572
0.000150728677991
2.49877813618e-05
8.21210723362e-06
3.53608263198e-06
1.70101185778e-06
6.79482480424e-07
0.000862099883087
0.00232275343257
0.00556864712765
0.01263039389
0.0284595171795
0.0654262975056
0.148595520522
0.349710693329
1.00675065324
1.07467802474
0.350986201843
0.0828163944282
0.0142902353365
0.0016244070272
0.000195107156709
4.05554506288e-05
1.65923939689e-05
8.4990815293e-06
4.6806765673e-06
2.03673865682e-06
0.000515006645477
0.00130886562202
0.00306086282854
0.00702283622726
0.016668117889
0.0415300845617
0.106680776268
0.273023867917
0.824194366447
1.55698964628
0.490761383065
0.111631002115
0.0183475554984
0.00191263590725
0.000238452324455
6.61306852289e-05
3.50785979292e-05
2.10413611225e-05
1.25508341397e-05
5.75466808775e-06
0.000351010098759
0.000924089724747
0.00240851525678
0.00655709794305
0.0189945844667
0.0574235901662
0.15549376018
0.391039226314
1.0884385772
1.5610779815
0.490688061108
0.108373270851
0.0166190620901
0.00173636695694
0.00028292618724
0.000117473788433
7.7205413381e-05
5.11660798911e-05
3.20071252414e-05
1.51500968033e-05
0.00048969337656
0.00151376675938
0.0047402460458
0.0151102959847
0.0481797612839
0.136089389628
0.345654127149
0.834166973575
2.17953473627
0.924047262794
0.29040242574
0.0638710271228
0.00953141848019
0.00127168224936
0.000365404566904
0.000228099888439
0.000172510247157
0.000121332835098
7.70889207911e-05
3.71286846578e-05
0.0014698574034
0.00459925993134
0.014239944631
0.043163857656
0.118612305122
0.302007951464
0.74733256848
1.9018393051
0.888020401472
0.362418738656
0.115184358062
0.0262779346012
0.00439072491887
0.00104593666259
0.000578598345904
0.000468722505193
0.000382034933379
0.000278036448953
0.000175519249365
8.48027144227e-05
0.00445147320561
0.0129027565623
0.0361060647261
0.0942302544468
0.235877379324
0.593028385574
1.5149132527
0.670480380904
0.313648861367
0.140746571837
0.0469414502
0.0111886124177
0.00277379560765
0.00134346223482
0.00109416608177
0.000983076545143
0.000825030337678
0.000612884152369
0.000382834394853
0.000181968052731
0.00989304576459
0.0265955154336
0.0685750523031
0.173494179896
0.452439204186
1.09473137168
0.532346704681
0.275309525518
0.13382694849
0.0567872593757
0.0189548446823
0.00595254795179
0.00293346064735
2.56511439141e-16
5.18012520686e-16
1.34579069941e-15
1.10356278538e-15
5.87187193086e-15
2.85412364925e-15
1.97484891987e-14
7.80208909335e-15
5.73000389802e-14
2.01765120551e-14
1.45254487996e-13
4.55253921819e-14
3.27114355369e-13
9.40347196165e-14
6.77986440051e-13
1.83956802434e-13
1.32540663787e-12
3.47686582397e-13
2.49566461673e-12
6.47517679672e-13
4.60616985792e-12
1.21094836786e-12
8.49401794442e-12
2.31920135059e-12
1.60119530504e-11
4.64837167274e-12
3.13234442248e-11
9.93531399661e-12
6.4397427482e-11
2.32230908854e-11
1.41192120736e-10
6.12808529071e-11
3.40523084885e-10
1.86274928658e-10
9.29311047931e-10
6.32827462152e-10
2.88143666654e-09
2.26119185291e-09
9.49746937364e-09
7.94422996583e-09
3.17000596694e-08
2.66049561232e-08
1.00944122393e-07
8.29032092756e-08
3.00371240244e-07
2.39641908574e-07
8.2619546774e-07
6.41893507299e-07
2.09734350177e-06
1.59428326032e-06
4.96547167726e-06
3.71635657943e-06
1.09152974333e-05
8.07621129514e-06
2.24942748912e-05
1.65183662728e-05
)
;

boundaryField
{
    inletfuel
    {
        type            zeroGradient;
    }
    inletair
    {
        type            zeroGradient;
    }
    outlet
    {
        type            zeroGradient;
    }
    axis
    {
        type            empty;
    }
    leftside
    {
        type            zeroGradient;
    }
    burnerwall
    {
        type            zeroGradient;
    }
    front
    {
        type            wedge;
    }
    back
    {
        type            wedge;
    }
    procBoundary0to1
    {
        type            processor;
        value           nonuniform List<scalar> 
27
(
0.000423677857373
0.00134802017799
0.00255872963031
0.003607973352
0.0023666750324
0.00221599887853
0.00203326076443
0.001723822132
0.00128664863805
0.000800983457645
0.000367876375398
0.0181453225609
0.0484938684762
0.126386025822
0.332580598906
0.916991688633
0.548031233278
0.271851436825
0.129198569651
0.0580461709154
0.0248524232512
0.0105961044172
0.00612851737669
0.0023666750324
0.00508115735948
4.36374644197e-05
3.14093828233e-05
)
;
    }
}


// ************************************************************************* //
