/*--------------------------------*- C++ -*----------------------------------*\
  =========                 |
  \\      /  F ield         | OpenFOAM: The Open Source CFD Toolbox
   \\    /   O peration     | Website:  https://openfoam.org
    \\  /    A nd           | Version:  7
     \\/     M anipulation  |
\*---------------------------------------------------------------------------*/
FoamFile
{
    version     2.0;
    format      ascii;
    class       volScalarField;
    location    "0.06";
    object      ed::R_H2;
}
// * * * * * * * * * * * * * * * * * * * * * * * * * * * * * * * * * * * * * //

dimensions      [1 -3 -1 0 0 0 0];

internalField   nonuniform List<scalar> 
814
(
-9.22217149617e-08
-1.10684454697e-07
-1.10329079985e-07
-1.01723965458e-05
-1.51619386838e-05
-4.60923014821e-05
-0.000500751235775
-0.00108527533763
-0.00930178054205
-0.0163141638228
-0.0660989293108
-1.3653971417
-0.100787320074
-0.376649689684
-3.36870230373
-0.144694304313
-0.384290644052
-1.66046508195
-0.14988187273
-0.303632568593
-0.736477633338
-0.128159941291
-0.201906183564
-0.312709146391
-0.0937217820362
-0.118919272455
-0.131858100876
-0.0598993030823
-0.0640956790735
-0.0572636927272
-0.0339550450333
-0.0323600207515
-0.026601705682
-0.0173851467356
-0.0157040418174
-0.0135331584899
-0.00826374822207
-0.0075790787613
-0.00753605777333
-0.00389295041602
-0.00390724143914
-0.00482429503129
-0.00208768319373
-0.00244171580945
-0.00376981660102
-0.00149663205605
-0.00198252714675
-0.00343836698361
-0.00141688048561
-0.00195168205719
-0.00343214587547
-0.00154213660481
-0.00210933991025
-0.00362666147674
-0.00178570196557
-0.00240354255279
-0.00403327121337
-0.00213822556274
-0.00285192734714
-0.00470377243031
-0.00254407634328
-0.0033357946063
-0.00535891397675
-0.00281375572361
-0.00360533121076
-0.00555127153666
-0.00282990132546
-0.00350783266799
-0.00511928400518
-0.00251020252842
-0.00301215885863
-0.00415425551488
-0.00201406890599
-0.00232882625396
-0.00303866076742
-0.00145345560954
-0.00163272685084
-0.00201688203225
-0.000995190224116
-0.00108432054685
-0.00128160530171
-0.000690987306611
-0.000745298309845
-0.000860362843753
-0.000801759025955
-0.00086901463657
-0.00102790427506
-0.00222470344977
-0.00242852650807
-0.00288670001245
-0.00719882212415
-0.00773659252794
-0.00900923995759
-0.0169452295758
-0.0181154892669
-0.0206506824047
-1.12319424846
-10.7623667206
-3.21997576452
-0.965556035279
-0.30723343315
-0.110641749857
-0.0489435453059
-0.0270175469797
-0.016914043189
-0.0111098925711
-0.00828957271435
-0.00720365083836
-0.00667187251542
-0.00645082315002
-0.00656664515247
-0.00707108699854
-0.0080806318266
-0.00890720554261
-0.00879117831009
-0.00765083457921
-0.00586467807634
-0.00405416411836
-0.00255261361857
-0.0015490558119
-0.00102424428628
-0.00126792825136
-0.00359941998963
-0.0109206827848
-0.0244266987511
-0.000153171592497
-3.89527243858e-05
-2.65818495208e-05
-1.63178204657e-05
-8.04029850981e-06
-3.0216513442e-06
-8.40580009804e-07
-2.18301517533e-07
-5.26982528448e-08
-1.17640259037e-08
-2.3947401e-09
-4.36398198325e-10
-6.96941764922e-11
-9.5813949761e-12
-1.11043593699e-12
-1.05715483317e-13
-8.13233141067e-15
-4.83642768794e-16
-2.23752439258e-17
-1.36725463327e-18
-0.00638287100945
-0.00181566067706
-0.000840895709886
-0.000382464576515
-0.000141367618848
-3.44201774457e-05
-8.36896438419e-06
-1.91759961373e-06
-4.11230529779e-07
-8.18241746051e-08
-1.51145886128e-08
-2.52800826294e-09
-3.74171009305e-10
-4.80944698445e-11
-5.25276199231e-12
-4.78300181188e-13
-3.53474748852e-14
-2.06005479091e-15
-9.4949721453e-17
-5.17780968496e-18
-0.04474212267
-0.0129647888985
-0.00651576796906
-0.00247172611993
-0.000542084033991
-0.000129983690569
-3.17938668553e-05
-7.21603367216e-06
-1.5016158978e-06
-2.83561153933e-07
-5.00855741549e-08
-8.08177950742e-09
-1.15780310858e-09
-1.44042363861e-10
-1.52276439947e-11
-1.353253307e-12
-9.76771595778e-14
-5.66267430314e-15
-2.58303628279e-16
-1.2736951756e-17
-1.66363439264
-0.752899664644
-0.0966291963257
-0.00968219523134
-0.00210935481621
-0.00041979218052
-0.000113697996045
-2.64725886238e-05
-5.42281046058e-06
-9.75461097838e-07
-1.65585371896e-07
-2.61915123454e-08
-3.71470327207e-09
-4.58237678066e-10
-4.80355972437e-11
-4.25288517561e-12
-3.06291713641e-13
-1.8028175389e-14
-8.39456075352e-16
-5.96688609731e-17
-8.04712453819
-2.747925448
-3.44351301218
-0.330966262585
-0.0243428020294
-0.00256045234714
-0.000396337218429
-9.03334953102e-05
-1.81610607535e-05
-3.10188069904e-06
-5.07896742376e-07
-8.00697111124e-08
-1.15309763421e-08
-1.44761231924e-09
-1.54278458945e-10
-1.3895790578e-11
-1.02052177296e-12
-6.20692497221e-14
-3.07454821508e-15
-3.62762982916e-16
-1.63384631017
-0.699993220193
-3.58222750117
-0.432094319839
-0.0374062813193
-0.0047156862675
-0.00103980690889
-0.000228075301523
-4.9062765008e-05
-8.32199422166e-06
-1.34473699456e-06
-2.157890181e-07
-3.23775682854e-08
-4.24465503524e-09
-4.70996448948e-10
-4.40259792458e-11
-3.3582452183e-12
-2.13621538006e-13
-1.15509024841e-14
-1.83667817804e-15
-0.347920795538
-0.568082967783
-2.9960009427
-0.35125310033
-0.0335256446309
-0.00581284725633
-0.00174858946214
-0.000516555686058
-0.000100940115067
-1.8291285628e-05
-3.01960712319e-06
-5.040038215e-07
-8.03998224078e-08
-1.12387795048e-08
-1.32407806929e-09
-1.30611049313e-10
-1.04908897136e-11
-7.03769358764e-13
-4.17645663096e-14
-7.57268491299e-15
-0.120928775282
-0.56179275827
-2.68583372902
-0.265670853556
-0.0272042455817
-0.00618883208498
-0.00243448233455
-0.000851689312217
-0.000177600279548
-3.41262737916e-05
-5.88705362948e-06
-1.03801228528e-06
-1.77688249275e-07
-2.67950547301e-08
-3.39522930264e-09
-3.57646455512e-10
-3.05301292416e-11
-2.17025279882e-12
-1.40683793427e-13
-2.63538474189e-14
-0.0790622031302
-0.53152977705
-2.59803279794
-0.236796002025
-0.0248708112591
-0.006327232432
-0.00291987921804
-0.00111583432597
-0.000284997565913
-5.28104252214e-05
-1.02314843455e-05
-1.94016995482e-06
-3.56197588202e-07
-5.80499461057e-08
-7.95604213235e-09
-9.00816082533e-10
-8.21542035479e-11
-6.19910273927e-12
-4.3548381279e-13
-7.97270867643e-14
-0.064111814723
-0.47916813979
-2.85433104232
-0.253301595347
-0.0271010331284
-0.00649010214041
-0.00312916001442
-0.00129941102015
-0.000376339463805
-7.79577775703e-05
-1.65675956972e-05
-3.37881725496e-06
-6.59811260094e-07
-1.1564445269e-07
-1.71422342652e-08
-2.09016281541e-09
-2.04064598098e-10
-1.63436687777e-11
-1.23479353502e-12
-2.14022178186e-13
-0.0505555043162
-0.327074718779
-3.3061798534
-0.318414754087
-0.0341833921278
-0.00703304671808
-0.00315838750691
-0.00140667281138
-0.000447162225692
-0.000115127025157
-2.43297794302e-05
-5.54076130135e-06
-1.14658357126e-06
-2.14397641344e-07
-3.42050461519e-08
-4.48304997605e-09
-4.68459115484e-10
-3.97994966994e-11
-3.21778411679e-12
-5.20190529957e-13
-0.0359946799713
-0.197764292009
-1.56882384593
-0.412737872902
-0.0444911636273
-0.00832412663401
-0.00320190581724
-0.00149245343101
-0.000523997057573
-0.000152510064602
-3.52843290985e-05
-8.67826223147e-06
-1.88822463812e-06
-3.73274817018e-07
-6.35934453595e-08
-8.92362164526e-09
-9.96770970109e-10
-8.97956098453e-11
-7.74815241046e-12
-1.16436671639e-12
-0.024531052154
-0.123793629467
-0.858921353414
-0.525645823892
-0.0568741342434
-0.0107669373643
-0.00346829443704
-0.00161432320385
-0.000613613489813
-0.000193218946568
-4.9112809941e-05
-1.29486138384e-05
-2.95940358565e-06
-6.13920233298e-07
-1.10755134067e-07
-1.65622116136e-08
-1.97376499605e-09
-1.88547804668e-10
-1.7341651585e-11
-2.43964805332e-12
-0.0195072143482
-0.0986870134517
-0.6007163563
-0.619929387277
-0.0791358096886
-0.0155447544665
-0.00422643145571
-0.00181846563274
-0.000721740394184
-0.00023442877411
-6.81553683026e-05
-1.80108554195e-05
-4.41474981359e-06
-9.57755767573e-07
-1.81672551921e-07
-2.88213010574e-08
-3.65597126167e-09
-3.70491735591e-10
-3.63251159725e-11
-4.85092902144e-12
-0.0175224043834
-0.0836193075811
-0.414455670165
-0.698276704554
-0.109897347479
-0.0236061065735
-0.00581620003808
-0.00214366252038
-0.000846118125724
-0.000281301802086
-8.72483576469e-05
-2.42958303104e-05
-6.29309811404e-06
-1.42448093902e-06
-2.82338786866e-07
-4.73192978765e-08
-6.37357209239e-09
-6.85863264861e-10
-7.18440749625e-11
-9.2905897835e-12
-0.0156294840436
-0.0634865243435
-0.236540960445
-0.766812524168
-0.158152602917
-0.0366718849046
-0.0086499316355
-0.00262238339786
-0.000974294795583
-0.000328488985519
-0.000105423463021
-3.24161407157e-05
-8.63114111664e-06
-2.03448647346e-06
-4.18715482134e-07
-7.38387913904e-08
-1.05358036003e-08
-1.20616108236e-09
-1.3572664782e-10
-1.74256395724e-11
-0.0143444768069
-0.05021104263
-0.155385470087
-0.455156097524
-0.274596220685
-0.0580735854718
-0.0128349517815
-0.00328585023794
-0.00110687155272
-0.000376841170334
-0.000126139790425
-4.10533071867e-05
-1.14657263396e-05
-2.82135107076e-06
-5.98262558766e-07
-1.10506372286e-07
-1.6660770749e-08
-2.03566477864e-09
-2.48448573617e-10
-3.2553884411e-11
-0.0140706137876
-0.0445435580407
-0.125573079462
-0.347317802325
-0.398186719203
-0.0828093944651
-0.0181596524287
-0.00438288621438
-0.00134467826475
-0.000455304955468
-0.000155924978807
-5.21591006909e-05
-1.51268278759e-05
-3.86792736704e-06
-8.3504086722e-07
-1.60200383312e-07
-2.54394370731e-08
-3.33573964718e-09
-4.47675703755e-10
-6.1478122018e-11
-0.0147695151516
-0.0437578495497
-0.114798229715
-0.287288196801
-0.564748365756
-0.116216514618
-0.0264348893211
-0.00694522370623
-0.00212512940675
-0.000688337555165
-0.000225284692893
-7.22451077679e-05
-2.10147788458e-05
-5.31410252178e-06
-1.16394243978e-06
-2.27051514505e-07
-3.78399538161e-08
-5.37876129849e-09
-8.07817112782e-10
-1.18737232513e-10
-0.0165698994765
-0.0462536869078
-0.114759161912
-0.274612917051
-0.706473676279
-0.199983160223
-0.0454960460635
-0.0139288840713
-0.0048212042857
-0.00153744245423
-0.000448952428547
-0.000125207957151
-3.31212311623e-05
-7.79543027597e-06
-1.67194018557e-06
-3.19376496551e-07
-5.5527661593e-08
-8.68448198385e-09
-1.48748760357e-09
-2.38215893469e-10
-0.0176127001151
-0.045367605079
-0.106902550386
-0.247695790321
-0.602682838043
-0.343621760917
-0.0918790205813
-0.0320369471568
-0.012601185936
-0.00433321115945
-0.00120870494671
-0.000291020638842
-6.41040381526e-05
-1.28469714407e-05
-2.53671762749e-06
-4.56765802048e-07
-8.1741141828e-08
-1.43417343064e-08
-2.85344094159e-09
-5.10489888456e-10
-0.0164185617809
-0.0386834088265
-0.0843143428155
-0.17877224169
-0.380094021479
-0.617092426177
-0.194939636095
-0.0775499956641
-0.0324365789985
-0.0118342548534
-0.0034592629983
-0.000802130001549
-0.000148596036154
-2.53774483619e-05
-3.96114461406e-06
-6.75040361985e-07
-1.23571270705e-07
-2.4872482666e-08
-5.8350872327e-09
-1.21138057294e-09
-0.0133602757751
-0.028727690889
-0.0579130329453
-0.113878237773
-0.222233529305
-0.430803535365
-0.436431893149
-0.180864325888
-0.0776720455646
-0.0290046165509
-0.00877891470698
-0.0020705911733
-0.00036467479703
-5.10845009439e-05
-6.53776215538e-06
-1.02856464723e-06
-1.95934957173e-07
-4.63620704344e-08
-1.29943113036e-08
-3.22037268328e-09
-0.0096135305448
-0.018946493243
-0.0353885458699
-0.0646724353033
-0.116921647785
-0.204928302882
-0.353555467682
-0.430877003429
-0.183137110687
-0.0681500584745
-0.0200037144177
-0.00458074649987
-0.000796733482695
-9.74583678557e-05
-1.04617573547e-05
-1.56559427139e-06
-3.31005740304e-07
-9.50657896477e-08
-3.22103673486e-08
-9.40070042597e-09
-0.00624414565704
-0.0113340797473
-0.0196799795169
-0.0336015702297
-0.0573270797677
-0.0970482552224
-0.161772821156
-0.295800129441
-0.428386351968
-0.154921450692
-0.0431964360575
-0.0090311279088
-0.00144940942872
-0.000154578726184
-1.61496112247e-05
-2.20166952695e-06
-5.96564448982e-07
-2.12289761564e-07
-8.45692344617e-08
-2.80220397216e-08
-0.00369832691009
-0.00621752666994
-0.0101366986814
-0.0164513569136
-0.0274307924466
-0.0477994898841
-0.0837982633433
-0.15434751447
-0.351641615767
-0.300860030597
-0.0800020836612
-0.0154987783667
-0.00219162283486
-0.000204006959119
-2.00998423141e-05
-3.4359324636e-06
-1.15904147954e-06
-4.90655936216e-07
-2.23775417707e-07
-8.0766808947e-08
-0.00212620278459
-0.00337363626581
-0.0053668743955
-0.00881185204917
-0.0154754387043
-0.0292212822347
-0.0579144272
-0.115952907582
-0.27690497178
-0.418657127372
-0.107352792477
-0.0200661322432
-0.00270444798578
-0.000230911921273
-2.36161768769e-05
-5.38651715844e-06
-2.35595534957e-06
-1.16798306183e-06
-5.76957313595e-07
-2.1941523142e-07
-0.00139384969129
-0.00229191910724
-0.00406456270059
-0.00791922399815
-0.0169735528384
-0.0388781140273
-0.0812037788425
-0.159741983958
-0.3517729652
-0.403915032878
-0.103291910544
-0.0187379756517
-0.00235510754057
-0.000201491171342
-2.69312899662e-05
-9.19700383059e-06
-4.98442714453e-06
-2.73043816347e-06
-1.41460431092e-06
-5.55360678466e-07
-0.00186865173704
-0.00360866362018
-0.00768959329365
-0.017540994809
-0.0413740444483
-0.0885389390924
-0.173491993464
-0.327657398022
-0.677957471194
-0.230710259411
-0.0590355090913
-0.0106373499372
-0.00129865757358
-0.000141786800705
-3.34147595735e-05
-1.715715797e-05
-1.0702061344e-05
-6.22294130686e-06
-3.27503807097e-06
-1.30838333712e-06
-0.00538187998208
-0.0105204155732
-0.0221629934385
-0.0480672920874
-0.0977343065404
-0.18863876129
-0.360415475867
-0.718721963248
-0.266785314522
-0.0876339501942
-0.0226451226396
-0.00421448808713
-0.000574804256984
-0.000111963595755
-5.07919381702e-05
-3.38489453444e-05
-2.27602815086e-05
-1.36988381516e-05
-7.16561006688e-06
-2.87232697249e-06
-0.0156128896454
-0.0282713563732
-0.0538333172167
-0.100587601824
-0.186474425344
-0.355740769244
-0.702715360855
-0.244850458973
-0.0912847580688
-0.0329420655411
-0.00889935610389
-0.00172459646374
-0.000348409928934
-0.000137901786205
-9.20958068313e-05
-6.80830671697e-05
-4.71563325527e-05
-2.89861612538e-05
-1.50116399988e-05
-5.92270649952e-06
-0.0332284384184
-0.0558250799646
-0.0980251874058
-0.177705433112
-0.34350207972
-0.631594322638
-0.238506007755
-0.0972030847108
-0.0376201563802
-0.0128128420858
-0.00345429824417
-0.000879893753081
-0.000352912804142
-1.05289748666e-16
-2.08357078242e-16
-5.3137197372e-16
-4.26957458985e-16
-2.22997128397e-15
-1.0620910512e-15
-7.21325334842e-15
-2.7923779756e-15
-2.0128671734e-14
-6.94496285749e-15
-4.9073323917e-14
-1.50706089121e-14
-1.06283669696e-13
-2.99374142151e-14
-2.11853529155e-13
-5.63232131391e-14
-3.98298769875e-13
-1.02376870264e-13
-7.21254705802e-13
-1.83359955298e-13
-1.28021300778e-12
-3.29771708892e-13
-2.27034560774e-12
-6.07373730374e-13
-4.11581108165e-12
-1.17068892269e-12
-7.74296825044e-12
-2.4062274392e-12
-1.53082709274e-11
-5.40851870757e-12
-3.22759050433e-11
-1.37237363181e-11
-7.48537118117e-11
-4.01120127394e-11
-1.96432201333e-10
-1.31026275355e-10
-5.85638970882e-10
-4.50134505037e-10
-1.8560064264e-09
-1.52042745711e-09
-5.95611252619e-09
-4.89511604424e-09
-1.82344651365e-08
-1.46634765795e-08
-5.21624149471e-08
-4.07451308425e-08
-1.37926873273e-07
-1.04908506296e-07
-3.36577635993e-07
-2.50461613993e-07
-7.6596856805e-07
-5.61202829238e-07
-1.61846152361e-06
-1.17229089905e-06
-3.20570468815e-06
-2.30468535336e-06
)
;

boundaryField
{
    inletfuel
    {
        type            calculated;
        value           uniform 0;
    }
    inletair
    {
        type            calculated;
        value           uniform 0;
    }
    outlet
    {
        type            calculated;
        value           nonuniform 0();
    }
    axis
    {
        type            empty;
    }
    leftside
    {
        type            calculated;
        value           uniform 0;
    }
    burnerwall
    {
        type            calculated;
        value           uniform 0;
    }
    front
    {
        type            wedge;
    }
    back
    {
        type            wedge;
    }
    procBoundary0to1
    {
        type            processor;
        value           uniform 0;
    }
}


// ************************************************************************* //
