/*--------------------------------*- C++ -*----------------------------------*\
  =========                 |
  \\      /  F ield         | OpenFOAM: The Open Source CFD Toolbox
   \\    /   O peration     | Website:  https://openfoam.org
    \\  /    A nd           | Version:  7
     \\/     M anipulation  |
\*---------------------------------------------------------------------------*/
FoamFile
{
    version     2.0;
    format      ascii;
    class       volScalarField;
    location    "0.06";
    object      ed::R_H2O;
}
// * * * * * * * * * * * * * * * * * * * * * * * * * * * * * * * * * * * * * //

dimensions      [1 -3 -1 0 0 0 0];

internalField   nonuniform List<scalar> 
814
(
8.24094312507e-07
9.89077568516e-07
9.85901935975e-07
9.09006532948e-05
0.000135487259602
0.000411881339634
0.00447471883986
0.00969803298083
0.0831208186062
0.145783556782
0.590660797518
12.2012046648
0.900636658948
3.36574598732
30.1027627841
1.29298997841
3.434025644
14.8379351948
1.33934614983
2.71326414796
6.58117265737
1.14523871902
1.80423599371
2.79437255224
0.83749892925
1.06266399533
1.17828551589
0.53526086577
0.572759730208
0.511709021126
0.3034226755
0.289169520053
0.23771314993
0.15535387249
0.140331499479
0.120932460933
0.0738449497781
0.0677267355506
0.067342299504
0.0347874499845
0.0349151547325
0.0431099562483
0.0186555611873
0.0218192007398
0.0336871247882
0.0133739213787
0.0177158855342
0.03072528717
0.012661260422
0.0174402534568
0.0306696952756
0.0137805505532
0.0188490858568
0.0324078889404
0.0159570534366
0.0214780840765
0.036041358254
0.0191072083819
0.0254848557895
0.0420329648907
0.0227338956552
0.0298086992189
0.047887317334
0.0251437537197
0.0322172814366
0.0496062267162
0.0252880310048
0.0313460333297
0.0457459811339
0.0224311988535
0.0269166864311
0.0371224753729
0.0179977430599
0.0208104183651
0.0271535077949
0.0129880961528
0.0145900660404
0.0180228811887
0.00889303136357
0.00968950095938
0.0114524398126
0.00617467057112
0.00665999432475
0.00768821233181
0.00716452793754
0.00776552485258
0.00918536450153
0.0198799757815
0.0217013409901
0.0257955847292
0.0643287578389
0.0691342803927
0.0805066725569
0.151422767656
0.161880221804
0.184534737032
10.036876807
96.1726336067
28.7737407079
8.62821990906
2.74544151533
0.98869595757
0.437360087451
0.24142911258
0.151144085743
0.0992781286299
0.0740757177401
0.064371907285
0.059619930035
0.0576446303468
0.0586796171016
0.0631873152778
0.0722086195483
0.0795948918434
0.0785580711505
0.0683679463701
0.0524068311828
0.0362280574949
0.022810184846
0.0138423806679
0.00915265879941
0.0113302215324
0.0321644586962
0.0975873477888
0.218277262816
0.00136874312375
0.000348081996049
0.000237535715044
0.000145816232585
7.18482005625e-05
2.70015113921e-05
7.51143269863e-06
1.95074488785e-06
4.70912197485e-07
1.05123471663e-07
2.13994252564e-08
3.89965935222e-09
6.22787967952e-10
8.56194564259e-11
9.92286838797e-12
9.44674782738e-13
7.26706076301e-14
4.32183738086e-15
1.99945438749e-16
1.2217803231e-17
0.0570374092321
0.0162247648293
0.00751425379821
0.00341770788336
0.00126326267858
0.000307579104121
7.47851626208e-05
1.71356923475e-05
3.67476077474e-06
7.31181771513e-07
1.35064138818e-07
2.25903111032e-08
3.34359647076e-09
4.29772739298e-10
4.69387419722e-11
4.27409595616e-12
3.15865444776e-13
1.84086734599e-14
8.48471810094e-16
4.6268967286e-17
0.399816126138
0.115853503685
0.0582249780016
0.0220873732218
0.0048440692032
0.00116153576368
0.000284110362282
6.44825604312e-05
1.34184570462e-05
2.53390575421e-06
4.47565270466e-07
7.22188752374e-08
1.03461419817e-08
1.28716423097e-09
1.36074403021e-10
1.20926872174e-11
8.72844228751e-13
5.06017231271e-14
2.30820421257e-15
1.13817548341e-16
14.8662561917
6.72792011924
0.863479616999
0.0865202086737
0.0188492190567
0.00375126778487
0.00101600660889
0.000236559358403
4.84582970532e-05
8.71673166275e-06
1.47967280017e-06
2.34047657526e-07
3.31946314427e-08
4.09481719601e-09
4.29246653056e-10
3.80038311629e-11
2.7370262989e-12
1.6109998398e-13
7.50138920735e-15
5.33201632415e-16
71.9091980311
24.5554936148
30.7712721408
2.95751835391
0.21752756074
0.0228802318153
0.00354167397209
0.000807221159842
0.000162287449136
2.77184418357e-05
4.53857116956e-06
7.15503865431e-07
1.03040938082e-07
1.29358804431e-08
1.37863409515e-09
1.24172945471e-10
9.11939437726e-12
5.54651534064e-13
2.74741984426e-14
3.24165421488e-15
14.6000695419
6.25514751915
32.0108264202
3.86119984424
0.334262962905
0.0421394270778
0.0092917265752
0.00203808353473
0.000438425436089
7.43654367047e-05
1.20165853508e-05
1.92829316383e-06
2.89326325019e-07
3.79302865334e-08
4.20882972031e-09
3.93416660209e-10
3.00093181476e-11
1.90892453662e-12
1.03218998318e-13
1.64125774613e-14
3.10902425665
5.07639597655
26.7722991073
3.13880177085
0.299585548533
0.0519436703752
0.0156254156763
0.00461594759055
0.000902002036779
0.000163451140122
2.69832442095e-05
4.50378398355e-06
7.18453743788e-07
1.00429863762e-07
1.18319769554e-08
1.16714184869e-09
9.37467119289e-11
6.28889113713e-12
3.73208648032e-13
6.7669600048e-14
1.08062093586
5.02018659152
24.0006412952
2.37403782293
0.243097453449
0.0553034751567
0.0217545623244
0.0076107055536
0.00158703815404
0.000304952777666
5.26067793848e-05
9.27568979782e-06
1.58782425254e-06
2.39440919262e-07
3.03398083535e-08
3.19593286676e-09
2.72817588336e-10
1.93934041343e-11
1.25715200669e-12
2.35498285622e-13
0.706500762438
4.749756241
23.2160511586
2.11601181538
0.222245857329
0.0565402222599
0.0260920744945
0.00997110845438
0.00254674154828
0.000471914571141
9.14286625567e-05
1.73373811768e-05
3.18298577171e-06
5.18734990418e-07
7.10952845982e-08
8.04970294185e-09
7.34130913966e-10
5.53952538423e-11
3.89148839249e-12
7.1244217029e-13
0.572903918558
4.28185204428
25.5063352374
2.26350598837
0.242175145772
0.0579956278597
0.0279622101137
0.0116115519188
0.00336297380527
0.00069663160285
0.000148048226946
3.01931501053e-05
5.89608105853e-06
1.033400168e-06
1.53183203842e-07
1.86777191154e-08
1.82352361097e-09
1.46047213401e-10
1.10341293235e-11
1.91250466191e-12
0.451764571827
2.9227434734
29.5440614441
2.84535792867
0.305463187779
0.0628473868911
0.028223387325
0.0125700445269
0.00399584682538
0.00102877642958
0.000217411190643
4.95123071317e-05
1.02458840662e-05
1.91585980504e-06
3.05656688389e-07
4.00605864842e-08
4.1861560791e-09
3.55648763246e-10
2.87541561185e-11
4.64842859771e-12
0.321648876917
1.76722400282
14.0190280488
3.68823041033
0.397573553227
0.0743844919662
0.0286122674498
0.013336581137
0.00468244377255
0.00136283170283
0.000315301173295
7.75490517647e-05
1.68731972254e-05
3.33558808611e-06
5.68271763925e-07
7.97415863268e-08
8.90715692806e-09
8.024146091e-10
6.92375796367e-11
1.0404794457e-11
0.219209766033
1.10622130602
7.67533115745
4.69717716746
0.508227922005
0.0962134769311
0.0309927192402
0.0144256108379
0.0054832572485
0.00172660674334
0.000438872638189
0.000115708963161
2.64452647011e-05
5.48599831183e-06
9.89709160188e-07
1.48000114712e-07
1.76375868541e-08
1.68486536524e-09
1.5496519932e-10
2.18007232472e-11
0.174316693242
0.881868294659
5.36800831412
5.53969618135
0.707158511497
0.138908105868
0.0377674404157
0.0162498299457
0.00644948051769
0.00209485823932
0.000609037160155
0.000160945212532
3.94502554418e-05
8.55851662654e-06
1.62342802711e-06
2.575474799e-07
3.26698015178e-08
3.31071843825e-09
3.24601656849e-10
4.33479578926e-11
0.156580408419
0.747223100568
3.70358066656
6.23980871553
0.982043969304
0.210944441618
0.0519736308718
0.0191557930983
0.0075609213666
0.00251371615994
0.000779652333967
0.000217107820916
5.62351975994e-05
1.27291781617e-05
2.52298266795e-06
4.22845793619e-07
5.69543140016e-08
6.12888207472e-09
6.41999485571e-10
8.30208178583e-11
0.139665250349
0.567316316488
2.11373276086
6.852245593
1.41325349053
0.327700388041
0.0772958892312
0.0234336484014
0.0087063095723
0.00293538137736
0.000942065285993
0.000289671008703
7.71279769371e-05
1.81801946792e-05
3.74164639563e-06
6.59824294663e-07
9.41480629406e-08
1.07782693951e-08
1.21285489617e-09
1.55715716948e-10
0.128182410806
0.448686458213
1.38852635952
4.06728015661
2.45379500692
0.518946232068
0.114693277704
0.029362395765
0.00989101700889
0.00336745706062
0.0011271866275
0.000366852828276
0.000102457863304
2.52116258298e-05
5.34608115095e-06
9.87486222034e-07
1.48880840287e-07
1.81907240279e-08
2.22013933002e-09
2.90901887958e-10
0.125735167695
0.398041750312
1.12212249177
3.10363590231
3.55820113242
0.739985707587
0.162274864329
0.0391655219503
0.0120160605406
0.00406861035292
0.00139334741569
0.000466094327596
0.000135173509016
3.45638437291e-05
7.46193485636e-06
1.43155247984e-06
2.27327104186e-07
2.98082081035e-08
4.00043527129e-09
5.49369210058e-10
0.131980558375
0.391020650141
1.0258383097
2.56721065242
5.04659793423
1.03851212001
0.236222476998
0.0620625994406
0.0189901809804
0.00615099236152
0.00201314662371
0.000645583119363
0.000187788307044
4.74868816535e-05
1.04010031163e-05
2.02893496209e-06
3.38138265357e-07
4.80646732308e-08
7.21866307155e-09
1.0610372843e-09
0.148068813544
0.413323481666
1.02548919936
2.45394420583
6.31305694976
1.78705183487
0.406553194311
0.124468669309
0.0430823373099
0.0137386035693
0.00401184409882
0.00111885975458
0.000295971705095
6.96600551903e-05
1.49404768536e-05
2.85395207046e-06
4.96195826813e-07
7.7604631544e-08
1.32922064455e-08
2.12869998176e-09
0.157387292123
0.405405444186
0.955282427809
2.21341244977
5.38558081774
3.0706080335
0.821031991557
0.286282530671
0.112604343402
0.0387216250845
0.0108010013965
0.00260056379771
0.000572834427035
0.000114800685518
2.26681380857e-05
4.08166449487e-06
7.30439789655e-07
1.28157903789e-07
2.54983812871e-08
4.56174355296e-09
0.146716458144
0.345675389093
0.753433943468
1.5975108213
3.39652457611
5.51434506412
1.74198284487
0.692987659016
0.289853645434
0.10575103837
0.0309120141991
0.00716784297974
0.0013278558993
0.000226773172345
3.53968341276e-05
6.03216848933e-06
1.10423430555e-06
2.22260793041e-07
5.21424070616e-08
1.08249108234e-08
0.119387578992
0.256710978352
0.517511532832
1.01761725106
1.98588139056
3.84966537924
3.89996044955
1.61620570992
0.694078298339
0.259185589272
0.0784484834511
0.0185028266949
0.00325873820793
0.000456491691816
5.84215183052e-05
9.1912655949e-06
1.75087704554e-06
4.14291998114e-07
1.16117316239e-07
2.87772875785e-08
0.0859066202398
0.169306082955
0.316232455571
0.577913630554
1.04481319816
1.83124168692
3.15937575216
3.85032189071
1.63651534119
0.60898971147
0.17875342361
0.0409336037521
0.00711961962479
0.00087088910339
9.34863848322e-05
1.39901685334e-05
2.95787112726e-06
8.49508996825e-07
2.87832215512e-07
8.40047678341e-08
0.0557977578769
0.101281467831
0.175860524789
0.300264020562
0.512275448454
0.867224332151
1.44560380262
2.64327338103
3.82806540042
1.38437987684
0.386003852675
0.0807022635423
0.0129519394342
0.00138131728667
0.00014431311286
1.96741443806e-05
5.33090682226e-06
1.89702376692e-06
7.55711658169e-07
2.5040527135e-07
0.0330482920824
0.0555598903001
0.0905816567648
0.14700951583
0.245121878857
0.427136794958
0.74882225133
1.37925117611
3.14227354929
2.68848871633
0.714899545745
0.138497262907
0.0195843670238
0.00182300854838
0.000179612423606
3.07035322709e-05
1.03572080789e-05
4.38450712612e-06
1.99965972317e-06
7.21733139751e-07
0.0189997726972
0.0301468527264
0.0479584517281
0.0787428119222
0.138288699414
0.261121716331
0.517523991908
1.03615652449
2.47442603343
3.7411249368
0.959305796347
0.179311190022
0.0241669785091
0.00206343160166
0.000211034429966
4.81339796851e-05
2.10528442776e-05
1.04371101617e-05
5.15569723346e-06
1.96069704804e-06
0.0124554569774
0.0204806156748
0.0363209793461
0.0707662773247
0.151675864659
0.347415277022
0.725637907796
1.42745621791
3.14344728934
3.60938940974
0.923017708386
0.167442767345
0.0210452682465
0.00180052743968
0.000240658318909
8.21845326997e-05
4.4540898666e-05
2.43992270378e-05
1.26409204986e-05
4.96270945193e-06
0.0166982935547
0.0322470598858
0.068714294691
0.156746532677
0.369718940158
0.791184984705
1.55032646203
2.92795030187
6.05823581099
2.06162954892
0.527541992667
0.0950554821822
0.0116048191115
0.0012670084925
0.000298594678377
0.000153316562241
9.56337440628e-05
5.56082755583e-05
2.92657781158e-05
1.16917286471e-05
0.0480925418234
0.0940105553524
0.198048765937
0.429529878547
0.873354894671
1.68567815468
3.22067686471
6.4225077839
2.38399665902
0.783097993434
0.202357078059
0.0376607143358
0.00513645749466
0.00100050798782
0.000453877347484
0.000302474567451
0.000203386139046
0.000122412976308
6.40319745107e-05
2.56671470778e-05
0.139516962615
0.252633167836
0.481055145852
0.898851974353
1.6663376236
3.17890363222
6.27947259962
2.18798653591
0.815721654865
0.29437067903
0.0795247491682
0.0154110139648
0.00311339515834
0.00123229195796
0.000822969195996
0.000608391076395
0.000421389533598
0.000259020672524
0.000134144188812
5.29253738442e-05
0.296929710378
0.498853560825
0.875954209451
1.5879778075
3.06953856094
5.64393417878
2.13129244638
0.868607890252
0.336174152925
0.114495705207
0.0308676490987
0.00786274076367
0.00315363290333
9.4087041297e-16
1.86188126323e-15
4.74834610861e-15
3.81529679618e-15
1.99270492089e-14
9.49085792884e-15
6.44577154261e-14
2.4952721916e-14
1.79870043636e-13
6.20602684932e-14
4.38519790622e-13
1.34671135704e-13
9.49752102802e-13
2.67521079998e-13
1.89312558906e-12
5.03304884639e-13
3.55920241853e-12
9.14840897848e-13
6.44514040069e-12
1.63850668322e-12
1.14399982579e-11
2.94684380828e-12
2.02878346335e-11
5.42749868591e-12
3.67789354725e-11
1.04612897657e-11
6.91912539227e-11
2.15020762525e-11
1.36794886224e-10
4.83305857828e-11
2.8841786111e-10
1.22635466612e-10
6.68893635297e-10
3.58441410198e-10
1.75532042512e-09
1.1708523134e-09
5.23327662347e-09
4.02240714802e-09
1.65852949125e-08
1.35865573581e-08
5.32238904853e-08
4.37428136399e-08
1.62943391552e-07
1.31032996467e-07
4.66123943828e-07
3.64098960897e-07
1.23251613628e-06
9.37463626744e-07
3.00766165164e-06
2.23812788213e-06
6.84470399137e-06
5.01491497886e-06
1.44625909111e-05
1.0475605045e-05
2.86462142043e-05
2.05946949979e-05
)
;

boundaryField
{
    inletfuel
    {
        type            calculated;
        value           uniform 0;
    }
    inletair
    {
        type            calculated;
        value           uniform 0;
    }
    outlet
    {
        type            calculated;
        value           nonuniform 0();
    }
    axis
    {
        type            empty;
    }
    leftside
    {
        type            calculated;
        value           uniform 0;
    }
    burnerwall
    {
        type            calculated;
        value           uniform 0;
    }
    front
    {
        type            wedge;
    }
    back
    {
        type            wedge;
    }
    procBoundary0to1
    {
        type            processor;
        value           uniform 0;
    }
}


// ************************************************************************* //
