/*--------------------------------*- C++ -*----------------------------------*\
  =========                 |
  \\      /  F ield         | OpenFOAM: The Open Source CFD Toolbox
   \\    /   O peration     | Website:  https://openfoam.org
    \\  /    A nd           | Version:  7
     \\/     M anipulation  |
\*---------------------------------------------------------------------------*/
FoamFile
{
    version     2.0;
    format      ascii;
    class       volScalarField;
    location    "0.06";
    object      ed::R_O2;
}
// * * * * * * * * * * * * * * * * * * * * * * * * * * * * * * * * * * * * * //

dimensions      [1 -3 -1 0 0 0 0];

internalField   nonuniform List<scalar> 
814
(
-7.31872597545e-07
-8.78393113819e-07
-8.7557285599e-07
-8.0728256749e-05
-0.000120325320918
-0.000365789038152
-0.00397396760408
-0.0086127576432
-0.0738190380642
-0.12946939296
-0.524561868208
-10.8358075231
-0.799849338874
-2.98909629764
-26.7340604804
-1.14829567409
-3.04973499995
-13.1774701128
-1.1894642771
-2.40963157937
-5.84469502404
-1.01707877773
-1.60232981014
-2.48166340585
-0.743777147214
-0.943744722879
-1.04642741501
-0.475361562688
-0.508664051134
-0.454445328399
-0.269467630467
-0.256809499301
-0.211111444248
-0.137968725754
-0.124627457662
-0.107399302443
-0.065581201556
-0.0601476567893
-0.0598062417307
-0.0308944995685
-0.0310079132934
-0.038285661217
-0.0165678779936
-0.0193774849304
-0.0299173081872
-0.0118772893226
-0.0157333583875
-0.0272869201864
-0.0112443799364
-0.0154885713996
-0.0272375494001
-0.0122384139484
-0.0167397459466
-0.0287812274637
-0.0141713514711
-0.0190745415237
-0.0320080870407
-0.0169689828191
-0.0226329284424
-0.0373291924604
-0.0201898193119
-0.0264729046126
-0.0425284033572
-0.0223299979961
-0.0286119502259
-0.0440549551795
-0.0224581296793
-0.0278382006617
-0.0406266971287
-0.0199209963251
-0.0239045275724
-0.032968219858
-0.0159836741539
-0.0184815921112
-0.0241148470275
-0.0115346405433
-0.0129573391896
-0.0160059991565
-0.00789784113945
-0.00860518041253
-0.0101708345109
-0.00548368326451
-0.00591469601491
-0.00682784948806
-0.00636276891158
-0.00689651021601
-0.00815746022647
-0.0176552723318
-0.019272814482
-0.0229088847168
-0.0571299357147
-0.0613976878648
-0.0714974325993
-0.134477538081
-0.143764732537
-0.163884054628
-8.9136825585
-85.410266886
-25.5537649434
-7.66266387378
-2.43820808218
-0.878054207713
-0.388416542145
-0.2144115656
-0.134230042554
-0.0881682360587
-0.0657861450257
-0.0571682564467
-0.0529480575196
-0.0511938071968
-0.0521129719491
-0.0561162282792
-0.0641279877217
-0.0706876863008
-0.0697668928404
-0.0607171117909
-0.0465421531065
-0.0321738933765
-0.0202575712274
-0.012293324856
-0.00812841451313
-0.010062293281
-0.0285650387065
-0.086666665004
-0.193850564065
-0.00121557153125
-0.000309129271664
-0.000210953865523
-0.00012949841212
-6.38079020527e-05
-2.39798600479e-05
-6.67085268882e-06
-1.73244337032e-06
-4.1821394464e-07
-9.33594457588e-08
-1.90046851564e-08
-3.46326115389e-09
-5.5309379146e-10
-7.60380614498e-11
-8.81243245098e-12
-8.38959299421e-13
-6.45382762194e-14
-3.83819461206e-15
-1.77570194823e-16
-1.08505485977e-17
-0.0506545382226
-0.0144091041522
-0.00667335808832
-0.00303524330685
-0.00112189505973
-0.000273158926676
-6.64161982366e-05
-1.52180927337e-05
-3.26353024496e-06
-6.49357596908e-07
-1.19949550206e-07
-2.00623028403e-08
-2.96942546145e-09
-3.81678269454e-10
-4.16859799798e-11
-3.79579577497e-12
-2.80517969891e-13
-1.6348618669e-14
-7.53522088641e-16
-4.1091157601e-17
-0.355074003468
-0.102888714786
-0.0517092100325
-0.0196156471018
-0.00430198516921
-0.00103155207312
-0.000252316495427
-5.7266526759e-05
-1.19168411484e-05
-2.25034460027e-06
-3.97479696311e-07
-6.41370957299e-08
-9.18833887308e-09
-1.14312186711e-09
-1.20846759026e-10
-1.07394339104e-11
-7.75167069173e-13
-4.49390488239e-14
-2.04990058429e-15
-1.01080596585e-16
-13.2026217991
-5.9750204546
-0.766850420673
-0.0768380134423
-0.0167398642405
-0.00333147560435
-0.000902308612844
-0.00021008676978
-4.30354865926e-05
-7.74127056492e-06
-1.31408742827e-06
-2.07856145181e-07
-2.94799281706e-08
-3.63657951794e-09
-3.81211055812e-10
-3.37509459873e-11
-2.43073458526e-12
-1.43071808591e-13
-6.661933132e-15
-4.73532771442e-16
-63.862073493
-21.8075681668
-27.3277591286
-2.62655209132
-0.193184758711
-0.0203197794681
-0.00314533675367
-0.000716887664531
-0.000144126388382
-2.46165611366e-05
-4.03067442718e-06
-6.35434154319e-07
-9.15099617398e-08
-1.14882681238e-08
-1.2243556362e-09
-1.10277154892e-10
-8.0988726043e-12
-4.92582284342e-13
-2.43996502275e-14
-2.87889123196e-15
-12.9662232318
-5.55515429895
-28.4285989191
-3.4291055244
-0.296856681585
-0.0374237408103
-0.00825191966631
-0.00181000823321
-0.000389362671081
-6.60434424831e-05
-1.06718483562e-05
-1.71250414573e-06
-2.56948756734e-07
-3.36856314981e-08
-3.73783327137e-09
-3.49390680963e-10
-2.66510729293e-11
-1.69530299861e-12
-9.16680958335e-14
-1.45758992833e-14
-2.76110346111
-4.50831300876
-23.7762981646
-2.78754867052
-0.266059903902
-0.0461308231189
-0.0138768262141
-0.00409939190449
-0.000801061921712
-0.000145159854494
-2.39636370863e-05
-3.99978016205e-06
-6.3805392138e-07
-8.91910842567e-08
-1.05078988861e-08
-1.03653079937e-09
-8.32558222153e-11
-5.58512177837e-12
-3.31444081723e-13
-6.0096915135e-14
-0.959692160574
-4.45839383325
-21.3148075662
-2.10836696937
-0.215893207868
-0.0491146430717
-0.0193200799899
-0.00675901624138
-0.00140943787449
-0.000270826503874
-4.67197257553e-05
-8.23767751255e-06
-1.41013600326e-06
-2.12645864532e-07
-2.69445790508e-08
-2.83828641125e-09
-2.42287459095e-10
-1.72231513354e-11
-1.11646821327e-12
-2.09144438203e-13
-0.627438559308
-4.21822646395
-20.6180183607
-1.87921581335
-0.19737504607
-0.0502129898279
-0.0231721952765
-0.00885527412841
-0.00226174398237
-0.000419104145919
-8.11971782112e-05
-1.53972112219e-05
-2.82678818351e-06
-4.60685044313e-07
-6.31392424658e-08
-7.14888685932e-09
-6.51976710418e-10
-4.9196151103e-11
-3.4560045797e-12
-6.32715083526e-13
-0.508792103835
-3.80268390449
-22.6520041951
-2.01020439303
-0.215074112643
-0.0515055257193
-0.0248330500993
-0.0103121408986
-0.00298663434147
-0.00061867382528
-0.000131480631249
-2.68143328504e-05
-5.23626979844e-06
-9.17755715314e-07
-1.36040969576e-07
-1.65875562999e-08
-1.61945901287e-09
-1.29703544623e-10
-9.79933578853e-12
-1.69848248372e-12
-0.401209067511
-2.59566875463
-26.2378815907
-2.52694317458
-0.271279795652
-0.0558143401731
-0.0250649998181
-0.0111633717155
-0.00354868459969
-0.000913649404423
-0.000193081411213
-4.39715458304e-05
-9.09930049498e-06
-1.70146216369e-06
-2.71451642238e-07
-3.55775365082e-08
-3.71769696362e-09
-3.15849266547e-10
-2.55363720017e-11
-4.12823806775e-12
-0.285654196946
-1.56945971081
-12.4502042029
-3.27549253743
-0.3530823896
-0.0660603653322
-0.0254103616326
-0.011844127706
-0.00415844671498
-0.00121032163822
-0.000280016844196
-6.88707895332e-05
-1.49849725873e-05
-2.96231326909e-06
-5.04678318565e-07
-7.08179646815e-08
-7.91038595795e-09
-7.12618999255e-10
-6.14894272262e-11
-9.24042774061e-12
-0.194678713879
-0.982427676553
-6.81640980403
-4.17153134357
-0.451353787762
-0.0854465395668
-0.0275244248032
-0.0128112876341
-0.00486964375868
-0.00153338779677
-0.000389759828248
-0.000102760349322
-2.34858611154e-05
-4.87207807853e-06
-8.7895402612e-07
-1.31437903098e-07
-1.5663821858e-08
-1.49631756058e-09
-1.37623547735e-10
-1.93610751939e-11
-0.154809478894
-0.783181281207
-4.76729195782
-4.91976679407
-0.628022701808
-0.123363351401
-0.03354100896
-0.0144313643129
-0.00572774012351
-0.00186042946521
-0.000540881791853
-0.000142934357113
-3.50355056282e-05
-7.60076085897e-06
-1.44175547519e-06
-2.28726178843e-07
-2.90138302562e-08
-2.94022670266e-09
-2.88276540877e-10
-3.84970288711e-11
-0.139058004036
-0.663603792987
-3.2891249964
-5.54153201098
-0.872146621825
-0.187338335044
-0.0461574308337
-0.017012130578
-0.00671480324087
-0.00223241435786
-0.00069240397632
-0.000192811990605
-4.99420994853e-05
-1.13046972227e-05
-2.24064388108e-06
-3.75526495742e-07
-5.05807419092e-08
-5.44301880986e-09
-5.70155410609e-10
-7.37302280748e-11
-0.124035766306
-0.503829792145
-1.87719180042
-6.08543306884
-1.25510088761
-0.291028503137
-0.0686459575957
-0.0208112650036
-0.00773201477671
-0.00260689239184
-0.000836641822972
-0.000257254867987
-6.84968358205e-05
-1.61457082057e-05
-3.32293091349e-06
-5.85985503272e-07
-8.36122593403e-08
-9.57210831279e-09
-1.07712824835e-09
-1.38290077375e-10
-0.113837933999
-0.398475415582
-1.23314088944
-3.61212405908
-2.17919878624
-0.460872646596
-0.101858325923
-0.0260765455271
-0.00878414545617
-0.00299061589029
-0.00100104683708
-0.000325799521089
-9.09921369643e-05
-2.2390274759e-05
-4.74781859218e-06
-8.76979849747e-07
-1.32220069538e-07
-1.61550592493e-08
-1.9716907564e-09
-2.58348003547e-10
-0.111664553907
-0.353498192272
-0.996549412313
-2.75631809999
-3.16001441322
-0.657176313122
-0.144115211901
-0.034782635736
-0.0106713822758
-0.00361330539745
-0.00123742243689
-0.000413935226905
-0.00012004668114
-3.06959163621e-05
-6.62689398914e-06
-1.27135209653e-06
-2.01887667113e-07
-2.64724684563e-08
-3.55275956753e-09
-4.8789108804e-10
-0.117211043223
-0.347262800591
-0.911040079984
-2.27992245562
-4.48184956848
-0.922295605396
-0.209787587677
-0.0551173757344
-0.0168650515737
-0.00546265480636
-0.00178786193081
-0.000573338011595
-0.000166773528199
-4.21727791318e-05
-9.23706067654e-06
-1.80188344758e-06
-3.00298311541e-07
-4.26859119323e-08
-6.41084595877e-09
-9.42300051792e-10
-0.131498914067
-0.367069794758
-0.910730037445
-2.17933128878
-5.60658327348
-1.58706867464
-0.361057148247
-0.110539785238
-0.0382611330242
-0.0122011611151
-0.00356289167027
-0.000993651797429
-0.000262850473933
-6.18646249143e-05
-1.3268536668e-05
-2.53457557391e-06
-4.4066816522e-07
-6.89201495601e-08
-1.18047188419e-08
-1.89048408829e-09
-0.139774592007
-0.360037839107
-0.848379877423
-1.96571665945
-4.7828979797
-2.72698627259
-0.729152970975
-0.254245583514
-0.100003157466
-0.034388413925
-0.00959229644975
-0.00230954315887
-0.000508730388882
-0.000101953714077
-2.01314204582e-05
-3.62489869282e-06
-6.48698647827e-07
-1.13816169483e-07
-2.26449403455e-08
-4.0512536645e-09
-0.130297896363
-0.306991980267
-0.669119600653
-1.41873857961
-3.01643055463
-4.89725263794
-1.54704320877
-0.615437663352
-0.257417066435
-0.0939167835165
-0.0274527512008
-0.00636571297819
-0.00117925986314
-0.000201395723983
-3.14356895136e-05
-5.35712812735e-06
-9.80663034842e-07
-1.97388310375e-07
-4.63073198289e-08
-9.61353025043e-09
-0.106027303217
-0.227983287463
-0.459598499887
-0.903739013283
-1.76364786126
-3.41886184388
-3.4635285564
-1.43534138403
-0.616406252775
-0.230180972721
-0.0696695687441
-0.0164322355216
-0.0028940634109
-0.000405407190873
-5.18837561498e-05
-8.16270094766e-06
-1.55494208837e-06
-3.6792992768e-07
-1.03123004935e-07
-2.55569148953e-08
-0.076293089695
-0.150359589712
-0.280843909701
-0.51324119525
-0.927891550373
-1.62631338403
-2.80582028448
-3.41944488728
-1.45337823051
-0.540839652996
-0.158749709193
-0.0363528572522
-0.00632288614209
-0.000773430735534
-8.30246274776e-05
-1.2424574262e-05
-2.62686538695e-06
-7.54443207178e-07
-2.55621848163e-07
-7.46040674081e-08
-0.0495536122199
-0.0899473880841
-0.156180545272
-0.266662450333
-0.454948368686
-0.770176076929
-1.28383098147
-2.34747325159
-3.39967904845
-1.22945842615
-0.342807416618
-0.0716711356335
-0.0115025300055
-0.00122673856048
-0.000128163501636
-1.74724748536e-05
-4.73434237328e-06
-1.68473400535e-06
-6.71142423708e-07
-2.22383231629e-07
-0.0293499651723
-0.0493423636301
-0.0804449580834
-0.130558158916
-0.21769108641
-0.379337305073
-0.665023987987
-1.22490366164
-2.79063193352
-2.38762868574
-0.634897462083
-0.122998484541
-0.0173927441889
-0.00161900158926
-0.000159512581292
-2.72675998073e-05
-9.19816659936e-06
-3.89385118991e-06
-1.77588430547e-06
-6.40966330804e-07
-0.0168735699126
-0.0267732164605
-0.0425915773326
-0.069930959873
-0.122813260709
-0.231900434096
-0.459609564708
-0.920203616905
-2.19752106165
-3.32246780943
-0.85195300387
-0.159245057778
-0.0214625305233
-0.00183251968039
-0.000187418253089
-4.27474625266e-05
-1.8696888928e-05
-9.26912709989e-06
-4.57873991987e-06
-1.74128181662e-06
-0.0110616072861
-0.0181886965675
-0.0322564166455
-0.0628470533266
-0.13470231182
-0.308537162995
-0.644434128954
-1.26771423395
-2.79167432414
-3.20547437686
-0.819725797842
-0.148704791693
-0.0186901607059
-0.00159903626834
-0.000213727028943
-7.29875288691e-05
-3.95564715215e-05
-2.16687888743e-05
-1.12263161877e-05
-4.40734877347e-06
-0.0148296418177
-0.0286383962656
-0.0610247013973
-0.139205537868
-0.32834489571
-0.702646045612
-1.37683446857
-2.60029290385
-5.3802783398
-1.83091928951
-0.468506483576
-0.084418132245
-0.0103061615379
-0.00112522169179
-0.000265179918803
-0.000136159404271
-8.49316827188e-05
-4.93853342514e-05
-2.59907400448e-05
-1.038334531e-05
-0.0427106618414
-0.0834901397792
-0.175885772499
-0.381462586459
-0.77562058813
-1.49703939339
-2.86026138885
-5.70378582065
-2.1172113445
-0.69546404324
-0.17971195542
-0.0334462262487
-0.00456165323768
-0.000888544392064
-0.000403085409314
-0.000268625622107
-0.000180625857538
-0.000108714138156
-5.68663644438e-05
-2.27948201053e-05
-0.123904072969
-0.224361811463
-0.427221828636
-0.798264372529
-1.47986319826
-2.82316286297
-5.57675723876
-1.94313607693
-0.724436896796
-0.261428613489
-0.0706253930643
-0.0136864175011
-0.00276498522941
-0.00109439017175
-0.000730873389164
-0.000540308009225
-0.000374233201045
-0.00023003451127
-0.000119132548813
-4.70026673447e-05
-0.263701271959
-0.443028480861
-0.777929022046
-1.41027237439
-2.72603648122
-5.01233985614
-1.89278643862
-0.771404805541
-0.298553996545
-0.101682863121
-0.0274133508546
-0.00698284701059
-0.00280072009918
-8.35580664304e-16
-1.65352418499e-15
-4.21697413489e-15
-3.3883393372e-15
-1.7697077925e-14
-8.42876687765e-15
-5.72444620776e-14
-2.21603439404e-14
-1.59741371902e-13
-5.51153056357e-14
-3.89446466705e-13
-1.19600526792e-13
-8.43468433106e-13
-2.37583665783e-13
-1.68127205991e-12
-4.469816715e-13
-3.16090364865e-12
-8.12464027584e-13
-5.72388569488e-12
-1.45514672792e-12
-1.01597852502e-11
-2.61707209938e-12
-1.80174890258e-11
-4.82012495554e-12
-3.26631243908e-11
-9.29060084303e-12
-6.14482856723e-11
-1.90958488133e-11
-1.21486615297e-10
-4.29220670753e-11
-2.56141956067e-10
-1.08911730294e-10
-5.94039923485e-10
-3.18329397458e-10
-1.55888822378e-09
-1.03982603805e-09
-4.64763765259e-09
-3.57227264298e-09
-1.47292884861e-08
-1.2066129901e-08
-4.72677779591e-08
-3.88476975956e-08
-1.44708926415e-07
-1.16369519887e-07
-4.13961528881e-07
-3.23353830054e-07
-1.09458926301e-06
-8.32555120447e-07
-2.67108401565e-06
-1.98766626813e-06
-6.07873542332e-06
-4.45371214962e-06
-1.28441293875e-05
-9.30331414592e-06
-2.54405095162e-05
-1.82900096445e-05
)
;

boundaryField
{
    inletfuel
    {
        type            calculated;
        value           uniform 0;
    }
    inletair
    {
        type            calculated;
        value           uniform 0;
    }
    outlet
    {
        type            calculated;
        value           nonuniform 0();
    }
    axis
    {
        type            empty;
    }
    leftside
    {
        type            calculated;
        value           uniform 0;
    }
    burnerwall
    {
        type            calculated;
        value           uniform 0;
    }
    front
    {
        type            wedge;
    }
    back
    {
        type            wedge;
    }
    procBoundary0to1
    {
        type            processor;
        value           uniform 0;
    }
}


// ************************************************************************* //
