/*--------------------------------*- C++ -*----------------------------------*\
  =========                 |
  \\      /  F ield         | OpenFOAM: The Open Source CFD Toolbox
   \\    /   O peration     | Website:  https://openfoam.org
    \\  /    A nd           | Version:  7
     \\/     M anipulation  |
\*---------------------------------------------------------------------------*/
FoamFile
{
    version     2.0;
    format      ascii;
    class       volScalarField;
    location    "0.06";
    object      epsilon;
}
// * * * * * * * * * * * * * * * * * * * * * * * * * * * * * * * * * * * * * //

dimensions      [0 2 -3 0 0 0 0];

internalField   nonuniform List<scalar> 
814
(
17293.5016749
21759.7801186
56177.3512425
22074.6150538
26215.3336396
48040.7467805
23812.8701044
29891.3869106
45414.5652057
29023.6005757
49854.1310856
138920.617396
37956.9348173
78572.7765756
221588.338422
50493.3159001
111563.193879
262785.771112
65879.8588912
144936.053805
292499.765265
82747.3031022
174202.008462
312481.19974
100358.032664
197854.069387
322954.378795
117870.211104
213960.425773
320845.90485
133117.363861
219313.03001
303423.72407
141933.894357
210751.263309
270300.286778
139764.182901
187934.821941
225119.119933
125046.91269
154464.991131
174352.632694
101260.898311
117091.329466
125918.727661
75385.5172581
83134.3534222
86350.9255541
53659.6852616
57401.7736604
58476.7569706
38539.8114838
40534.504153
41062.0427786
29135.9649183
30447.5707234
30951.789697
23657.3564669
24657.949298
25212.8005052
20448.5464196
21256.1121465
21765.188516
18477.0488188
19128.5458935
19550.1509806
17136.8905758
17672.9370546
18044.3168934
16129.5276073
16583.201921
16962.7866013
15246.1218972
15649.6334468
16070.7741759
14406.2915508
14755.1577695
15196.0946103
13624.1933944
13923.6112718
14351.245342
12868.448371
13114.667903
13495.3282429
11927.3198199
12104.4460517
12384.1895817
9928.39781667
10018.7097821
10145.5014776
6453.68999488
6458.55487781
6429.5265633
3346.02343209
3328.51603278
3275.38606313
6101.28154752
101601.639911
166261.850297
223490.047533
268293.982261
295540.969843
301679.51789
286260.918821
252650.339614
207332.168279
157981.413025
112378.632236
76328.8979014
51759.7820367
36817.2987578
28314.7890386
23489.376352
20466.8404773
18545.032254
17307.8764958
16522.9799811
15922.5919256
15281.0236472
14568.1942608
13755.8356474
12589.7484357
10205.3257226
6331.01443908
3184.40091084
0.853242247538
0.444747556019
0.433071026033
0.439760190578
0.405445153787
0.368050020146
0.318651585656
0.271973606681
0.230028238666
0.193456419623
0.162784502045
0.137132220155
0.11615801694
0.0994914679087
0.0867444931824
0.0769789143685
0.0704669691907
0.0656357075395
0.0666338878412
0.226206046986
1.17827973725
1.09980636989
1.16092489121
1.03761355336
0.852778133491
0.682884156378
0.532187970635
0.415062771226
0.326969741607
0.259187572219
0.208211662883
0.168465013773
0.137795900404
0.114191588677
0.0966009657842
0.0834050427012
0.0745503703034
0.0682959603037
0.0712591237902
0.235790090498
2.78072640885
2.56285673621
1.98687747323
1.88962980859
1.37465183136
1.03434574718
0.738397368848
0.532162598554
0.393732740351
0.297419286234
0.23096711814
0.182524655842
0.14667603325
0.120082839517
0.100441060633
0.0862137062864
0.0763820196611
0.0700180227479
0.0741898788417
0.245259017471
806.6115026
28.757784339
7.24384053934
3.95150400365
2.56001324129
1.66427396708
1.08658405577
0.702690413969
0.479793483441
0.339545123164
0.252829745731
0.194548399248
0.153662162915
0.124591265886
0.103344050562
0.0885124216784
0.0779450968406
0.071848152328
0.0759321244485
0.343427296113
9329.38330999
2062.41123281
182.576982118
35.2307362422
10.1976257255
3.60417946185
1.79742249007
0.988393623907
0.607606498313
0.39481882421
0.278863897668
0.207505291965
0.16074911005
0.128889676549
0.106092120004
0.0905960691726
0.0794340469185
0.0734356438258
0.0779230548323
0.441090203123
23634.7878883
3762.89795866
308.236558635
51.4352341385
14.4146875418
5.26828257385
2.56551101329
1.37584322834
0.786746108341
0.472548981259
0.314407854651
0.224245130183
0.16947724917
0.133818227352
0.109165636532
0.0927460168626
0.0810289507942
0.0748468067088
0.0812407234839
0.562159796761
43332.3444478
3846.53852042
320.153868901
53.3114619297
15.2569659269
6.32544122623
3.31810900425
1.83179868001
1.00937505187
0.575799734666
0.362206428933
0.246785000036
0.18093234347
0.14004001123
0.112923799655
0.0952645361854
0.0829105657812
0.0764767981015
0.0856963020544
0.666673966742
69001.2620947
5850.03144681
317.159313671
50.8305454984
15.1777576535
7.0584689441
3.97577210729
2.27249351274
1.24699707699
0.698731741249
0.42215577927
0.276122389957
0.195705848173
0.147913558882
0.117527655562
0.0982865818404
0.0851359471684
0.0785112728252
0.0909737334083
0.742699982889
96802.2026832
8420.76424491
343.186710133
52.4166820448
15.6734928402
7.65832366715
4.47831615263
2.63938343406
1.47308073124
0.833732068896
0.493715589214
0.312819354335
0.214221546468
0.15764602776
0.123035588428
0.101812862368
0.0876695013292
0.080893722102
0.096802264604
0.79449025839
114791.730264
10796.377372
417.803447069
59.0378065063
17.1540833644
8.19367974744
4.82880941236
2.92130895964
1.68556395851
0.976543464906
0.57668822303
0.357495769639
0.237090041191
0.169542907505
0.129571273834
0.105859377469
0.0904901572974
0.083549933219
0.102969843987
0.829719065663
117892.342125
12849.0165075
562.996201285
74.2481147347
19.9865147776
8.87570124629
5.12663029022
3.16043789539
1.89056767134
1.12299002206
0.670472708759
0.410716887501
0.265048212347
0.184042267996
0.137364879804
0.110518258852
0.093634893024
0.0864815535801
0.109486096684
0.849792676809
108515.322359
13628.5978106
808.46468776
95.1717277961
24.5546217519
10.0710178196
5.51661113161
3.40355496055
2.0891952846
1.27183445348
0.772840004911
0.472268574718
0.298636836036
0.201623579427
0.146697002167
0.115929775239
0.0971795132607
0.0897294237074
0.116386643804
0.855904465976
90660.1613082
12890.3594684
1028.86508825
120.060528683
31.6487865161
12.2620621951
6.14739725144
3.69210597245
2.2861484729
1.41960421239
0.8800445828
0.541085787628
0.338062687893
0.222717931933
0.157844323457
0.122247732006
0.101212445269
0.0933351241094
0.123627324671
0.851178335432
69871.2333734
10802.5191151
1040.50141988
150.741174461
44.3854008322
16.2949110227
7.2595022757
4.08545462993
2.49477614424
1.5672532245
0.986861642847
0.615630565731
0.383117344924
0.247583511563
0.171053658949
0.129625582041
0.105826068631
0.0973345414103
0.131075051859
0.839140885009
50592.982219
8467.89506143
981.196990145
197.949582043
67.08662979
23.6383574185
9.31143915916
4.69129548562
2.74397135894
1.71639211401
1.09396900581
0.693741123723
0.4330132248
0.27627303558
0.186535329257
0.138207185007
0.111112966765
0.101760521118
0.138590239151
0.82232656426
35774.5217802
6704.91436378
1001.59008525
276.386870098
106.544920585
36.6839715287
13.0627335495
5.67334081779
3.07553315673
1.88001607666
1.20388838135
0.773136915248
0.486689853347
0.308594117339
0.204422900597
0.148114136669
0.117156974332
0.106637187412
0.146043637329
0.802438189742
26205.3127581
5852.45876357
1180.23361816
402.284674065
167.157451869
57.5917572141
19.3036878875
7.23676846396
3.54852966848
2.08227206305
1.32310612087
0.855591594159
0.543648903512
0.344169705091
0.224697427763
0.159420931779
0.124013106395
0.11196603374
0.153287097079
0.780293126028
20744.29619
5691.0899466
1495.02107295
576.76462962
245.448242301
87.8076517093
29.095300402
9.83188519303
4.31556232989
2.38465076498
1.47527678808
0.948455894414
0.604674667696
0.382825824962
0.247250285929
0.172140777227
0.131688375017
0.117714854281
0.160141138241
0.756180309585
17796.8122094
5907.73839482
1923.51097511
793.001557218
336.009479103
128.694637252
44.592508758
14.7558430829
5.90484633166
2.96734300419
1.72541795211
1.07243185752
0.675360293398
0.42560245579
0.27210729595
0.186195174205
0.140128429642
0.123804375557
0.16641289615
0.730227430835
15986.9401559
6322.14564481
2408.57629891
1031.48324788
434.413663655
183.401722079
71.2877265752
25.4077078972
9.92671717587
4.40210871943
2.25759603196
1.28648493925
0.771341580434
0.475692367311
0.299717465354
0.201587174525
0.149257049915
0.130146892234
0.171962986274
0.702851259094
14833.7830381
6910.88538353
2996.53474383
1359.96479197
593.832170004
257.055997334
117.253765838
48.2595392915
20.0518134616
8.16499209519
3.53345882466
1.72945586453
0.930352189755
0.541145789291
0.331411289811
0.218496122778
0.158975066199
0.136661869112
0.176812843353
0.674898923544
14318.9908335
7666.19260797
3730.86852252
1812.95365275
834.462844576
371.261364169
190.646201467
95.6710112314
44.5289273549
17.8661651064
6.67945707328
2.69961532837
1.22984495178
0.637208688839
0.369766180347
0.237374423892
0.169504267054
0.143517239416
0.181307538765
0.648212607205
14187.5060481
8574.26444529
4662.57709557
2452.75181772
1204.02645798
568.622294842
302.860615927
181.823013819
97.5994622329
41.1164356835
14.154556833
4.69573541392
1.77234222878
0.783328201878
0.417488337561
0.258584354102
0.181131062841
0.151163104944
0.186298329065
0.625028583088
14331.5836524
9648.01527644
5826.52341955
3328.12427093
1738.44325256
855.176210231
470.231194243
304.413995074
199.561729826
93.3527739208
30.5230057936
8.51148741131
2.63952822361
0.988340548171
0.476257645852
0.282897783257
0.194907668909
0.160793980779
0.1934826285
0.60886417582
14545.6456808
10773.8524295
7154.75958779
4428.75887734
2464.04364612
1256.6955044
690.817146912
454.779234078
336.59067901
188.991457133
61.279500323
14.8274391507
3.78195222247
1.21766700842
0.539546559936
0.311205762205
0.212434835171
0.174180436553
0.20525139302
0.603966433969
14613.3964316
11803.8619918
8557.89876117
5701.68719685
3350.74395331
1765.77236111
991.054784899
629.165766241
464.458991224
305.361366402
102.804861836
22.2928355085
4.90731731628
1.4216887357
0.603382933797
0.346316655054
0.237123880731
0.194457064495
0.224930503105
0.614092567629
14375.73761
12461.7058057
9720.28328169
6849.74571568
4255.21203322
2400.11012435
1329.54538771
788.358517633
556.483891246
379.931030117
126.293225846
26.4609892438
5.66235871395
1.59319047086
0.679535503675
0.398410250025
0.276801063944
0.227340365232
0.25699866128
0.642611776039
13806.834743
12505.6070151
10208.7790972
7433.86621677
4776.74990997
2730.50096925
1465.12229167
820.791566341
548.553253501
358.551301443
116.254754255
24.4792326658
5.41723003931
1.64878233974
0.778725414147
0.482372770239
0.345498925576
0.283457074981
0.30878750199
0.69426546701
12647.0615818
11590.5886982
9526.50675669
6887.01418288
4247.10881857
2320.38978882
1200.05908631
646.904118612
402.772319489
226.995840586
72.3875285177
16.7794629339
4.29966561398
1.65173257871
0.939041629162
0.633779487744
0.47225421793
0.383475744508
0.392168652172
0.772454665148
10049.1791885
8918.74351473
6966.8001107
4583.70677832
2662.08171914
1437.70300587
748.380789632
386.367175793
206.57415059
101.567933459
34.5144984576
9.77429287069
3.37668828065
1.82572288145
1.25640374612
0.929838392521
0.717762145655
0.571527671601
0.532069426177
0.88760707736
5971.81903004
4950.56460609
3537.24070222
2324.29544272
1433.13386656
825.241352451
423.399659717
187.313607566
89.3766120579
45.2242752843
18.1266812822
6.72886989014
3.44655752149
2.49477255845
1.96463477997
1.55833974256
1.22572235121
0.948190049837
0.785942141508
1.06131574048
2948.67689993
2449.68089167
1930.19583655
1400.96510083
920.638118314
538.969205541
247.404673261
98.049026242
47.7851702168
25.0104710895
11.911347808
6.43392670283
4.83747534498
1.64458043565
3.43168166505
7.74620477059
4.44427220173
8.57718971249
4.99949243776
8.07658152761
4.90617582482
7.23961649645
4.64613781205
6.347683501
4.34948639669
5.5618111977
4.04893118782
4.8908242753
3.75768124197
4.326587246
3.4818169048
3.85669973742
3.22336373796
3.46509905426
2.98319007808
3.1369384826
2.76165314449
2.85931469902
2.55954691963
2.62338383647
2.37852715002
2.42361881676
2.22103440023
2.25590536824
2.08978193869
2.11753611467
1.98843101092
2.00664132014
1.9197856171
1.92281835273
1.88806748027
1.87036782351
1.89453918266
1.85011428669
1.94259332525
1.86659758616
2.03243149558
1.91970110531
2.16479599143
2.00694827308
2.33717824267
2.12140520309
2.54615986587
2.25506971201
2.78818401177
2.41558959434
3.06387994767
2.61754160601
3.37657619941
)
;

boundaryField
{
    inletfuel
    {
        type            turbulentMixingLengthDissipationRateInlet;
        mixingLength    0.005;
        phi             phi;
        k               k;
        value           uniform 1630.0935556;
    }
    inletair
    {
        type            turbulentMixingLengthDissipationRateInlet;
        mixingLength    0.005;
        phi             phi;
        k               k;
        value           uniform 0.0603738353925;
    }
    outlet
    {
        type            inletOutlet;
        inletValue      nonuniform 0();
        value           nonuniform 0();
    }
    axis
    {
        type            empty;
    }
    leftside
    {
        type            epsilonWallFunction;
        value           nonuniform List<scalar> 
33
(
1.64458043565
3.43168166505
0.226206046986
0.235790090498
0.245259017471
3.43168166505
4.44427220173
4.99949243776
4.90617582482
4.64613781205
4.34948639669
4.04893118782
3.75768124197
3.4818169048
3.22336373796
2.98319007808
2.76165314449
2.55954691963
2.37852715002
2.22103440023
2.08978193869
1.98843101092
1.9197856171
1.88806748027
1.89453918266
1.94259332525
2.03243149558
2.16479599143
2.33717824267
2.54615986587
2.78818401177
3.06387994767
3.37657619941
)
;
    }
    burnerwall
    {
        type            epsilonWallFunction;
        value           nonuniform List<scalar> 7(56177.3512425 48040.7467805 45414.5652057 0.853242247538 1.17827973725 2.78072640885 6101.28154752);
    }
    front
    {
        type            wedge;
    }
    back
    {
        type            wedge;
    }
    procBoundary0to1
    {
        type            processor;
        value           nonuniform List<scalar> 
27
(
2115.65263789
2104.77660067
2077.00222779
2033.49873655
4.20284129388
3.57403732208
2.93332453604
2.33100139309
1.74410163916
1.28358494751
1.34879209158
1932.61435885
1724.3637896
1438.74444898
1101.44208303
753.885139632
435.527032318
188.887187954
73.8726510312
35.1303842413
20.0009605572
12.6242670001
9.94810510092
4.20284129388
9.14208527224
2.88452353931
3.74883208206
)
;
    }
}


// ************************************************************************* //
