/*--------------------------------*- C++ -*----------------------------------*\
  =========                 |
  \\      /  F ield         | OpenFOAM: The Open Source CFD Toolbox
   \\    /   O peration     | Website:  https://openfoam.org
    \\  /    A nd           | Version:  7
     \\/     M anipulation  |
\*---------------------------------------------------------------------------*/
FoamFile
{
    version     2.0;
    format      ascii;
    class       volScalarField;
    location    "0.06";
    object      H2;
}
// * * * * * * * * * * * * * * * * * * * * * * * * * * * * * * * * * * * * * //

dimensions      [0 0 0 0 0 0 0];

internalField   nonuniform List<scalar> 
814
(
0.999999952522
0.999999963544
0.999999986294
0.999995196774
0.99999517818
0.999996376887
0.999767341044
0.999637398342
0.999220012393
0.993054262367
0.981339293083
0.878632496107
0.979373086159
0.952542337446
0.807833535778
0.958176346837
0.915821337434
0.752807914042
0.930307975651
0.874409808638
0.707975214518
0.898119345926
0.833195489142
0.676134429692
0.863123954823
0.795002757804
0.65509683949
0.825724003144
0.759970519807
0.639708271182
0.785140768893
0.725697169361
0.623452793317
0.73988916289
0.688610352628
0.601316909946
0.68850373447
0.645375261355
0.57010534428
0.630584895918
0.594630626104
0.529309656587
0.567521673227
0.537470511771
0.480761011165
0.503320312709
0.478072663106
0.429132519384
0.443830885334
0.422647865829
0.380918015165
0.393898543597
0.376197116834
0.340973895371
0.354832827271
0.339997964375
0.310186233951
0.325263589478
0.312569608282
0.286873773155
0.302861850421
0.291805418475
0.269294295804
0.286295878616
0.276655542167
0.257000066738
0.274676264765
0.266377787842
0.2495178933
0.26774855095
0.260819141206
0.246740566242
0.264367029447
0.258758485861
0.247313603966
0.262513471833
0.258139002598
0.249169165384
0.259428470028
0.256036604526
0.249039594936
0.251915121334
0.249252215287
0.243704632408
0.23555782878
0.233376114166
0.228781188071
0.204653622479
0.202708168092
0.198567907272
0.158554992142
0.15675916582
0.152893727685
0.110488977307
0.108942051138
0.105605545691
0.329522202105
0.414781080809
0.462841284045
0.482913853223
0.499178139412
0.512639402608
0.520714166834
0.519979926153
0.508818907529
0.486326692039
0.453435230807
0.412771442762
0.369322921642
0.329470079358
0.297392021977
0.273192493316
0.254816734042
0.241115699151
0.232491974407
0.228548522555
0.229225078162
0.233014066709
0.237881823506
0.240108457347
0.236500423801
0.222694649277
0.193003868374
0.147638016186
0.101104258837
5.10543424492e-06
3.26502384987e-06
1.35364033403e-06
5.03524821032e-07
1.74536408187e-07
5.71800431085e-08
1.77796350794e-08
5.19831042055e-09
1.41379424156e-09
3.54693830541e-10
8.05388905022e-11
1.62306969767e-11
2.83516675567e-12
4.20769846226e-13
5.18939235757e-14
5.1900063986e-15
4.13074819095e-16
2.51652460592e-17
1.12107813441e-18
2.01800050469e-20
0.000227017767747
9.47282796214e-05
2.45561068866e-05
6.46003250451e-06
1.75575002286e-06
5.05380440635e-07
1.45428122374e-07
3.92043951521e-08
9.78124511368e-09
2.23974232283e-09
4.69541674534e-10
8.80450224433e-11
1.44168591214e-11
2.02116062035e-12
2.3717392133e-13
2.28784302781e-14
1.76265939458e-15
1.05644562853e-16
4.54261446062e-18
7.51425369744e-20
0.00157175610648
0.000275287179741
7.34820323062e-05
1.89950793675e-05
5.3037679206e-06
1.58055179052e-06
4.81110977679e-07
1.34096021702e-07
3.34879542289e-08
7.4334206409e-09
1.50978061254e-09
2.75298506254e-10
4.38678038247e-11
5.97248819901e-12
6.80522928029e-13
6.41582912463e-14
4.84015221563e-15
2.88233199374e-16
1.204261256e-17
1.82360462506e-19
0.0541472754299
0.00127297432386
0.000209233325232
4.53615640772e-05
1.42277403259e-05
3.90643207591e-06
1.40423944017e-06
4.29534375881e-07
1.10970172784e-07
2.43292114878e-08
4.84804536326e-09
8.76293051061e-10
1.39093831785e-10
1.8834382495e-11
2.13311244057e-12
2.00441722403e-13
1.51130950934e-14
9.11363200474e-16
3.86060377932e-17
7.64003236956e-19
0.116011312775
0.0446168449195
0.00238872957959
0.000266177775473
5.17818049693e-05
1.32619478841e-05
3.50181191531e-06
1.18512468548e-06
3.25694535499e-07
7.19375664311e-08
1.43011358622e-08
2.62282546888e-09
4.26402818118e-10
5.90138836287e-11
6.81201755495e-12
6.51762993193e-13
5.01694729987e-14
3.12080042284e-15
1.39442665509e-16
4.17193560244e-18
0.175632807481
0.0664465557615
0.00322513404452
0.000318563058176
6.53629343552e-05
1.86930543693e-05
7.05049937184e-06
2.35045894668e-06
7.40935250189e-07
1.73894743367e-07
3.5744383067e-08
6.85654513123e-09
1.17692773009e-09
1.712597195e-10
2.06516491338e-11
2.0541729366e-12
1.64391288158e-13
1.06878112967e-14
5.116085695e-16
1.91660548963e-17
0.219723902428
0.0608220428875
0.00296396772029
0.000293822077584
6.21552983472e-05
2.0645425438e-05
9.57640981382e-06
4.25030678488e-06
1.26780562496e-06
3.36487004728e-07
7.43066575251e-08
1.53410762622e-08
2.8531116724e-09
4.4711305348e-10
5.75233378584e-11
6.05365486141e-12
5.10745188608e-13
3.4992732568e-14
1.79266800096e-15
7.41090496279e-17
0.26294549261
0.0749469718032
0.00269750726354
0.000264617982772
5.62794121352e-05
2.05551639271e-05
1.12706777998e-05
5.81572888214e-06
1.88455721026e-06
5.48978437653e-07
1.32146006208e-07
2.98732593182e-08
6.10697070573e-09
1.0464502901e-09
1.45791678637e-10
1.64405677779e-11
1.47651892078e-12
1.0705388597e-13
5.83053586917e-15
2.48087262754e-16
0.299570471564
0.0905199865265
0.00281773992426
0.000280299479276
5.52664353214e-05
1.97094797768e-05
1.18654148996e-05
6.57469469324e-06
2.62824720911e-06
7.44799628129e-07
2.07345805428e-07
5.21329141022e-08
1.17527294805e-08
2.21448213451e-09
3.36819159967e-10
4.10120334972e-11
3.94348215651e-12
3.02972438399e-13
1.74100715246e-14
7.34486079523e-16
0.325125495055
0.103098062377
0.00356226365223
0.000351106786049
6.18915656627e-05
1.8998370518e-05
1.15317714865e-05
6.8511785421e-06
3.0740738113e-06
9.69848747043e-07
3.01136420848e-07
8.38012245839e-08
2.06974614406e-08
4.28382552226e-09
7.13348319927e-10
9.41092828411e-11
9.71445991062e-12
7.90635415095e-13
4.76115251777e-14
1.95103375706e-15
0.335900132449
0.113669730734
0.0050319909064
0.000508967255007
7.87568192937e-05
1.94458244641e-05
1.08085649699e-05
6.78452441593e-06
3.27280903306e-06
1.27559806137e-06
3.95285319242e-07
1.25650770851e-07
3.38491814437e-08
7.65818537714e-09
1.39383621031e-09
1.99254854193e-10
2.20960073517e-11
1.90369609446e-12
1.19559709885e-13
4.73246311751e-15
0.334263936379
0.118628614424
0.0096995970581
0.000795250060677
0.000105994137524
2.19425072066e-05
1.02973791328e-05
6.64813219952e-06
3.47211267395e-06
1.51433642615e-06
5.13009450443e-07
1.78861290859e-07
5.19743517387e-08
1.27578358353e-08
2.52589885658e-09
3.90622148049e-10
4.65260443899e-11
4.24173195706e-12
2.77253619001e-13
1.06430444948e-14
0.321874241979
0.119591038353
0.0164633672633
0.00127358310356
0.000145630827089
2.75393522354e-05
1.05253703713e-05
6.65303098379e-06
3.70334482288e-06
1.73196452154e-06
6.41782278443e-07
2.41947998068e-07
7.53818990985e-08
1.99204082008e-08
4.2654602021e-09
7.12030710233e-10
9.10313655235e-11
8.78441009485e-12
5.97964249167e-13
2.25199087881e-14
0.300693166669
0.115305071335
0.0214255097089
0.00196039002042
0.000224288198334
3.9684402147e-05
1.21459309667e-05
6.92408275958e-06
3.97941212227e-06
1.90519654317e-06
8.07366343241e-07
3.05108173359e-07
1.03534920721e-07
2.92940774664e-08
6.7461874898e-09
1.21296878355e-09
1.66298502993e-10
1.70010539289e-11
1.20932362134e-12
4.53866441771e-14
0.274342946401
0.109436556556
0.0254872936482
0.00287095768531
0.000353615664823
6.25285951705e-05
1.60635826954e-05
7.55221605621e-06
4.26516353621e-06
2.08463665233e-06
9.41034294012e-07
3.74189739283e-07
1.35569302672e-07
4.08338999342e-08
1.00528177878e-08
1.94249649052e-09
2.85300068175e-10
3.09527721644e-11
2.31562514189e-12
8.83459768083e-14
0.247808874981
0.105103964493
0.0301523898879
0.00429678510241
0.000589465489522
0.000104807421358
2.3775368363e-05
8.66244563436e-06
4.49775947203e-06
2.22334298905e-06
1.03700267216e-06
4.56142702739e-07
1.7078858477e-07
5.4441817852e-08
1.42218694414e-08
2.94523144969e-09
4.62912605055e-10
5.34467605684e-11
4.24801206033e-12
1.68737485043e-13
0.226058153021
0.104526220552
0.0367240359057
0.00898609486552
0.00119651539237
0.000184031126072
3.67767283904e-05
1.05006843931e-05
4.70975412385e-06
2.3225027985e-06
1.13097591031e-06
5.28145168568e-07
2.08476635435e-07
7.03104648576e-08
1.93009975053e-08
4.26597177337e-09
7.1637725368e-10
8.84006443644e-11
7.57300493481e-12
3.21482932522e-13
0.210751752655
0.106637412789
0.0439423368838
0.0145283780549
0.00204654576879
0.000294605580047
5.6223600304e-05
1.40941445192e-05
5.31806471258e-06
2.52176020443e-06
1.25824082518e-06
6.09661519336e-07
2.52296219964e-07
8.95929495372e-08
2.54961000713e-08
5.96137424578e-09
1.06673922711e-09
1.41630033198e-10
1.33226496013e-11
6.1995104579e-13
0.200112352911
0.108916630522
0.0506585147568
0.0196281923444
0.00334419532074
0.000470960811084
9.08551543098e-05
2.32582639199e-05
7.83622625194e-06
3.31980319141e-06
1.57734294201e-06
7.49899044877e-07
3.18371363419e-07
1.1386308662e-07
3.35048516207e-08
8.11014454955e-09
1.54095273196e-09
2.22584735143e-10
2.35074723075e-11
1.22385561178e-12
0.191491949179
0.111446398931
0.0570865896284
0.02470546892
0.00592265865842
0.0009571268281
0.000179706694451
5.03276644224e-05
1.68559845975e-05
6.20260181154e-06
2.54345559312e-06
1.09133155533e-06
4.43159542811e-07
1.52767043371e-07
4.51190006432e-08
1.08940827064e-08
2.18423987709e-09
3.48678448236e-10
4.23217954337e-11
2.5109588685e-12
0.186117474021
0.116315367696
0.0652856533364
0.0319628533575
0.0109088900313
0.00196772813742
0.000441658864333
0.000133268684277
4.51075423276e-05
1.50853517979e-05
5.2249429478e-06
1.95103210751e-06
7.15101189292e-07
2.24696473079e-07
6.35485912562e-08
1.47747686667e-08
3.08375504512e-09
5.54888355962e-10
7.91508726219e-11
5.50160628553e-12
0.18529123388
0.123971279225
0.0760721008388
0.0420618171602
0.0183900580703
0.00432250901579
0.0012054553459
0.000405577275936
0.00013389007965
4.05841821039e-05
1.19717572885e-05
3.87285256047e-06
1.27128689836e-06
3.80852155883e-07
9.06602312421e-08
2.05089335367e-08
4.42570684034e-09
9.17798090552e-10
1.56761478371e-10
1.33319661877e-11
0.18858768326
0.135011750311
0.0905667514269
0.0564646067314
0.0305261162599
0.0124596344899
0.0035833825745
0.00128388603055
0.000412327113658
0.00011384029013
2.84884446391e-05
7.54639314016e-06
2.27043887886e-06
6.28616333785e-07
1.3425251311e-07
2.90158347653e-08
6.57255467089e-09
1.60734870935e-09
3.34248726993e-10
3.61195299604e-11
0.195668299699
0.149116495069
0.108319238743
0.074733098332
0.0471129775684
0.0257628888501
0.0119289351701
0.00421756617999
0.00134212433259
0.000339401290555
7.07346080608e-05
1.4400672653e-05
3.70057358277e-06
9.64564985103e-07
1.90259650715e-07
4.04912069168e-08
1.02132110948e-08
3.0325617378e-09
7.80167226627e-10
1.07120959069e-10
0.205183253026
0.165055170288
0.127969110468
0.0954933797473
0.066971041193
0.043079796631
0.0257251987935
0.013064156349
0.00427252211793
0.00101937445176
0.000179771041318
2.76296685021e-05
5.48466042932e-06
1.2735048858e-06
2.62306752622e-07
5.15269395533e-08
1.65491682183e-08
6.07004689402e-09
1.88928120111e-09
3.2298884117e-10
0.21533341079
0.181138384974
0.147611524224
0.116305272186
0.0870018627534
0.0609097299746
0.0407741490041
0.0242755258766
0.0102176509264
0.00245003273011
0.000387719026212
4.86289791544e-05
7.4573477762e-06
1.49943024074e-06
2.96319808514e-07
7.16943378661e-08
2.80839094942e-08
1.21985707166e-08
4.51353104281e-09
9.36798902293e-10
0.221932853133
0.193090457456
0.162702707577
0.132372333055
0.102829865035
0.0756730009129
0.0518494194357
0.0315759482105
0.0145959890582
0.00371729238948
0.000561048000521
6.47976558058e-05
8.97863960646e-06
1.61440832851e-06
3.18241656716e-07
9.75879062635e-08
4.8089536402e-08
2.4467030463e-08
1.03334842956e-08
2.54642369721e-09
0.221512519893
0.196637602486
0.168598148403
0.138892844967
0.108581445512
0.0787442030373
0.0520027964872
0.0300551593268
0.0131159541961
0.00345467115145
0.000531489660609
6.12265058599e-05
8.38976020687e-06
1.46855307164e-06
3.33006256975e-07
1.40524372272e-07
8.27598087569e-08
4.69229788927e-08
2.22820788739e-08
6.4037356649e-09
0.209716279463
0.187193993431
0.160177760974
0.129864827804
0.0969791394318
0.0657883374129
0.0394005126511
0.0196481625453
0.00673705653693
0.00165552867354
0.000270286420989
3.54486195007e-05
5.61000012986e-06
1.14049243156e-06
3.75400039258e-07
2.1640162278e-07
1.41922223015e-07
8.66869458962e-08
4.52953066684e-08
1.48964794475e-08
0.180914925659
0.159106676402
0.1317868248
0.0999481761079
0.0688161128107
0.0417645182023
0.020865070374
0.00726033795878
0.00205452751875
0.000488789255913
9.17695312443e-05
1.59240727271e-05
3.28054396086e-06
9.65765382878e-07
5.11362409219e-07
3.56088258541e-07
2.4622453639e-07
1.56863159195e-07
8.73450722766e-08
3.20754808394e-08
0.136141336006
0.115096442958
0.0887821029966
0.0625606059234
0.0389478301278
0.0196367983724
0.00657768260031
0.0018217231267
0.000535669062728
0.000156524350376
3.74808783028e-05
8.4851054107e-06
2.4581449167e-06
1.19174518486e-06
8.4392967627e-07
6.32732899133e-07
4.45118524463e-07
2.86305619105e-07
1.62859291158e-07
6.45333391174e-08
0.0913898139871
0.0736869800245
0.0543558441988
0.0350192085533
0.017732589086
0.00560105840194
0.00171821324945
0.000607723766851
0.000205055812087
6.39117738801e-05
1.81779110567e-05
5.75516179631e-06
2.79434081595e-06
8.44155556578e-19
8.34239832356e-19
1.74341605787e-18
1.68808247141e-18
6.87259018093e-18
4.15934992838e-18
2.25316736043e-17
1.08863710804e-17
6.55684001171e-17
2.70289690889e-17
1.69018190436e-16
5.8624217944e-17
3.88296167813e-16
1.16499724277e-16
8.20325223939e-16
2.19400430199e-16
1.62992205775e-15
3.99435530026e-16
3.10729120036e-15
7.16990494766e-16
5.78341119812e-15
1.29331737763e-15
1.07154125904e-14
2.39129832414e-15
2.02331709035e-14
4.63264087529e-15
3.95500690434e-14
9.58543895469e-15
8.10852635375e-14
2.17320493499e-14
1.77009017311e-13
5.57564744763e-14
4.24528696301e-13
1.65249840473e-13
1.15099361554e-12
5.49137803232e-13
3.54275834307e-12
1.92574266246e-12
1.15739483382e-11
6.6625952181e-12
3.82271072642e-11
2.20398790607e-11
1.20190910665e-10
6.80149523269e-11
3.52489585862e-10
1.95062331125e-10
9.54454658046e-10
5.18834982045e-10
2.38381858303e-09
1.27959344049e-09
5.55160245083e-09
2.95943418986e-09
1.19882177618e-08
6.37647571231e-09
2.42799231272e-08
1.29336433965e-08
)
;

boundaryField
{
    inletfuel
    {
        type            fixedValue;
        value           uniform 1;
    }
    inletair
    {
        type            fixedValue;
        value           uniform 0;
    }
    outlet
    {
        type            zeroGradient;
    }
    axis
    {
        type            empty;
    }
    leftside
    {
        type            zeroGradient;
    }
    burnerwall
    {
        type            zeroGradient;
    }
    front
    {
        type            wedge;
    }
    back
    {
        type            wedge;
    }
    procBoundary0to1
    {
        type            processor;
        value           nonuniform List<scalar> 
27
(
0.076653349077
0.0753246703572
0.0725016362684
0.0687382624878
2.00833123037e-06
1.59256393255e-06
1.21950450299e-06
8.58622362299e-07
5.39331505762e-07
2.99042409866e-07
1.21544892631e-07
0.0609232767125
0.0472804106419
0.0322192438431
0.0179645017738
0.0070057083187
0.00221940713562
0.000750840865663
0.00026528499814
9.28566620309e-05
3.279622387e-05
1.2579142795e-05
6.68823181992e-06
2.00833123037e-06
4.95186966732e-06
4.63755097046e-08
2.44188120253e-08
)
;
    }
}


// ************************************************************************* //
