/*--------------------------------*- C++ -*----------------------------------*\
  =========                 |
  \\      /  F ield         | OpenFOAM: The Open Source CFD Toolbox
   \\    /   O peration     | Website:  https://openfoam.org
    \\  /    A nd           | Version:  7
     \\/     M anipulation  |
\*---------------------------------------------------------------------------*/
FoamFile
{
    version     2.0;
    format      ascii;
    class       volScalarField;
    location    "0.06";
    object      H2O;
}
// * * * * * * * * * * * * * * * * * * * * * * * * * * * * * * * * * * * * * //

dimensions      [0 0 0 0 0 0 0];

internalField   nonuniform List<scalar> 
814
(
6.19467351019e-09
5.18399593815e-09
2.92258568616e-09
5.63134608836e-07
6.07342807438e-07
6.8947667184e-07
2.44692434523e-05
3.86528067428e-05
9.64795755286e-05
0.000689858967035
0.00175615335964
0.0103698815114
0.00345537344695
0.0083899588881
0.0360607660701
0.00865063375601
0.0182198641802
0.0558952867205
0.0159527757468
0.0296436853172
0.0707895575213
0.0245423168868
0.0409326897601
0.0806553168909
0.033854582766
0.0512170848928
0.086830819506
0.0436935397401
0.0604779124109
0.091111542451
0.0542325195786
0.0693883455756
0.095403103387
0.0658628998223
0.078914460876
0.101096394751
0.0789839967358
0.0899452423572
0.10905417294
0.0937226579481
0.102851532368
0.119424527299
0.109744504155
0.117369674562
0.131750938563
0.126043884619
0.132447248246
0.14485280677
0.141142057287
0.14651210076
0.157084411693
0.153811957892
0.158296638092
0.167213533744
0.163721593176
0.167476423388
0.175014153377
0.171217733151
0.174425877227
0.180910522977
0.176892107525
0.179681209029
0.185349348785
0.181086339847
0.183514298529
0.188454621384
0.184030547467
0.186118950855
0.190354108371
0.185792075912
0.187536539167
0.191075758239
0.186660354231
0.188073974223
0.190955958441
0.187143892791
0.18824826783
0.190511611087
0.187939684325
0.188797373872
0.190566242423
0.189856701878
0.190530813803
0.191934929636
0.194007720141
0.194559226147
0.195720241612
0.201801463122
0.202287602969
0.203320525387
0.213271729405
0.213700908304
0.214620180816
0.22481108493
0.22513156175
0.225812896928
0.0306090891888
0.101177888393
0.121126298404
0.126380947681
0.125470363127
0.123067296327
0.121350233446
0.12165752228
0.124546558075
0.130288182249
0.138650217215
0.148971342362
0.159993639517
0.170099039787
0.178225469942
0.184344390234
0.188972923918
0.192414444794
0.194587294049
0.195601106438
0.19546637754
0.19455025426
0.193356970937
0.192822991475
0.193757716989
0.197256777822
0.20470427142
0.215857612524
0.226704273829
1.06698901962e-05
8.8414279618e-06
7.15522652653e-06
4.63668351126e-06
2.4859476751e-06
1.14185942099e-06
4.69066830271e-07
1.75225330168e-07
5.97514970306e-08
1.83748234752e-08
4.99802030555e-09
1.17757747934e-09
2.35744400296e-10
3.98382743151e-11
6.05893051917e-12
1.55237463764e-12
3.13522657375e-12
2.22046354943e-11
1.82182478177e-10
4.83519577409e-10
0.000439088930523
0.000234340710325
0.000133572424802
7.13278878046e-05
3.41324664389e-05
1.41827508117e-05
5.35128593888e-06
1.80120825512e-06
5.50367260191e-07
1.51113591221e-07
3.7289274529e-08
8.03254203689e-09
1.47923656183e-09
2.30629398317e-10
3.1370138335e-11
6.77371454464e-12
2.07077291338e-11
2.29022120768e-10
2.97526859597e-09
2.17657729818e-08
0.00287156080139
0.00109384218589
0.000735357263475
0.000379147208011
0.000181378065008
7.33611999365e-05
2.74970680311e-05
9.01102652802e-06
2.61524541828e-06
6.65212196268e-07
1.54133184548e-07
3.15938827891e-08
5.56239384271e-09
8.27779107085e-10
1.05343137456e-10
1.99971169623e-11
8.31287899506e-11
1.27235992502e-09
2.47293148577e-08
5.27531273635e-07
0.0319780736331
0.0102474888489
0.00450977198291
0.00182505481736
0.000885229115732
0.000305013437325
0.000118653474137
3.92370693277e-05
1.11476652092e-05
2.7008737233e-06
6.00333588855e-07
1.20393483532e-07
2.09245644234e-08
3.07367334645e-09
3.81633837791e-10
6.47067191166e-11
2.96533903401e-10
5.32345229892e-09
1.46230023811e-07
1.19532615815e-05
0.171493573362
0.213455494887
0.0859433324347
0.0212601324995
0.0054523528157
0.00160025176209
0.000431169942585
0.000144694352854
4.10438018188e-05
9.66700652354e-06
2.10106296589e-06
4.22693362079e-07
7.46636808205e-08
1.11414059213e-08
1.39375263007e-09
2.10620365761e-10
8.08219235989e-10
1.41400700316e-08
3.51901095709e-07
1.77591108816e-05
0.197217074498
0.228865523777
0.138450653806
0.0351164677543
0.00987579652236
0.0033467038276
0.00124652585547
0.000373329965731
0.000115359680439
2.81829416697e-05
6.22947106441e-06
1.29386723166e-06
2.38935284873e-07
3.71990308723e-08
4.81322885312e-09
6.68336748093e-10
1.81660306668e-09
2.87082068047e-08
6.27966581291e-07
2.39964305502e-05
0.195158190735
0.231091666653
0.147478334437
0.0413995153675
0.0137582571797
0.00566847781324
0.00236885423903
0.000888434394207
0.000245179944387
6.69304819228e-05
1.56392686695e-05
3.4306897555e-06
6.76422318701e-07
1.12216600282e-07
1.5324814463e-08
2.0461357737e-09
3.66577209676e-09
5.04176787826e-08
9.48809926753e-07
2.89309734095e-05
0.186031659487
0.227291560265
0.145610385958
0.0453083008359
0.0181598557525
0.00864039652115
0.00390289910367
0.00158463004423
0.000464407741558
0.000137888670122
3.44499141222e-05
8.06471946396e-06
1.71294613664e-06
3.0640759208e-07
4.47383204544e-08
5.97095212295e-09
6.97197054222e-09
8.2036592835e-08
1.32079519445e-06
3.26773899698e-05
0.177089623769
0.223534309334
0.153586916202
0.0531597263788
0.0242630109667
0.0123817983791
0.00578695392821
0.00238856239973
0.000858469621709
0.00024335321964
6.85860764987e-05
1.73385003398e-05
3.96208632307e-06
7.65641972992e-07
1.20176246003e-07
1.64583529055e-08
1.28403683271e-08
1.27445836486e-07
1.77286101647e-06
3.63385354528e-05
0.170721643463
0.220922648055
0.173558374419
0.0661292793892
0.0324536279567
0.016843994113
0.00798209359548
0.00341977617454
0.00135386398262
0.000420195505171
0.000128440754891
3.49415557933e-05
8.51773494434e-06
1.77017997293e-06
2.9869740246e-07
4.26340803217e-08
2.3362915412e-08
1.91565530311e-07
2.33884233081e-06
4.0703320963e-05
0.168089576352
0.220331958385
0.207290564668
0.0849308132337
0.0425633886143
0.0219798494605
0.0105384995103
0.0047163569704
0.00196587020692
0.00073747548696
0.000218196609638
6.64200539332e-05
1.72259052516e-05
3.82104708336e-06
6.90331549641e-07
1.03543534045e-07
4.26417727287e-08
2.81197170745e-07
3.05634847746e-06
4.602445844e-05
0.168619197309
0.220856955768
0.227431168512
0.107115069887
0.0542419002648
0.0278876458176
0.0136101774958
0.00636488010879
0.002812792429
0.00115073373682
0.000367182268881
0.000120404658749
3.29424809003e-05
7.73559639251e-06
1.48815536759e-06
2.35664645188e-07
7.86878050995e-08
4.06402125513e-07
3.96587240028e-06
5.24036366333e-05
0.171855194014
0.221582326952
0.234034555038
0.129932714882
0.0669506061888
0.0348120735864
0.0173856667539
0.0084623910213
0.00391933060113
0.00170248325874
0.000591065278918
0.000206911567285
5.95945037454e-05
1.47237111643e-05
3.00159069268e-06
5.03633701113e-07
1.46858748347e-07
5.83013718697e-07
5.11833270475e-06
6.00470214392e-05
0.177261476898
0.222904296494
0.235171398172
0.154740881479
0.0822632612384
0.0432784981551
0.0220976241879
0.0111047436761
0.00532232399353
0.002378348637
0.000952389948099
0.000328524109534
0.000101851595457
2.64224948914e-05
5.68764538763e-06
1.01478669435e-06
2.76144570356e-07
8.37450400843e-07
6.58266713054e-06
6.93060965686e-05
0.18394505635
0.224452006707
0.236077690922
0.184229103751
0.101597097145
0.053851393658
0.0279656934776
0.0143426534913
0.00705943344321
0.00327417291037
0.0014030953286
0.000505548351969
0.000165459603895
4.49651458859e-05
1.01807414324e-05
1.93932169224e-06
5.21058003629e-07
1.21673343935e-06
8.46326985169e-06
8.06739992581e-05
0.19067378658
0.225735783823
0.238360307858
0.218555481131
0.126330141145
0.0668602517199
0.035021874994
0.0181244108661
0.00913105220335
0.00438066417391
0.00194075826157
0.0007733541086
0.000257803063482
7.31692110813e-05
1.73423424506e-05
3.54385464083e-06
9.85318784785e-07
1.80987819192e-06
1.09313867778e-05
9.48778931925e-05
0.196181445544
0.226001543946
0.238648346208
0.229414421077
0.15343532531
0.0814344438802
0.0427126652673
0.0222713239355
0.011487018964
0.00569207464619
0.00263085560363
0.00110513566472
0.000385920790991
0.000114992338595
2.83859858561e-05
6.25635305726e-06
1.86964014824e-06
2.79257452244e-06
1.4280966451e-05
0.000112940405103
0.20003843898
0.225467936664
0.237556542772
0.232823985697
0.18209239078
0.0968506630141
0.0506644860186
0.0267934476443
0.0141447093297
0.0072431420638
0.00348524798254
0.00152936259899
0.000561408383577
0.00017625125215
4.51351521077e-05
1.07731751574e-05
3.56298586597e-06
4.51581334787e-06
1.90373852893e-05
0.00013634485277
0.20269220359
0.224799575566
0.236122740922
0.23450941457
0.208708831474
0.114018464863
0.0598030934499
0.0323775934212
0.0175200594638
0.00923345834707
0.00459327221829
0.00208772628622
0.00081134256707
0.000260817395171
7.06866613408e-05
1.8227311705e-05
6.81317003777e-06
7.67610172925e-06
2.6167663568e-05
0.000167395337173
0.204804196316
0.223988065646
0.234388418082
0.233786835142
0.214772320571
0.135779529879
0.0736129067391
0.0410277015664
0.0228579138612
0.0122913108375
0.0062245183579
0.00288706132159
0.0011703489981
0.000385644755857
0.000110564138414
3.06306592511e-05
1.30620298457e-05
1.36285425804e-05
3.74463306171e-05
0.000209770662674
0.206105091204
0.222708732892
0.232557644169
0.233177418714
0.218319682668
0.162098361506
0.0971282457275
0.0561301692227
0.0321515108424
0.0175298281391
0.00890589480058
0.00413642819892
0.00170722995244
0.000574794465545
0.000172768945715
5.18295928379e-05
2.50622791682e-05
2.49343059713e-05
5.60767443239e-05
0.000269654293101
0.206314637223
0.220945723947
0.230748174562
0.233963770235
0.227590004994
0.200732667876
0.134167504054
0.0834855239765
0.0490499832922
0.0268255094601
0.0135170116
0.00618940430343
0.00249853495279
0.000895382846054
0.000261602169707
8.86994439127e-05
4.80203322539e-05
4.62717357034e-05
8.74587404436e-05
0.000356242728174
0.205541713764
0.218470024516
0.228208711427
0.23355623146
0.233031938523
0.221852066514
0.186896520749
0.129409043986
0.0786830816868
0.0430052546207
0.0212424562702
0.00941013707707
0.00371549525974
0.00132278091826
0.000401837430948
0.000153546858235
9.14856213191e-05
8.57767046266e-05
0.000140485779857
0.000481948369207
0.203843772382
0.215238928967
0.224710617308
0.231465780188
0.234871492239
0.232829664224
0.221431748129
0.190971982032
0.12765825665
0.0703899553436
0.0334774685681
0.0140996649624
0.00535975944354
0.00188419444098
0.000609759763634
0.000268153039261
0.000174611247496
0.000159060473218
0.000230723981006
0.00066269611189
0.201528642447
0.211479071022
0.22044016302
0.227834432017
0.233392977271
0.235920832804
0.233133746726
0.221857682706
0.187142194609
0.110531021322
0.0507258469471
0.0199991802288
0.00723310175424
0.00250085320084
0.000943082084585
0.000462036597152
0.000330744014861
0.000292965836935
0.000380049178315
0.000917901855087
0.199033987222
0.207596149404
0.215896427556
0.223463782871
0.230130975479
0.234974479898
0.236221664982
0.232350080198
0.216738323421
0.149772436408
0.0688915270915
0.025562919049
0.00892654877201
0.00319195388334
0.00138246077892
0.000822071740222
0.000618207707276
0.000530835709488
0.000620350994282
0.00126955879579
0.19741293043
0.204677408513
0.212290058763
0.219794540341
0.226854559764
0.232646283217
0.235890454004
0.234596529098
0.222720395842
0.169062621813
0.0785178592995
0.028636147094
0.0102232722178
0.0040196346724
0.00209209422544
0.00144421444003
0.00113355020334
0.000949227729594
0.00100151782414
0.00174353020801
0.19754815362
0.203825246507
0.210861591069
0.218200619802
0.225336991208
0.231276605886
0.23415141301
0.231405802603
0.217239357944
0.16175639797
0.0757214105888
0.0282134152464
0.0108265552139
0.00507007918045
0.00326392644108
0.00252594140941
0.00204284223184
0.00167225121407
0.00160441225858
0.00237496427527
0.200529085781
0.206174995692
0.212843889722
0.220011560796
0.226838620631
0.231078996166
0.22993125093
0.2197953839
0.193744241849
0.124356789715
0.0591508647947
0.0244541557505
0.0111627304299
0.00673383358254
0.00523509420648
0.00437512868953
0.0036111855408
0.00290575618929
0.00255799259165
0.00321466658659
0.207697859401
0.212995197972
0.21931726288
0.225785680461
0.229978726263
0.229027709052
0.21874832504
0.192251005273
0.131907233423
0.0795369753599
0.0415373560323
0.0211543722317
0.0126612541035
0.00975148691419
0.00855577817586
0.00748393802848
0.00626461623214
0.00498140961986
0.00406905618609
0.00434507075855
0.218527733038
0.223127432866
0.22805729363
0.231047113665
0.229679672752
0.219817556634
0.19245551029
0.126716652525
0.0816506333252
0.0539846173641
0.0338981076689
0.0220285999769
0.0169104887903
0.0151471901869
0.0140999215808
0.0126595539141
0.0106997290691
0.00844045255715
0.0064733868152
0.00589584919697
0.228548542013
0.231310953991
0.23279698504
0.230969600828
0.221557386454
0.194250656547
0.132922095598
0.0895693922661
0.0633395212263
0.0463579307558
0.0344751303488
0.0276839845087
0.0250221547637
0.000760433096848
0.00084508075154
0.00050477061327
0.000646298450233
0.000358397238797
0.000493636736273
0.000290292712162
0.000422188423276
0.000257445083632
0.000393839311462
0.000246661277013
0.000388718883584
0.000250882509189
0.000397773817396
0.000266046254729
0.000418373452254
0.000290423956316
0.000449897810788
0.00032396444387
0.000493318877965
0.000367869646441
0.000550959919668
0.000424463865443
0.000626603449985
0.00049707429614
0.000725551678069
0.000590563165282
0.000854753604398
0.000711255006338
0.0010226496789
0.000866863938717
0.00123878711168
0.00106552254998
0.0015127459705
0.00131642495285
0.00185403947822
0.00162574392739
0.00226987471446
0.00200609320364
0.00276787697705
0.00246346235535
0.00335135747079
0.00301171104479
0.00402332245863
0.00365727171601
0.0047817141742
0.00440608436964
0.00562154412816
0.00525849114498
0.00653884428669
0.00622194045701
0.00753305540844
0.00732410489638
0.00862525007576
0.00863213094211
0.00986003939932
)
;

boundaryField
{
    inletfuel
    {
        type            fixedValue;
        value           uniform 0;
    }
    inletair
    {
        type            fixedValue;
        value           uniform 0;
    }
    outlet
    {
        type            zeroGradient;
    }
    axis
    {
        type            empty;
    }
    leftside
    {
        type            zeroGradient;
    }
    burnerwall
    {
        type            zeroGradient;
    }
    front
    {
        type            wedge;
    }
    back
    {
        type            wedge;
    }
    procBoundary0to1
    {
        type            processor;
        value           nonuniform List<scalar> 
27
(
0.232211935418
0.232395716767
0.232765501382
0.23320459619
0.024184715131
0.0231394177549
0.0210873974932
0.0180039966015
0.0141072402143
0.0102692213619
0.00805070242777
0.233967689072
0.234243038338
0.231900223201
0.223462954639
0.202109415094
0.154585058449
0.109452184086
0.0787896379324
0.0608226317481
0.0498406975279
0.042846703437
0.0395528379478
0.024184715131
0.0388309898576
0.0101929227263
0.0112820112912
)
;
    }
}


// ************************************************************************* //
