/*--------------------------------*- C++ -*----------------------------------*\
  =========                 |
  \\      /  F ield         | OpenFOAM: The Open Source CFD Toolbox
   \\    /   O peration     | Website:  https://openfoam.org
    \\  /    A nd           | Version:  7
     \\/     M anipulation  |
\*---------------------------------------------------------------------------*/
FoamFile
{
    version     2.0;
    format      ascii;
    class       volScalarField;
    location    "0.06";
    object      HE;
}
// * * * * * * * * * * * * * * * * * * * * * * * * * * * * * * * * * * * * * //

dimensions      [0 0 0 0 0 0 0];

internalField   nonuniform List<scalar> 
814
(
2.05513237315e-20
1.57511334465e-20
5.89328827703e-21
2.05648942054e-18
2.05398366732e-18
1.52548549596e-18
9.85551758639e-17
1.52344327411e-16
3.23678157114e-16
2.91881619271e-15
7.75821907272e-15
4.9752970977e-14
8.81421353343e-15
2.01611236346e-14
8.13241122954e-14
1.94728511677e-14
4.04442727521e-14
1.28292040033e-13
4.71518018478e-14
1.02747737373e-13
3.41996396278e-13
1.581880726e-13
3.74743565468e-13
1.27996860019e-12
6.3484270862e-13
1.45985517449e-12
4.49873751764e-12
2.50972078098e-12
5.20921439523e-12
1.386636976e-11
9.18662298922e-12
1.68685223363e-11
3.88700311206e-11
3.09934495279e-11
5.06403070237e-11
1.02757295874e-10
9.70328861977e-11
1.43858087593e-10
2.62968764914e-10
2.82379684344e-10
3.88277768687e-10
6.52447378347e-10
7.67549458582e-10
9.99196163778e-10
1.57036941467e-09
1.95416650658e-09
2.44967896255e-09
3.65783618711e-09
4.66365157579e-09
5.69579068886e-09
8.18296615259e-09
1.05064699168e-08
1.25990165912e-08
1.75857030953e-08
2.27359826357e-08
2.68981993076e-08
3.6736733204e-08
4.70947164051e-08
5.51284411125e-08
7.39317765272e-08
9.1742534846e-08
1.06140970886e-07
1.3948076386e-07
1.66176363381e-07
1.89884377899e-07
2.44155687759e-07
2.83422214914e-07
3.19572726464e-07
4.0110033061e-07
4.61147468513e-07
5.12883133542e-07
6.28511368634e-07
7.46835636067e-07
8.18578561347e-07
9.78607341926e-07
1.27112817477e-06
1.37132184249e-06
1.59295494362e-06
2.41399625958e-06
2.56692956299e-06
2.90485779408e-06
5.14929476011e-06
5.40297101307e-06
5.96025467928e-06
1.18475921124e-05
1.22748337492e-05
1.3210616838e-05
2.71583901761e-05
2.7857050382e-05
2.93806499655e-05
5.54661659435e-05
5.64556838498e-05
5.86172012025e-05
9.21354124357e-05
9.3244128975e-05
9.56528543005e-05
2.70353668404e-13
2.53183509655e-13
3.56101162792e-13
1.1422990016e-12
4.12532254109e-12
1.26016599472e-11
3.36878025924e-11
8.41087210662e-11
2.02673117468e-10
4.81883521006e-10
1.1246783288e-09
2.56982150413e-09
5.72944097533e-09
1.23554062069e-08
2.57710088586e-08
5.2541863681e-08
1.03597059554e-07
1.91072990805e-07
3.2628817492e-07
5.22153588357e-07
7.97980600969e-07
1.21079678922e-06
1.91142211125e-06
3.38742627208e-06
6.75154134529e-06
1.45315788769e-05
3.15113053721e-05
6.1626751954e-05
9.8939105762e-05
3.15180117498e-15
3.74143458124e-15
4.22921366499e-15
4.29415300954e-15
4.09594511075e-15
3.74090702246e-15
3.30727183802e-15
2.81215967615e-15
2.28308830743e-15
1.7438846007e-15
1.2341224138e-15
7.93221300325e-16
4.52151487242e-16
2.2216472359e-16
9.08287902678e-17
2.98153127897e-17
7.53274344723e-18
1.40140147655e-18
1.76034849042e-19
9.57586749252e-21
2.44644115519e-14
2.17253542418e-14
2.41261948263e-14
2.08244484371e-14
1.67903086701e-14
1.31852300302e-14
1.0670149881e-14
8.57395166757e-15
6.80367064596e-15
5.14872872791e-15
3.6618540482e-15
2.38081184848e-15
1.38320117181e-15
6.96403014598e-16
2.92117900815e-16
9.88910301928e-17
2.56245627446e-17
4.93972232164e-18
6.21325053371e-19
8.87579351379e-20
1.0315291252e-13
7.26226941681e-14
1.10710638719e-13
8.5694703623e-14
5.60915099708e-14
3.37872889699e-14
2.31370791669e-14
1.69745731386e-14
1.29895915138e-14
9.74921067157e-15
7.02947303725e-15
4.68570263122e-15
2.81973618004e-15
1.47924374169e-15
6.47033468812e-16
2.28988068581e-16
6.16908070752e-17
1.24964608592e-17
1.60111110773e-18
1.63466284657e-18
3.59419300759e-13
3.71457217073e-13
6.30319312151e-13
4.30729610634e-13
2.54652513443e-13
1.05041065059e-13
5.82737729929e-14
3.71251902852e-14
2.64771271004e-14
1.94802319935e-14
1.43372124296e-14
9.98653786861e-15
6.38439911043e-15
3.58580878033e-15
1.67863753063e-15
6.34881014941e-16
1.81666440012e-16
3.9350816948e-17
5.37478925343e-18
3.75075423214e-17
4.55481217321e-13
1.11834093357e-12
1.47254747548e-12
1.67299378072e-12
1.09078547545e-12
4.83515392002e-13
1.6834552482e-13
9.08370718992e-14
5.84525868272e-14
4.13703244784e-14
3.12827764358e-14
2.33116593006e-14
1.62762275357e-14
1.00195073132e-14
5.10593029451e-15
2.08333041894e-15
6.38323858107e-16
1.47924969911e-16
2.07133546205e-17
5.57109272793e-17
1.11600798712e-12
4.99762285559e-12
4.87149319213e-12
5.2449864905e-12
3.31557621489e-12
1.41073305022e-12
5.3681137618e-13
2.28384719087e-13
1.37239736382e-13
9.29564848723e-14
7.24404438806e-14
5.88696144273e-14
4.57061337195e-14
3.11084725367e-14
1.72742391993e-14
7.56880742581e-15
2.47256410026e-15
6.07124902904e-16
8.8565925981e-17
8.06367375173e-17
4.76358945835e-12
2.26677932938e-11
1.64490317968e-11
1.46303619033e-11
8.85613125129e-12
3.8389221065e-12
1.45229624866e-12
6.57077341978e-13
3.34980251649e-13
2.22002013191e-13
1.78206546333e-13
1.59050568335e-13
1.37630146398e-13
1.03022008735e-13
6.18011153084e-14
2.87973535582e-14
9.95178556001e-15
2.56334837501e-15
3.94839741001e-16
1.27162229237e-16
1.62330672779e-11
6.61233140674e-11
4.74824440805e-11
3.8570263461e-11
2.4111862568e-11
1.1107197013e-11
4.29068160761e-12
1.89149780806e-12
8.93744143372e-13
5.70865936585e-13
4.67603980998e-13
4.54086148803e-13
4.32682671286e-13
3.51668355704e-13
2.25457632409e-13
1.10733840071e-13
4.02037272497e-14
1.07771572482e-14
1.75267957833e-15
2.84740225729e-16
4.34609385223e-11
1.56372096169e-10
1.27227083285e-10
1.04926808535e-10
7.38123036742e-11
3.78029906928e-11
1.47294227744e-11
5.90368215493e-12
2.78045050636e-12
1.57637866752e-12
1.30967423137e-12
1.35219413553e-12
1.39042980784e-12
1.20893305138e-12
8.20330792451e-13
4.21823946408e-13
1.60048733196e-13
4.43816311079e-14
7.56830281146e-15
9.26300684593e-16
1.01741963283e-10
3.40710626275e-10
3.36623185297e-10
2.98417902e-10
2.42500076265e-10
1.40487512031e-10
5.62739740704e-11
2.11356598804e-11
9.22126431216e-12
4.82876092966e-12
3.89751893715e-12
4.14764333654e-12
4.50097857883e-12
4.12628810507e-12
2.93879827391e-12
1.57400413787e-12
6.21481772517e-13
1.77462742286e-13
3.14704794153e-14
3.50299057923e-15
2.30151406166e-10
7.26347034244e-10
8.78351026655e-10
8.49632457771e-10
7.6660721714e-10
5.01674449723e-10
2.13447605607e-10
7.88846444613e-11
3.19649640539e-11
1.63882823085e-11
1.20740857933e-11
1.29523655752e-11
1.45362950452e-11
1.38657675472e-11
1.02860044748e-11
5.71348093907e-12
2.33912529029e-12
6.8544778672e-13
1.25505805872e-13
1.34439234311e-14
5.13404291312e-10
1.55808639963e-09
2.20651552178e-09
2.31261606282e-09
2.22810300704e-09
1.63246492138e-09
7.5530339153e-10
2.86897218528e-10
1.1369944113e-10
5.56455378738e-11
3.85921001657e-11
4.07829046394e-11
4.65384892936e-11
4.56448780712e-11
3.5001898783e-11
2.00813334698e-11
8.49635252124e-12
2.54875438487e-12
4.79451362209e-13
5.02350723493e-14
1.1476001251e-09
3.37482142858e-09
5.3474397588e-09
5.9935659516e-09
6.00518706749e-09
4.85860777351e-09
2.48464389928e-09
9.99110930073e-10
3.96874579958e-10
1.88982365128e-10
1.24860158437e-10
1.2849840014e-10
1.47067066514e-10
1.46748222187e-10
1.1542143624e-10
6.81141106267e-11
2.96868433013e-11
9.1021424826e-12
1.75393409714e-12
1.81195318199e-13
2.53297757357e-09
7.1314907278e-09
1.22974024253e-08
1.4805431784e-08
1.53970507039e-08
1.34357220192e-08
7.69120457334e-09
3.33096105595e-09
1.34652835058e-09
6.28208941744e-10
4.09752908729e-10
4.03264951446e-10
4.57325373037e-10
4.59815245813e-10
3.68007650697e-10
2.22438342316e-10
9.95614431651e-11
3.11734334467e-11
6.14652264374e-12
6.30285112403e-13
5.48868231501e-09
1.47196931404e-08
2.67292192477e-08
3.48862542176e-08
3.76787406221e-08
3.48056388733e-08
2.24452710041e-08
1.05185635317e-08
4.40620720103e-09
2.06815715588e-09
1.32184911976e-09
1.2540339704e-09
1.39591021611e-09
1.40216565468e-09
1.13294368548e-09
6.98448003543e-10
3.20179185477e-10
1.02361577331e-10
2.06663947171e-11
2.12118978187e-12
1.162079356e-08
2.95884954204e-08
5.52469840677e-08
7.77285915934e-08
8.80193850812e-08
8.48313264285e-08
6.13301066489e-08
3.11946122667e-08
1.37795154454e-08
6.61178319374e-09
4.18740745864e-09
3.84933617192e-09
4.16767400991e-09
4.15384624592e-09
3.3649021178e-09
2.10799053846e-09
9.87743748053e-10
3.22680153531e-10
6.69129466255e-11
6.95438371402e-12
2.3845633248e-08
5.75955331929e-08
1.08816548218e-07
1.62376866457e-07
1.95282233002e-07
1.94769158311e-07
1.55230545587e-07
8.68579312199e-08
4.10470523942e-08
2.04000475708e-08
1.29520855939e-08
1.15362173234e-08
1.21093406738e-08
1.1907302402e-08
9.6180989496e-09
6.10874735515e-09
2.92363779407e-09
9.7809234138e-10
2.09203201887e-10
2.23015500466e-11
4.75894043588e-08
1.09639207205e-07
2.0645779754e-07
3.17167922257e-07
4.065522052e-07
4.19774425379e-07
3.62647001928e-07
2.27470961614e-07
1.16554956275e-07
6.04486116864e-08
3.86303160568e-08
3.34034508652e-08
3.39413891995e-08
3.28302519865e-08
2.63831341615e-08
1.69557968678e-08
8.29318393794e-09
2.85036426982e-09
6.3233193658e-10
7.01779288209e-11
9.346171707e-08
2.06782983346e-07
3.81757384894e-07
5.93258586017e-07
7.83244914989e-07
8.45163763774e-07
7.82490195905e-07
5.53497797091e-07
3.14053613705e-07
1.70975577592e-07
1.09767342104e-07
9.22646446802e-08
9.10060037192e-08
8.65469316231e-08
6.93870267626e-08
4.49541824033e-08
2.25212203115e-08
7.98623915647e-09
1.85114252502e-09
2.17447002538e-10
1.78689939188e-07
3.75482158051e-07
6.75647679687e-07
1.05411080412e-06
1.4181094767e-06
1.5962537676e-06
1.57061896594e-06
1.2416444119e-06
7.90672573544e-07
4.57810638793e-07
2.94181296362e-07
2.40868428318e-07
2.31729096854e-07
2.17729112859e-07
1.74635071483e-07
1.13853741343e-07
5.85314601243e-08
2.15247265142e-08
5.26105089688e-09
6.69652307097e-10
3.1755051984e-07
6.29527607218e-07
1.11049582191e-06
1.74721466317e-06
2.42462606523e-06
2.89034438669e-06
2.98798770238e-06
2.59545979899e-06
1.82838025791e-06
1.13370620396e-06
7.34327349814e-07
5.8864918162e-07
5.56973820413e-07
5.20435329052e-07
4.18387352965e-07
2.75865039875e-07
1.45399889517e-07
5.58256690822e-08
1.4543863026e-08
2.07441751492e-09
5.21483543487e-07
9.90122977355e-07
1.72727731593e-06
2.75830802603e-06
3.97597201085e-06
5.03054199534e-06
5.50161031016e-06
5.1643278772e-06
3.94083659958e-06
2.58466365616e-06
1.6964773619e-06
1.34012162489e-06
1.25728817905e-06
1.18244934017e-06
9.47976289329e-07
6.37565156599e-07
3.45377080867e-07
1.39339275918e-07
3.90774823437e-08
6.41944660915e-09
8.02152907009e-07
1.46741658501e-06
2.53741957828e-06
4.12697481404e-06
6.21750677508e-06
8.38937753051e-06
9.84970075593e-06
9.91787921733e-06
8.01595673553e-06
5.47380901744e-06
3.63558740142e-06
2.83360746518e-06
2.66865098678e-06
2.52431467717e-06
2.04787380958e-06
1.40098286055e-06
7.82211706806e-07
3.33172751381e-07
1.02103903579e-07
1.95010155541e-08
1.18666567587e-06
2.10782806589e-06
3.61744560888e-06
5.96993684232e-06
9.33890430375e-06
1.33610685425e-05
1.68208810771e-05
1.83488131783e-05
1.55809217874e-05
1.0960835939e-05
7.26805523468e-06
5.61751155694e-06
5.31367986308e-06
5.0567904109e-06
4.17427427308e-06
2.92728838615e-06
1.70314070372e-06
7.73107053545e-07
2.63664955573e-07
5.77782604789e-08
1.74474089313e-06
3.01257017738e-06
5.1210840435e-06
8.49145682058e-06
1.35799792678e-05
2.02587290368e-05
2.69126446215e-05
3.0775260546e-05
2.85334477539e-05
2.05792721428e-05
1.35614663102e-05
1.04909615564e-05
9.94778908596e-06
9.44198123535e-06
8.0130327561e-06
5.69508728878e-06
3.50978397851e-06
1.71802802417e-06
6.50083214841e-07
1.63105593215e-07
2.64920206458e-06
4.41032935114e-06
7.37160120677e-06
1.21934124498e-05
1.9712634206e-05
2.99961161428e-05
4.06991872019e-05
4.68390314225e-05
4.53914415376e-05
3.49347433293e-05
2.34285558954e-05
1.841577225e-05
1.74485842373e-05
1.65005033294e-05
1.40763624162e-05
1.04836092008e-05
6.79794685089e-06
3.56470673099e-06
1.50870339173e-06
4.32119057003e-07
4.50241443652e-06
7.11836848136e-06
1.15213765586e-05
1.86379879174e-05
2.94250492003e-05
4.37409051301e-05
5.8053714484e-05
6.64068896899e-05
6.5247244261e-05
5.29998828886e-05
3.72362482056e-05
3.02943810908e-05
2.85672402691e-05
2.68550480472e-05
2.3231784854e-05
1.79346163431e-05
1.22472043987e-05
7.03433285692e-06
3.28510625281e-06
1.06734466681e-06
8.57242481476e-06
1.27035537424e-05
1.9448785439e-05
2.98690326662e-05
4.47786938257e-05
6.39118675564e-05
8.03756906123e-05
8.92573217017e-05
8.70095766587e-05
7.29668807037e-05
5.5108013712e-05
4.65518381009e-05
4.35548561232e-05
4.08405567982e-05
3.60200816519e-05
2.88616884891e-05
2.08484571744e-05
1.29827057521e-05
6.67966171755e-06
2.44349763617e-06
1.75589447027e-05
2.41456833681e-05
3.44520776344e-05
4.95482228133e-05
7.02897590487e-05
9.11544040896e-05
0.000107159288665
0.000113513220481
0.000107840341024
9.26025230719e-05
7.51148191013e-05
6.61619136538e-05
6.21724282643e-05
5.87372153396e-05
5.2974517134e-05
4.41285999529e-05
3.36898784572e-05
2.26174773992e-05
1.27151418516e-05
5.17922688648e-06
3.63584768605e-05
4.64805878818e-05
6.15014290174e-05
8.2185608498e-05
0.000103949440851
0.000122525125373
0.000134071919719
0.000135305590369
0.000126948578923
0.000111126678871
9.63724576787e-05
8.84126974816e-05
8.46082406399e-05
8.11451784029e-05
7.48723823598e-05
6.48340846789e-05
5.21234080613e-05
3.74270450222e-05
2.27175126022e-05
1.01484081908e-05
6.8386852954e-05
8.18601874821e-05
0.000100425303331
0.000119806947795
0.000137287349146
0.000150509201479
0.000156663788328
0.000154793656244
0.000143877211971
0.000131239945746
0.000120645546
0.000114547261899
0.000111805184368
0.00010901222147
0.000102914194836
9.24469668176e-05
7.78187779537e-05
5.92484522612e-05
3.83606171213e-05
1.84424415971e-05
0.000106121403302
0.000119724565265
0.000134850598358
0.000150139091352
0.000163642072877
0.000172675382927
0.000176033711899
0.000172194453888
0.000164480383266
0.000155856297836
0.000148869101998
0.000145379824992
0.00014439740541
2.4668657023e-15
2.98604762549e-15
1.71910763649e-15
2.7294291908e-15
1.39862899372e-15
2.53536107785e-15
1.4439729307e-15
2.96997589194e-15
1.93294415883e-15
4.28734564095e-15
3.35349431993e-15
7.10942782901e-15
7.16079552761e-15
1.34429181932e-14
1.77414077011e-14
2.86537689932e-14
4.82437555111e-14
6.76113279944e-14
1.38940297176e-13
1.74353428404e-13
4.16310465883e-13
4.88151462012e-13
1.29113666644e-12
1.47922573588e-12
4.14852045615e-12
4.81779691781e-12
1.37657814967e-11
1.65703480884e-11
4.67508374411e-11
5.85607145478e-11
1.6008660193e-10
2.06362842578e-10
5.43717653019e-10
7.06812254233e-10
1.80319551449e-09
2.31090217738e-09
5.75551379159e-09
7.13154824879e-09
1.74376506035e-08
2.06334408901e-08
4.99035608239e-08
5.58744368905e-08
1.33799276799e-07
1.41361077706e-07
3.35171550421e-07
3.34596044664e-07
7.82651400516e-07
7.41246945152e-07
1.70065320735e-06
1.53743616622e-06
3.45033612573e-06
2.99470497532e-06
6.50845644424e-06
5.46348990153e-06
1.14655165385e-05
9.36175412772e-06
)
;

boundaryField
{
    inletfuel
    {
        type            fixedValue;
        value           uniform 0;
    }
    inletair
    {
        type            fixedValue;
        value           uniform 0;
    }
    outlet
    {
        type            zeroGradient;
    }
    axis
    {
        type            empty;
    }
    leftside
    {
        type            zeroGradient;
    }
    burnerwall
    {
        type            zeroGradient;
    }
    front
    {
        type            wedge;
    }
    back
    {
        type            wedge;
    }
    procBoundary0to1
    {
        type            processor;
        value           nonuniform List<scalar> 
27
(
0.000123701715367
0.000124784084083
0.000127089046429
0.000130171868171
0.000142976679653
0.000137989149284
0.000128143293115
0.000112624844244
9.01227061273e-05
6.15337782078e-05
3.11252550654e-05
0.000136595267367
0.000147894831345
0.000160596100258
0.000173084878912
0.000183649723047
0.000190600447857
0.000192804210738
0.00019137554953
0.00018762420188
0.00018325482904
0.000180363843998
0.000180173340271
0.000142976679653
0.000181720847767
1.88682292012e-05
1.49517438633e-05
)
;
    }
}


// ************************************************************************* //
