/*--------------------------------*- C++ -*----------------------------------*\
  =========                 |
  \\      /  F ield         | OpenFOAM: The Open Source CFD Toolbox
   \\    /   O peration     | Website:  https://openfoam.org
    \\  /    A nd           | Version:  7
     \\/     M anipulation  |
\*---------------------------------------------------------------------------*/
FoamFile
{
    version     2.0;
    format      ascii;
    class       volScalarField;
    location    "0.06";
    object      k;
}
// * * * * * * * * * * * * * * * * * * * * * * * * * * * * * * * * * * * * * //

dimensions      [0 2 -2 0 0 0 0];

internalField   nonuniform List<scalar> 
814
(
21.1966623635
18.5750323797
10.596595047
21.9390257117
18.8391967388
9.05833566524
21.5825297732
19.4480294342
8.55866536323
22.2260600334
24.0779628276
20.8633863797
23.911588105
29.6620806837
34.195062554
26.3933696826
35.7826980407
44.0187737662
29.5691821609
42.1350443719
53.4394069387
33.3001453164
48.3416606411
62.2796144309
37.6569515838
54.4451224949
70.1254949673
42.7144320947
60.1757757406
75.9616910908
48.1231020329
64.6784031949
78.6784074253
52.7310174194
66.6681505799
77.4412581462
54.8181002065
65.0729705294
72.1141005247
53.0640979986
59.6228127666
63.3208653618
47.5621077449
51.2426453399
52.5844658568
39.9831546743
41.8539745925
41.958628159
32.5735114464
33.5218372946
33.2281140219
26.816132263
27.3717676045
27.1050867229
22.9788143736
23.413046583
23.3139308763
20.7335730257
21.132683381
21.1922429988
19.5518106329
19.9299296049
20.072998753
19.0363759366
19.3920633778
19.5844905984
18.9196271255
19.2641708526
19.5175179666
19.0381285042
19.3820720384
19.7236849538
19.2619838716
19.6149221165
20.0547766812
19.5160783812
19.8602157362
20.3604969215
19.8161710402
20.1375941077
20.6481308444
20.0728978654
20.3526310393
20.8182448077
19.9024873707
20.1088817728
20.4535484693
17.9881232378
18.0954505648
18.2544343082
13.4834796308
13.4902268569
13.4571373703
8.85521238053
8.8358445512
8.77064285672
6.37282994416
21.3873179242
33.0334959586
45.3701940155
57.0733323877
66.8253427887
73.3016625908
75.582096865
73.4100399942
67.234898277
58.0805346887
47.5833947387
37.6983553989
29.9459820238
24.7443491304
21.6774867427
20.0365588734
19.1893872597
18.926463342
19.0828901558
19.5419576348
20.125509996
20.6335722001
21.0281867018
21.2107935684
20.7460522256
18.3471216392
13.338343366
8.65049312943
0.0154765418997
0.026288594114
0.030364492582
0.0325471653863
0.0326481518694
0.0324138926278
0.0313680810713
0.0301407545996
0.0287205973433
0.0271458436671
0.0254792582711
0.0237363979942
0.0219908438947
0.0203329225247
0.0188646558073
0.0175859038734
0.0166547732336
0.0158903565194
0.0155331852581
0.015532201076
0.0207646681116
0.036739035894
0.0479623354911
0.0504484566592
0.0493744075352
0.0467758620084
0.0431560725913
0.0396007101195
0.0362933272253
0.033108709089
0.0301860289642
0.0273818046312
0.0247776463907
0.0223954936861
0.0203552778521
0.0186176797934
0.0173478585554
0.0163429136601
0.0159069855153
0.0159676951182
0.0411222453365
0.0541050586581
0.0569810860903
0.0668297183892
0.0623786577628
0.0585782254373
0.0521294970106
0.0461603117637
0.0409900504905
0.0363964835855
0.0325029548714
0.0290271455732
0.0259451445114
0.0232449739392
0.0209556345211
0.0190818769448
0.0176687213991
0.0166361282421
0.016143995207
0.0163922588806
1.30842687264
0.07420672083
0.0624236243555
0.0806214015489
0.077838566336
0.0714658728322
0.0623930409919
0.0531553250975
0.045809535564
0.0395176042114
0.0345450210303
0.0303779038757
0.0268531160863
0.0238993081984
0.0214173911093
0.0194681974856
0.0179472928414
0.0169475629856
0.016291769115
0.020499645006
3.17327298194
0.95815214173
0.124933993825
0.0676908322606
0.0813795008944
0.081392732751
0.0728186219225
0.0601813687509
0.0507688987688
0.0426993245068
0.0366256387323
0.0317091084683
0.0277311991498
0.0245119256651
0.0218525276699
0.0198220275932
0.0182149981244
0.0172208292739
0.0164799211521
0.0236339296299
7.31603628632
1.73290558521
0.192702141286
0.0698299981733
0.08164435347
0.0848753204808
0.0770251675431
0.0651755822882
0.0551870103858
0.0460058861566
0.0389661204245
0.0332306809201
0.0287337363323
0.0251824968635
0.0223246549765
0.0201822508241
0.0184981110874
0.0174618111241
0.016775841704
0.0273149294601
14.1326085147
1.93337268307
0.210979512054
0.0746814709321
0.081956072377
0.083816141613
0.0768601278345
0.0677722239668
0.0585742395621
0.0492762685574
0.0415406577412
0.0350286148225
0.0299457552847
0.0259842890097
0.0228806998855
0.0205924960334
0.0188242120157
0.0177315433171
0.0171491651896
0.0303692258333
22.8247067783
2.93619610691
0.217169767912
0.0803788001477
0.0813388871764
0.079263655825
0.0733920724734
0.0677847862162
0.0605786516992
0.0521409126993
0.0441323350642
0.0370505184463
0.0313703215022
0.0269426385172
0.0235378878436
0.0210720871348
0.0192021623343
0.0180596116345
0.0175786527465
0.0325388934821
32.1757314232
4.21833017311
0.243750947899
0.0887587035644
0.0788913214789
0.0723322229522
0.0678676023475
0.0657985612771
0.0611620810756
0.054315818871
0.0465387109209
0.0391776033665
0.0329628673043
0.0280487947372
0.0242935961455
0.021618530927
0.0196255792369
0.018436261907
0.0180433080082
0.0340583206686
39.1127433675
5.47209093246
0.305558926989
0.100684524523
0.07624315613
0.0649759110879
0.0618094352586
0.06266501623
0.0607361576152
0.055716190596
0.0486417045097
0.0412992324691
0.0346770083474
0.0292899754006
0.0251470885155
0.0222286681479
0.0200890797125
0.0188470027423
0.0185101928061
0.0351881531297
42.1168952307
6.64726489824
0.42261030019
0.121557582706
0.0766230947752
0.0594059650461
0.0565000301571
0.0591820755407
0.059574372384
0.0563109321807
0.050374168954
0.0433319958007
0.036470844989
0.030655495955
0.0261046834232
0.0229076717857
0.0205952488463
0.0192883145181
0.0189647091227
0.0359568451365
41.4921658675
7.31819085731
0.62102190343
0.156325441738
0.0836271784559
0.0573662596503
0.0525799362037
0.0556545616979
0.0576931287842
0.0561976919155
0.0516521821948
0.0451875568887
0.0382902246458
0.0321290934579
0.0271717078052
0.0236646936441
0.0211516219465
0.0197631447807
0.0194140822659
0.0363762411471
37.9257722889
7.43238156371
0.854976961564
0.211560670544
0.100662095947
0.0602353677736
0.0503753645966
0.0522545192232
0.0552047153023
0.0553978573152
0.0523843930063
0.0467738976447
0.0400694761815
0.0336840666952
0.0283454471702
0.0245070022247
0.0217660522992
0.0202745974801
0.0198704123929
0.0365203132842
32.6436456484
6.91780549489
1.00805639361
0.297807134599
0.134818988312
0.0702695693123
0.050728708672
0.0494303721391
0.0523937672202
0.0540230825447
0.0524670653
0.0480166990209
0.0417394029771
0.0352797882603
0.0296139343701
0.0254373083567
0.0224445416498
0.0208239648544
0.0203391527644
0.0364796219832
26.9066178181
6.22223759776
1.16420134246
0.43128610133
0.196865089312
0.0918766705735
0.05568477915
0.048140620487
0.0497414135565
0.0521689023422
0.0520090142023
0.0488429342403
0.0432248185372
0.0368692408152
0.0309589514517
0.0264525872265
0.0231898402536
0.021410316861
0.020818693262
0.0363169176479
21.9359328248
5.77505437345
1.43573831816
0.634958720504
0.303635072328
0.132470286681
0.0687955378672
0.0497870648889
0.0478834423357
0.0501496681976
0.051115622732
0.0491927192719
0.044460250927
0.0384014099077
0.0323553523301
0.0275428382148
0.0239990411263
0.0220287055351
0.0213014861345
0.0360683747397
18.5028497124
5.85508302699
1.90793836319
0.942241954003
0.467771681081
0.199620208355
0.0943761593102
0.0561190539733
0.0475870524176
0.0483511479068
0.0498804030183
0.0491160378231
0.0454030921703
0.0398209479506
0.0337655580526
0.02868804784
0.024859076906
0.0226662984733
0.0217721811308
0.0357454681646
16.6087476638
6.41838643549
2.58123953046
1.35244898596
0.685196898407
0.300016289354
0.138439319688
0.0702088048407
0.0501321353173
0.0473181649036
0.0485084742111
0.0486528808038
0.0460015506233
0.0410715847793
0.0351404879894
0.0298545271572
0.0257415587379
0.0232977869081
0.022204448968
0.0353432068491
15.8207812719
7.27229195389
3.41269510634
1.83903610901
0.942960180919
0.44068872118
0.21139759061
0.0992922641342
0.0588773478575
0.048241832728
0.0473345578596
0.0478194035075
0.046209648044
0.0421022530713
0.0364249086579
0.030987174551
0.0265975991966
0.0238796428892
0.0225582866691
0.0348463158083
15.5559051921
8.28148546397
4.33506095725
2.3771220406
1.22378471766
0.632987544039
0.334158112862
0.160075241804
0.0831705350055
0.0548224171381
0.0474153947404
0.046748272536
0.0459576857007
0.042831417292
0.0375549611189
0.0320206745585
0.0273585348683
0.0243507925942
0.0227837465731
0.03424617503
15.6535122906
9.48113497126
5.43756649936
3.10048040925
1.65631019122
0.896444589765
0.536459137184
0.283072708258
0.142994097914
0.0764758024255
0.0519497123318
0.0461835936639
0.0452577238918
0.0431624609139
0.0384545386903
0.0328820967916
0.027933160251
0.0246310137225
0.0228249222226
0.0335469840347
16.2035458313
10.9065744827
6.78970309562
4.07266019273
2.28802454668
1.29361745134
0.852535751656
0.523512088574
0.279759782117
0.133953051295
0.0687207194937
0.0483277115729
0.0445100148624
0.0430440810689
0.0390608566928
0.0335017325491
0.0282478011227
0.0246502247515
0.0226421623338
0.0327960892918
17.0746864702
12.5674238315
8.47197164703
5.40151318167
3.21550203195
1.92773801875
1.32610811506
0.944107289411
0.559857451796
0.266408558946
0.112686446349
0.0571935327392
0.0446002468593
0.0426479777565
0.0393394646664
0.0337929310942
0.0282210652461
0.0243560258602
0.0222299596396
0.0320712740894
18.2081774753
14.4791459801
10.5206196321
7.14543417689
4.48961038867
2.80226343316
1.99984381211
1.53955715781
1.07033427271
0.545455602937
0.207831028841
0.0781985843929
0.0467285079091
0.0423217800837
0.0393964526253
0.0337286862052
0.0278368073261
0.0237667915742
0.0216602292986
0.0315146237276
19.4277129686
16.5028553595
12.8204354622
9.25601097838
6.1335540228
3.94967333075
2.8298832629
2.23318542858
1.74751646982
1.02647651836
0.3783044142
0.114614269605
0.0512154950105
0.0423579581015
0.0392903606854
0.0333039193483
0.0271009150569
0.0229477209633
0.0210621870422
0.0312995621971
20.5032651939
18.433047052
15.2033185783
11.5988163124
8.05246966175
5.32184034522
3.82341707056
2.94549667497
2.35691036445
1.58678121332
0.597206856567
0.156934793694
0.0566274408329
0.0429342740352
0.0391401478916
0.0325351104793
0.0261016831201
0.0220525477994
0.0206303767808
0.0315749085922
21.2544611557
19.91239048
17.1987791137
13.6688357574
9.93265410832
6.88036093437
4.81655977759
3.5165608506
2.75302262568
1.93422686849
0.719737697317
0.180665524541
0.0612487370165
0.0443023895605
0.039107319989
0.0316544950589
0.0251117870393
0.0213389223023
0.0205994042836
0.0324387923845
21.5682477606
20.6365346221
18.2900746573
14.886313603
11.1256410073
7.75432677614
5.21489540606
3.59365520362
2.68749881119
1.8337606319
0.669820799759
0.170344729177
0.0616081424391
0.045868738747
0.0391986356421
0.0309011942128
0.0245391652646
0.0211713613501
0.0212290422943
0.0339595074494
20.9849450352
20.0675991553
17.7819730894
14.4004347778
10.4791787801
7.02619853546
4.52103675325
2.9474735788
2.04579593995
1.22643007161
0.44400831419
0.128143338522
0.0584049541704
0.0476211658737
0.0397704133638
0.0311259721734
0.0251318030887
0.0220675880591
0.0227702700027
0.0361083946269
18.2346576504
16.9749395446
14.5106213938
11.0684346694
7.75016320813
5.11396962778
3.21470437917
1.94538222049
1.14871538361
0.609208517539
0.237140069703
0.0903169048072
0.0575295847342
0.0508169250782
0.0423313202815
0.0339531004797
0.0281631096758
0.0249236301873
0.0256504306038
0.0389892867535
12.8958633822
11.5225941904
9.39231757899
7.2139895648
5.22470499303
3.50859299642
2.0927658887
1.06243408825
0.555870826442
0.305445989713
0.145447931774
0.0784531353595
0.0641064794601
0.0590800588511
0.0506876584251
0.0425169400973
0.0360916009256
0.0315022943071
0.0308279125341
0.0429865565163
8.32200954875
7.53123417785
6.53458872628
5.28517193908
3.87952582237
2.51897903634
1.32700774902
0.617792530922
0.333646320626
0.195949334265
0.117035105665
0.0875731035675
0.0830508232147
0.0585664671218
0.0608017084074
0.114862607549
0.0787527210555
0.120602193628
0.0886024893578
0.115628700879
0.0869525823316
0.108339515985
0.0823442596686
0.100529667887
0.0770861174355
0.0934308608688
0.0717582186135
0.0870209656092
0.0665947502128
0.0812626303765
0.0617036306961
0.0761355215887
0.0571208343259
0.071575173264
0.0528617642306
0.0675098921884
0.0489327103674
0.063868156206
0.0453476387372
0.0606102255925
0.0421357546142
0.0577266615272
0.0393401376593
0.0552134611408
0.0370086492639
0.0530815005717
0.0352058826717
0.0513437879452
0.0339811432516
0.0500472790138
0.0334087368317
0.0492906258862
0.0335103258472
0.049135080692
0.0343450982134
0.0496832577759
0.0359154907662
0.0509650562207
0.0382333858471
0.0529460667457
0.0412530530748
0.0554809044271
0.0449127139268
0.0583806739405
0.049147607315
0.0617147228042
0.0539665575452
0.0658043975552
0.0594233933073
)
;

boundaryField
{
    inletfuel
    {
        type            turbulentIntensityKineticEnergyInlet;
        intensity       0.05;
        value           uniform 13.5;
    }
    inletair
    {
        type            turbulentIntensityKineticEnergyInlet;
        intensity       0.05;
        value           uniform 0.015;
    }
    outlet
    {
        type            inletOutlet;
        inletValue      nonuniform 0();
        value           nonuniform 0();
    }
    axis
    {
        type            empty;
    }
    leftside
    {
        type            kqRWallFunction;
        value           nonuniform List<scalar> 
33
(
0.0585664671218
0.0608017084074
0.015532201076
0.0159676951182
0.0163922588806
0.0608017084074
0.0787527210555
0.0886024893578
0.0869525823316
0.0823442596686
0.0770861174355
0.0717582186135
0.0665947502128
0.0617036306961
0.0571208343259
0.0528617642306
0.0489327103674
0.0453476387372
0.0421357546142
0.0393401376593
0.0370086492639
0.0352058826717
0.0339811432516
0.0334087368317
0.0335103258472
0.0343450982134
0.0359154907662
0.0382333858471
0.0412530530748
0.0449127139268
0.049147607315
0.0539665575452
0.0594233933073
)
;
    }
    burnerwall
    {
        type            kqRWallFunction;
        value           nonuniform List<scalar> 7(10.596595047 9.05833566524 8.55866536323 0.0154765418997 0.0207646681116 0.0411222453365 6.37282994416);
    }
    front
    {
        type            wedge;
    }
    back
    {
        type            wedge;
    }
    procBoundary0to1
    {
        type            processor;
        value           nonuniform List<scalar> 
27
(
6.88387487567
6.87293477084
6.83958812973
6.77897655877
0.0795547396706
0.0713794538538
0.062269081138
0.0537084211227
0.0454389510942
0.0404597470177
0.0491669773376
6.62063507123
6.20392365901
5.49212512413
4.48531360423
3.28998261312
2.08104272133
1.05842950596
0.497188091893
0.274650587061
0.181807711446
0.139109375345
0.128818070874
0.0795547396706
0.130008276838
0.0711791777103
0.0659099756051
)
;
    }
}


// ************************************************************************* //
