/*--------------------------------*- C++ -*----------------------------------*\
  =========                 |
  \\      /  F ield         | OpenFOAM: The Open Source CFD Toolbox
   \\    /   O peration     | Website:  https://openfoam.org
    \\  /    A nd           | Version:  7
     \\/     M anipulation  |
\*---------------------------------------------------------------------------*/
FoamFile
{
    version     2.0;
    format      ascii;
    class       volScalarField;
    location    "0.06";
    object      N2;
}
// * * * * * * * * * * * * * * * * * * * * * * * * * * * * * * * * * * * * * //

dimensions      [0 0 0 0 0 0 0];

internalField   nonuniform List<scalar> 
814
(
3.59305074582e-08
2.7552991444e-08
1.02751355202e-08
3.64050047197e-06
3.65098265442e-06
2.72331030182e-06
0.0001765805049
0.00027515833138
0.000590743373629
0.00527508144803
0.0141806095943
0.0923196365427
0.0155446021748
0.0357266448323
0.144485399805
0.0313772100628
0.0630835757155
0.185040290087
0.0521524259148
0.0939056488892
0.218191325719
0.0761347973783
0.124587654987
0.241796578034
0.102210563329
0.153035367772
0.257422217211
0.130087830949
0.17914392911
0.26887252983
0.160349916376
0.20470005573
0.280988030011
0.194103822152
0.232364330155
0.297499505001
0.232440690519
0.264621435884
0.320786690591
0.275656407964
0.302484843246
0.351227214958
0.322712740187
0.345136769835
0.387453777359
0.370618976629
0.389458828823
0.425978596387
0.415008971567
0.430815912709
0.46195558862
0.452266953365
0.465476093371
0.491760927631
0.481415928519
0.492486322733
0.514733789676
0.503478815869
0.512952102827
0.532129297544
0.520193848124
0.528445635257
0.545247390353
0.532554675573
0.539750036123
0.554421384577
0.541224625081
0.547418666942
0.560003685228
0.546393243939
0.551565384892
0.562074108628
0.548915403994
0.553101479478
0.561643847842
0.550297136793
0.553561894417
0.560256328995
0.552597006306
0.555128132943
0.560349523554
0.558198688554
0.560185454714
0.564324398573
0.570392700745
0.572019996537
0.575447217888
0.593427574169
0.594878377025
0.597965995882
0.627787233392
0.62912731167
0.632012097856
0.663634312961
0.664792274218
0.667290661652
0.512296352799
0.440752854511
0.402128159236
0.386260400847
0.373847189165
0.363715148845
0.357661281182
0.358199030066
0.366522876256
0.383304045277
0.407846622445
0.438189773072
0.470610892925
0.500348738048
0.524285103425
0.54234302572
0.556056413976
0.566281861643
0.572717226828
0.575657952518
0.575149293456
0.572317389992
0.568680514805
0.567014183412
0.569699207856
0.579986917242
0.602115594146
0.635935375872
0.670663572907
0.767995161905
0.767996732518
0.76799834538
0.767999214762
0.767999652291
0.767999857945
0.767999946029
0.767999980947
0.767999993778
0.767999998148
0.767999999509
0.767999999886
0.767999999978
0.767999999996
0.767999999999
0.768
0.768
0.767999999998
0.76799999998
0.767999999946
0.767787885779
0.767907095848
0.767969653209
0.767988904346
0.767995716319
0.767998392314
0.767999428208
0.767999815034
0.767999945172
0.767999985289
0.767999996434
0.767999999242
0.767999999862
0.767999999979
0.767999999997
0.767999999999
0.767999999998
0.767999999974
0.767999999667
0.767999997563
0.766545924304
0.76769447787
0.767880285369
0.767952782817
0.767980318564
0.767992474293
0.767997265226
0.767999122046
0.767999749399
0.767999937094
0.767999985588
0.767999997072
0.767999999488
0.767999999924
0.76799999999
0.767999999998
0.767999999991
0.767999999858
0.767999997231
0.767999940931
0.723666400996
0.766141276028
0.767451314968
0.76780808239
0.767912873235
0.767970748422
0.767988711889
0.767996294811
0.767998956035
0.767999749063
0.767999944656
0.767999988975
0.767999998094
0.767999999721
0.767999999965
0.767999999994
0.767999999967
0.767999999404
0.767999983627
0.767998661687
0.664164384325
0.71538949785
0.75877889366
0.76596790642
0.767491256831
0.76785209975
0.767960204262
0.767986640534
0.76799621946
0.767999113406
0.767999808347
0.76799996164
0.767999993253
0.767999998996
0.767999999874
0.76799999998
0.76799999991
0.767999998417
0.7679999606
0.767998011576
0.616164157017
0.697300264066
0.753623688067
0.764736284776
0.767100209919
0.767697595766
0.767887304153
0.767966075085
0.767989508246
0.767997442732
0.767999436873
0.76799988348
0.767999978552
0.76799999667
0.767999999569
0.767999999937
0.767999999798
0.767999996786
0.767999929695
0.767997313316
0.582478910054
0.701428080169
0.753047618729
0.764214453226
0.766768383038
0.767496245234
0.767788799678
0.767920307397
0.767977939086
0.767993985794
0.767998598126
0.76799969323
0.767999939649
0.767999990007
0.767999998636
0.76799999981
0.767999999593
0.767999994356
0.767999893779
0.767996761035
0.550068938919
0.690905899689
0.753411571672
0.763899908562
0.766393945646
0.767240625472
0.767655573685
0.767859241078
0.76795861451
0.767987720941
0.767996936262
0.767999283625
0.76799984803
0.767999972849
0.767999996036
0.767999999454
0.767999999231
0.767999990816
0.767999852135
0.767996341724
0.522709448928
0.679267955998
0.75263240347
0.76321208548
0.765869669149
0.766919582986
0.767493162324
0.767789548886
0.767924161049
0.767978502102
0.767993943358
0.767998469167
0.767999650317
0.767999932465
0.767999989396
0.767999998514
0.767999998597
0.767999985734
0.767999801523
0.767995931846
0.503630694216
0.669832071961
0.750343221453
0.762042350903
0.765160384756
0.76653662496
0.767304757674
0.767700691255
0.767881225679
0.767963123742
0.767988724925
0.767996931357
0.767999251769
0.767999844499
0.767999973739
0.767999996182
0.767999997483
0.767999978561
0.767999738158
0.767995443141
0.495582340581
0.661763834336
0.746315013431
0.760304984083
0.764278560565
0.766094925684
0.76708558182
0.767589275293
0.767828454655
0.767935609171
0.767980935578
0.767994192785
0.767998492979
0.767999665555
0.767999939497
0.767999990781
0.767999995485
0.767999968539
0.76799965783
0.767994847381
0.496793867897
0.65791052392
0.740999660688
0.758178713451
0.763254092902
0.765585252823
0.766821905294
0.767447646803
0.7677554879
0.767899896311
0.767968036117
0.767989510595
0.767997127818
0.767999325001
0.767999869906
0.76799997909
0.767999991819
0.767999954554
0.767999556006
0.76799413319
0.506031490993
0.657109395205
0.735238442228
0.755850842043
0.762131601114
0.764985743222
0.766497133889
0.767267312848
0.767660182202
0.767852296223
0.767948689781
0.76798202494
0.767994818391
0.767998718444
0.767999738101
0.767999955372
0.767999984976
0.767999934849
0.767999426984
0.767993277472
0.521834223468
0.660287643084
0.731330686095
0.753191907588
0.760755300064
0.764248643509
0.766090811628
0.767039953807
0.767539364533
0.767794063712
0.767917500326
0.767971521389
0.767991163474
0.767997704676
0.767999504295
0.767999909988
0.767999972055
0.767999906497
0.767999263046
0.767992240865
0.541496768206
0.664661724232
0.728134049504
0.74995892724
0.758994486245
0.763322334427
0.765583406152
0.766761151782
0.767389826362
0.767716920383
0.767878653042
0.767956249421
0.767985668997
0.767996099295
0.767999112813
0.767999827314
0.767999947455
0.767999864259
0.767999052495
0.76799096815
0.561296235459
0.66787881262
0.724355733444
0.74591454353
0.756687951253
0.762171852739
0.764971029374
0.766435251444
0.767211578778
0.767621699689
0.767832359228
0.76793316137
0.767977698147
0.767993657239
0.767998486758
0.767999681992
0.767999900151
0.767999798152
0.767998776132
0.767989377897
0.577526706952
0.668299627037
0.719284511641
0.741380604465
0.753892580635
0.760858551987
0.764300047737
0.766077376313
0.767008885017
0.767508883556
0.767772955566
0.767904572779
0.767966639094
0.767990030413
0.767997514649
0.767999431304
0.767999808019
0.767999688296
0.767998400953
0.767987355578
0.588949633409
0.666723992992
0.713835088744
0.7368315937
0.750777216018
0.759448716578
0.763601495872
0.765685735745
0.766779855362
0.76737533966
0.767699371946
0.767868002168
0.767951472994
0.767984698653
0.767996022337
0.767999001406
0.767999626593
0.767999494582
0.767997867865
0.767984735038
0.596891715537
0.665030845624
0.70880047949
0.732770297264
0.747493236917
0.757837416825
0.762788780431
0.76519810018
0.76648739952
0.767203428402
0.767603745249
0.767819779033
0.767929813372
0.767977282572
0.767993703125
0.767998263279
0.767999267286
0.767999136563
0.76799706784
0.767981258128
0.603329882045
0.663157461579
0.704012599475
0.728932660317
0.744991081083
0.755592594667
0.761532056493
0.764432347725
0.766020647007
0.766937780379
0.767462411558
0.767750499657
0.767898551435
0.767966216581
0.76798999283
0.767996975299
0.767998554392
0.76799845598
0.767995800186
0.76797651253
0.607344985688
0.659527586476
0.69787246824
0.723410334521
0.740855055767
0.7525520148
0.759306852413
0.763067645901
0.765197912231
0.766479282267
0.767228975677
0.76764172653
0.767851491159
0.767949210044
0.767984019804
0.767994664095
0.767997145601
0.767997150294
0.767993701136
0.767969804811
0.607960860535
0.653798633377
0.689742880103
0.715584933089
0.734309887338
0.747418934568
0.755531674184
0.760501879419
0.763672793098
0.765657717873
0.76682550436
0.767462240306
0.767781545424
0.767920049895
0.767975066513
0.767990460097
0.767994386943
0.767994660865
0.767990153902
0.767960102531
0.605494882132
0.645531241681
0.678827538609
0.704555880115
0.724517275963
0.739347868246
0.749164847198
0.755870485152
0.760903476762
0.764204874502
0.766144909057
0.767179538062
0.767673177299
0.767880144763
0.767960346386
0.767982794393
0.767989080204
0.76799000874
0.767984135493
0.767946009092
0.600201991201
0.634974944946
0.665491778461
0.690701345364
0.711613975032
0.728177354834
0.739773154229
0.74830912345
0.755964469188
0.761666756989
0.765053596668
0.766765543163
0.767525154854
0.767826045028
0.767937421465
0.767968899551
0.767978865603
0.767981319668
0.767973843587
0.767925725115
0.59309228597
0.623054999401
0.650764115318
0.675063822026
0.696480856209
0.714597778289
0.728150960666
0.738834907237
0.748574979339
0.757674930677
0.763474776172
0.766238384343
0.767352948875
0.767763108735
0.767899802618
0.767945039322
0.767959790029
0.767965422196
0.76795673667
0.767897044453
0.585509624027
0.611033627036
0.636064008081
0.659447501484
0.681364015505
0.700964778604
0.716298846665
0.729289363074
0.741430788297
0.753174291723
0.7617338672
0.765727709913
0.7671898639
0.767687887032
0.767847834325
0.767901942741
0.76792534015
0.76793740113
0.767929147999
0.767857455888
0.580577219068
0.602099602318
0.624774798103
0.647409109188
0.669468432046
0.689796956987
0.707784465471
0.723448356354
0.737512839132
0.750506085239
0.760745039569
0.765426148845
0.767053187758
0.767593520008
0.767765412934
0.767829719607
0.767865486001
0.767888918904
0.767885513353
0.767804025491
0.580880892608
0.599437318019
0.620353086053
0.642514181786
0.665148515548
0.68751260585
0.707768431075
0.724842163267
0.739074957949
0.751294086625
0.760970313569
0.765430177205
0.766968791452
0.767471693303
0.767634600483
0.767709464884
0.767763740326
0.767807303505
0.767817228119
0.767732892484
0.589666813659
0.606464814257
0.626618172311
0.64925024427
0.673875510954
0.697421446856
0.717752545698
0.73378100359
0.74594895272
0.75584783454
0.762551216357
0.765729657111
0.766900209816
0.767287833076
0.767424951272
0.76751269578
0.767594971742
0.767672425591
0.767711282543
0.767638787965
0.61113201842
0.627403367292
0.647809014446
0.671660535802
0.695162980206
0.715980996821
0.732891278573
0.74561519477
0.754817631354
0.760553966842
0.7641538513
0.765977796063
0.766721837522
0.7669763246
0.767087103867
0.767194550671
0.767319721682
0.767452949721
0.767547708974
0.767513622056
0.644520200613
0.6602574696
0.680002525041
0.699841596656
0.718056123007
0.733706460454
0.746074641082
0.755380733455
0.760263923108
0.762958218445
0.764796077864
0.765848056335
0.766293864902
0.766446372331
0.766542736455
0.766682008092
0.766874288983
0.767098739994
0.767295029774
0.767345275822
0.677949506115
0.691277566271
0.705962523832
0.72093598867
0.734990742417
0.746634424214
0.754879171218
0.759464861244
0.762043171551
0.763627147181
0.764695235773
0.765291436675
0.765518771065
0.767914868137
0.767905391731
0.767943489969
0.767927645947
0.767959876909
0.767944736515
0.76796750135
0.767952734766
0.767971178554
0.767955908334
0.767972385625
0.767956481441
0.767971912868
0.767955467536
0.767970215071
0.767953161091
0.767967485703
0.767949631481
0.767963730443
0.767944769841
0.767958814681
0.767938316009
0.767952478138
0.767929846437
0.767944348245
0.767918767434
0.767933880572
0.767904300952
0.767920366967
0.767885501992
0.767902943693
0.767861301661
0.767880700031
0.76783062727
0.767852606004
0.767792413155
0.767817968597
0.76774585051
0.767775370785
0.767690080964
0.767724131036
0.767624724084
0.767662677903
0.767549427016
0.767590263276
0.76746439893
0.767506202273
0.767370185014
0.767410495159
0.767267259153
0.767302508121
0.767155822948
0.76717966952
0.767033869185
0.76703553381
0.766897088743
)
;

boundaryField
{
    inletfuel
    {
        type            fixedValue;
        value           uniform 0;
    }
    inletair
    {
        type            fixedValue;
        value           uniform 0.768;
    }
    outlet
    {
        type            zeroGradient;
    }
    axis
    {
        type            empty;
    }
    leftside
    {
        type            zeroGradient;
    }
    burnerwall
    {
        type            zeroGradient;
    }
    front
    {
        type            wedge;
    }
    back
    {
        type            wedge;
    }
    procBoundary0to1
    {
        type            processor;
        value           nonuniform List<scalar> 
27
(
0.68893926435
0.689941226816
0.692071842316
0.694916714341
0.765588685771
0.765681213546
0.765871136887
0.76616180859
0.766535389701
0.766907908825
0.767117267584
0.700836952256
0.711261814426
0.722996341224
0.734634677193
0.744855725611
0.752595209198
0.757595677781
0.760606801395
0.762290438161
0.763287549949
0.763906500523
0.764188505713
0.765588685771
0.76424049739
0.76686665436
0.766741621442
)
;
    }
}


// ************************************************************************* //
