/*--------------------------------*- C++ -*----------------------------------*\
  =========                 |
  \\      /  F ield         | OpenFOAM: The Open Source CFD Toolbox
   \\    /   O peration     | Website:  https://openfoam.org
    \\  /    A nd           | Version:  7
     \\/     M anipulation  |
\*---------------------------------------------------------------------------*/
FoamFile
{
    version     2.0;
    format      ascii;
    class       volScalarField;
    location    "0.06";
    object      nut;
}
// * * * * * * * * * * * * * * * * * * * * * * * * * * * * * * * * * * * * * //

dimensions      [0 2 -1 0 0 0 0];

internalField   nonuniform List<scalar> 
814
(
0.00233826933041
0.00142707620861
0.000179892860195
0.00196238422824
0.00121846170176
0.000153719718095
0.00176049770747
0.00113880050131
0.000145164171937
0.00153184980956
0.00104660025794
0.000281997596504
0.00135571442639
0.00100779832653
0.000474922137264
0.00124164744523
0.00103292249989
0.000663615534477
0.00119445137489
0.00110243498829
0.000878699232539
0.00120609333824
0.00120734804194
0.00111714731612
0.00127168834268
0.00134838986906
0.00137041849579
0.00139311741523
0.00152318428775
0.00161858405656
0.00156572335411
0.00171670887757
0.00183613283126
0.00176314768901
0.00189805650925
0.00199682866832
0.00193506064507
0.00202785322316
0.00207907668901
0.00202661432598
0.00207127310762
0.00206970134915
0.00201058722348
0.00201827739258
0.00197636482732
0.00190857268646
0.00189642380721
0.00183492396766
0.00177960470416
0.00176186579883
0.00169930217882
0.00167928806518
0.00166350202057
0.00161028801512
0.00163105399238
0.00162033838347
0.00158047544392
0.00163540227291
0.00163002718246
0.00160315410779
0.00168249596848
0.00168178396024
0.00166611353161
0.00176513712292
0.00176932900037
0.001765700148
0.00187990382554
0.00188988083726
0.00189998966902
0.00202241076857
0.00203879954221
0.00206405575671
0.00219020694348
0.00221264385425
0.00225237849154
0.00237944361067
0.00240583908166
0.00245520221456
0.00259400730007
0.00262123395776
0.00267371066056
0.00281797070937
0.00284266924604
0.00289032899507
0.00298892046636
0.00300658462174
0.00304027064512
0.00293315523041
0.00294150448949
0.00295600897978
0.00253535265543
0.00253597904926
0.00253494701327
0.00210916955921
0.00211099881592
0.00211369765803
0.000599081767704
0.000405186010339
0.0005906891256
0.000828944767318
0.00109269269409
0.00135990072614
0.0016029660875
0.00179604957989
0.00191970079366
0.00196229963997
0.00192175370546
0.00181329979626
0.00167570793627
0.00155929106282
0.00149672722088
0.00149364379072
0.00153821590204
0.00161925005196
0.00173841656762
0.00189359467123
0.00208012899473
0.00228940450803
0.00250748824431
0.00273174674392
0.00294353609478
0.00307677962454
0.00296859888097
0.00252914070746
0.00211493245134
2.52649250408e-05
0.000139850383442
0.000191608793686
0.000216796835558
0.000236607005775
0.000256920076077
0.000277908819209
0.000300624236678
0.000322736653937
0.00034281992133
0.00035892442739
0.000369770816948
0.000374694321706
0.000373986807489
0.000369231178955
0.000361576434046
0.000354269989449
0.000346233926321
0.000325888023154
9.59852073499e-05
3.29339702056e-05
0.000110454086814
0.000178336004237
0.000220750981322
0.000257282500727
0.000288362692496
0.000314964267109
0.000340043654988
0.000362567201217
0.000380638603673
0.000393866846272
0.000400550171968
0.000400983326047
0.000395302604097
0.000386024714935
0.000374025587298
0.000363315937547
0.000351970662893
0.000319578683056
9.73198484143e-05
5.47315676406e-05
0.000102800191596
0.000147072972249
0.000212718391492
0.000254754489098
0.000298572083298
0.00033122220039
0.000360359211474
0.000384058946671
0.000400859551089
0.000411659406538
0.000415460398278
0.000413043261344
0.000404967049452
0.000393489230277
0.00038010919502
0.000367842255987
0.00035574367402
0.000316169438179
9.86041363866e-05
0.000191019194244
1.72335031666e-05
4.84140694548e-05
0.000148040577551
0.000213005076707
0.000276194543244
0.000322441912267
0.000361886212911
0.000393640651428
0.000413929355029
0.000424800739755
0.000426904226764
0.000422342655394
0.000412596529517
0.000399475514547
0.000385380532512
0.000371921775777
0.00035978364601
0.000314596185135
0.000110128666275
9.71414184086e-05
4.00623290296e-05
7.69409832983e-06
1.17052447231e-05
5.84485154652e-05
0.00016542736879
0.000265507778788
0.000329789402867
0.000381782120569
0.000415610650096
0.000432932940185
0.00043609528957
0.000430557572258
0.000419545664406
0.000405100462681
0.000390327641524
0.000375918831521
0.000363449206526
0.000313679977752
0.000113969061932
0.00020381798422
7.1824046791e-05
1.08425502409e-05
8.53229474679e-06
4.16188029799e-05
0.000123065494934
0.000208129638262
0.000277871111708
0.00034840280425
0.000403108985628
0.000434633762048
0.000443198181455
0.000438445187713
0.00042650567471
0.000410890470744
0.000395263253232
0.00038006428493
0.000366646721519
0.0003117721846
0.000119449102931
0.000414834607673
8.74588131801e-05
1.25130829103e-05
9.41559227386e-06
3.96220195317e-05
9.99555732048e-05
0.000160233775287
0.000225667097175
0.000305916753197
0.000379530494212
0.000428778590594
0.000447475928675
0.000446063660117
0.00043392237866
0.000417249318536
0.000400616870537
0.000384650447388
0.000370003546945
0.00030886336246
0.000124507770117
0.000679510057252
0.00013263386515
1.3383317297e-05
1.14393349606e-05
3.92311779272e-05
8.01087950666e-05
0.000121932458424
0.000181971895407
0.000264859942214
0.00035017835243
0.000415225086206
0.000447434496572
0.000452560499495
0.000441687157137
0.000424265204086
0.000406596264835
0.000389789208341
0.00037387575642
0.000305701567613
0.000128302363281
0.00096252967136
0.000190183195238
1.55813353381e-05
1.35267942113e-05
3.57384062464e-05
6.14854586218e-05
9.2566271837e-05
0.000147629387577
0.000228549601793
0.000318470100974
0.000394815658112
0.000441595485012
0.00045648795602
0.000449146361407
0.000431713245815
0.000413135218591
0.000395402071517
0.00037815811888
0.000302683897623
0.000131401521298
0.00119941220608
0.000249615221174
2.01122400176e-05
1.54538873826e-05
3.04983767414e-05
4.63733296473e-05
7.12052467736e-05
0.000120980487926
0.000196966287806
0.00028609730191
0.000369248718945
0.000429393596414
0.000456470213467
0.000455408252951
0.000439247402515
0.000420087789574
0.000401385103281
0.000382631737469
0.000299470701331
0.000134308774467
0.00135415884418
0.000309498532757
2.85507289173e-05
1.79110558827e-05
2.64377698985e-05
3.57849112608e-05
5.60412572067e-05
9.97414397343e-05
0.000168954293933
0.000254127723194
0.000340625528555
0.000411450253324
0.000451657557011
0.000459559370918
0.000446481697388
0.000427336884317
0.000407698279142
0.000387175247661
0.000295648655585
0.000136928132321
0.00142785351585
0.00035367046817
4.29334007213e-05
2.3109677496e-05
2.5633278095e-05
2.940913247e-05
4.51035003684e-05
8.19051622884e-05
0.000143387620109
0.000223485258728
0.000310692137787
0.000389126837184
0.000441850104829
0.000460784787386
0.000452955087515
0.000434759708371
0.000414338358325
0.000391759679194
0.000291456064132
0.000139140275034
0.00142789044786
0.000385685645613
6.39429845409e-05
3.35515144159e-05
2.88149177527e-05
2.66306721152e-05
3.71524651653e-05
6.65604216039e-05
0.000119974908234
0.000194563407991
0.00028063489235
0.000363901214152
0.000427437478628
0.000458496855351
0.000458120964957
0.000442162675222
0.000421277174252
0.000396371008463
0.000287436422929
0.000141023320751
0.00137259183042
0.000398707274848
8.78960764441e-05
5.29518101219e-05
3.6855685297e-05
2.7272509362e-05
3.19038634774e-05
5.38257236961e-05
9.90307753618e-05
0.000167595386744
0.000251049745933
0.000337059782585
0.0004092636383
0.000452452227796
0.000461426316651
0.000449256220585
0.000428421570172
0.000400961216209
0.000284045679462
0.000142727706328
0.00128786532359
0.000411490888797
0.000124320427137
8.45704897944e-05
5.19928891345e-05
3.21392480942e-05
2.99708253299e-05
4.44603716219e-05
8.11519913679e-05
0.000142708354019
0.000222533160402
0.000309491383639
0.000388336047841
0.000442825273879
0.000462438408277
0.000455667651318
0.000435585365036
0.000405423927419
0.000281460074397
0.00014434978855
0.00121054485833
0.000447673543407
0.000185226480747
0.000131285295478
7.78777918059e-05
4.3052969757e-05
3.26083618813e-05
3.93220981935e-05
6.70954120723e-05
0.000120397390554
0.000195327593071
0.000281700591897
0.000365539266743
0.000430079959414
0.000460898431251
0.000460960147754
0.00044244790414
0.00040955457603
0.000279627368815
0.000145909667025
0.00117579173955
0.000527193762043
0.000277589611713
0.000198624994043
0.00011781066824
6.22717669338e-05
4.15266427236e-05
3.91668382247e-05
5.74343458396e-05
0.000101045881124
0.000169241840048
0.000253759699034
0.000341267440949
0.000414660873692
0.000456659263863
0.000464621346593
0.000448481898667
0.00041296897138
0.000278317674615
0.000147375980451
0.00119678897172
0.000651476542096
0.0004010992133
0.000285420837047
0.000172152510308
9.22571039232e-05
5.92841471775e-05
4.5122055052e-05
5.24128194526e-05
8.45032692606e-05
0.000143550341223
0.000224616931794
0.000314967452007
0.000396573969064
0.000449491292738
0.000465992733115
0.000452860825074
0.000414992814899
0.000277089199844
0.000148671954174
0.00126577392286
0.000805682378861
0.000544932638055
0.00038383889685
0.000238164862091
0.000135814434703
9.01946275381e-05
6.01325068e-05
5.28360554436e-05
7.05866150123e-05
0.000116870485121
0.000191902711786
0.000284558987832
0.000374842701354
0.000438832986634
0.000464128295311
0.000454361086005
0.000414535922303
0.000275212245143
0.000149657367928
0.00136228424944
0.000976325203638
0.00070221890668
0.000493041286592
0.000310276642846
0.000196620786179
0.000140971643761
9.07664509844e-05
6.27156389518e-05
6.14466350374e-05
8.96262069876e-05
0.000152886429261
0.000246440492213
0.000347089293412
0.000423511386858
0.000457762871788
0.000451329091329
0.000410048200772
0.000271680090722
0.000150176931479
0.00148666865198
0.00117065649073
0.00088803964467
0.000636169476033
0.000415778603668
0.000281359555804
0.00022089658565
0.000149436035659
9.17751447744e-05
6.44666089029e-05
6.87398798389e-05
0.000110996292575
0.000198143824993
0.00030984223884
0.000401578471287
0.000445366740655
0.000441726689749
0.00039953950348
0.000265183998023
0.000150075824499
0.00165025182643
0.00139649544078
0.00111207513917
0.0008234024581
0.000564620788597
0.000405671487722
0.000343114880881
0.000257819388569
0.000158187017531
9.03891677925e-05
6.36321711829e-05
7.78633501297e-05
0.000144979843042
0.000261690346157
0.000371363187334
0.000425542675935
0.000423673370544
0.000381048454176
0.000254485150908
0.000149337596152
0.00184944714991
0.00165782299452
0.00138543281763
0.00107058162171
0.000772865739294
0.000588185956195
0.000522585762664
0.000441200868733
0.000289034717246
0.000155354342345
8.07401588519e-05
6.26949755249e-05
0.000101011181071
0.000208975625048
0.000333622285201
0.000397458684734
0.000395727635018
0.000353190943208
0.000238732143896
0.000148106820167
0.00208200266986
0.00195564679446
0.00170968322833
0.00138070284875
0.00104351644905
0.000826427609818
0.00076546128577
0.00070076036334
0.000516659136353
0.000286836289969
0.000127360860714
6.46598705373e-05
7.44526271285e-05
0.000163103675701
0.000293301838548
0.000361919359716
0.000357809962945
0.000316165033724
0.000218236119291
0.000146806856656
0.00233535475514
0.00227504333403
0.00206753570237
0.00174103778156
0.00137410051599
0.00111720997079
0.00104331737938
0.000986941598529
0.000816550368879
0.000501762700204
0.00021018906183
7.97358707543e-05
6.24207842244e-05
0.000132612359693
0.000257504968371
0.000320763964166
0.000311160660962
0.000272096061445
0.000194519581488
0.00014598432707
0.00258903189975
0.00259067330229
0.00243081639569
0.00212356942225
0.00174164429456
0.00144354882631
0.00132754177532
0.00124106491723
0.0010764187827
0.00074210014965
0.000312232729897
9.94295970838e-05
5.88101433788e-05
0.000116693384183
0.000228504318245
0.000275089302986
0.000258585543405
0.000225079700312
0.000170297579127
0.000146114350612
0.00282821597157
0.00286359645083
0.0027387905783
0.00245488476282
0.00208666113883
0.00177514479424
0.00157041071895
0.00141174097133
0.0012257713704
0.000886242489825
0.000369156868488
0.000111016365682
5.96265121668e-05
0.000110873845972
0.000202556631936
0.000226351192429
0.000205035940032
0.000180264795521
0.000148600739496
0.000147374785452
0.0030323415041
0.00306486446138
0.00294916899469
0.00268288523902
0.00233216938587
0.00198193027527
0.00167055138166
0.00141606254583
0.00118500525384
0.000844066173356
0.000347335398022
0.000106684692445
6.30581841371e-05
0.000114845181755
0.000177582458137
0.000178160019889
0.000156861144442
0.000142315688293
0.000131354089931
0.000149499489879
0.00313378031533
0.00312699977291
0.00298723044579
0.00270995912968
0.00232703877711
0.00191479550064
0.00153290752111
0.00120865522772
0.000935206503242
0.000596362314391
0.000245109963547
8.80757849346e-05
7.14014781638e-05
0.000123567090797
0.000151592555325
0.000137578376426
0.00012036880821
0.000114291608986
0.000118988775316
0.000151909827104
0.002977879686
0.00290773823534
0.00272007689184
0.00240545974599
0.00203068622532
0.00163715431646
0.00124280205342
0.000881560598001
0.000574898807951
0.000328865129656
0.000146639451983
7.51095661003e-05
8.82132894764e-05
0.000127298831087
0.000128362129934
0.000111581941261
9.9454210043e-05
9.78200418493e-05
0.000111291892
0.000154138927943
0.00250632114575
0.00241372790172
0.00224451976096
0.00201512596188
0.00171427028633
0.00134254085792
0.000930964885766
0.000542346915359
0.000311147549362
0.000185669149678
0.000105036274844
8.23229620039e-05
0.000107315099627
0.000125919615711
0.000117696931182
0.000104400929482
9.5645093726e-05
9.4195788292e-05
0.000108827880185
0.000156697915011
0.00211383819766
0.00208384445464
0.00199102930965
0.00179445856062
0.00147133257643
0.00105956514552
0.000640592026203
0.000350335809852
0.000209663123697
0.000138168238876
0.000103493698286
0.000107277311981
0.000128325104942
0.000187709150438
9.69543009952e-05
0.00015328896025
0.000125595186634
0.000152618755511
0.000141321566065
0.000148986260824
0.000138696138493
0.00014591526577
0.000131346069299
0.000143289953123
0.000122958024543
0.000141256020874
0.000114457804535
0.000139350408569
0.000106219086274
0.00013736585554
9.84142570004e-05
0.00013526995198
9.1100818319e-05
0.000133061272212
8.43033611668e-05
0.000130758923444
7.8031853269e-05
0.000128395354338
7.23084031374e-05
0.000126029575077
6.71793733867e-05
0.000123745973799
6.27132019117e-05
0.000121621841973
5.89858724246e-05
0.000119756216439
5.60999477024e-05
0.000118235684709
5.41334552025e-05
0.000117237133701
5.32041008873e-05
0.000116907978887
5.33453070697e-05
0.000117443044183
5.46499970095e-05
0.000119017805947
5.71202636744e-05
0.000121773814348
6.07730529441e-05
0.000125711131637
6.55334249322e-05
0.000130588803893
7.1300970115e-05
0.000136025629914
7.79696951539e-05
0.000141904747303
8.55500360563e-05
0.000148887675936
9.41197685837e-05
)
;

boundaryField
{
    inletfuel
    {
        type            calculated;
        value           uniform 0.0100623058987;
    }
    inletair
    {
        type            calculated;
        value           uniform 0.000335410196625;
    }
    outlet
    {
        type            calculated;
        value           nonuniform 0();
    }
    axis
    {
        type            empty;
    }
    leftside
    {
        type            nutkWallFunction;
        Cmu             0.09;
        kappa           0.41;
        E               9.8;
        value           nonuniform List<scalar> 
33
(
0
0
3.53487600274e-06
3.74895182156e-06
3.95445020173e-06
0
0
0
0
0
0
0
0
0
0
0
0
0
0
0
0
0
0
0
0
0
0
0
0
0
0
0
0
)
;
    }
    burnerwall
    {
        type            nutkWallFunction;
        Cmu             0.09;
        kappa           0.41;
        E               9.8;
        value           uniform 0;
    }
    front
    {
        type            wedge;
    }
    back
    {
        type            wedge;
    }
    procBoundary0to1
    {
        type            processor;
        value           nonuniform List<scalar> 
27
(
0.00201587723853
0.00201985850252
0.00202705460025
0.00203388721726
0.000135528813613
0.000128300948647
0.00011896721881
0.000111374238439
0.000106543587092
0.000114779471255
0.000161303770095
0.00204125192856
0.00200884535496
0.00188686007167
0.00164386621815
0.001292184515
0.00089493065596
0.000533781951064
0.000301162061659
0.000193250520716
0.000148736054261
0.000137958714576
0.00015012593548
0.000135528813613
0.000166394606796
0.000158079063784
0.000104291478259
)
;
    }
}


// ************************************************************************* //
