/*--------------------------------*- C++ -*----------------------------------*\
  =========                 |
  \\      /  F ield         | OpenFOAM: The Open Source CFD Toolbox
   \\    /   O peration     | Website:  https://openfoam.org
    \\  /    A nd           | Version:  7
     \\/     M anipulation  |
\*---------------------------------------------------------------------------*/
FoamFile
{
    version     2.0;
    format      ascii;
    class       volScalarField;
    location    "0.06";
    object      O2;
}
// * * * * * * * * * * * * * * * * * * * * * * * * * * * * * * * * * * * * * //

dimensions      [0 0 0 0 0 0 0];

internalField   nonuniform List<scalar> 
814
(
5.35257763538e-09
3.71945161244e-09
5.08465531712e-10
5.99591267774e-07
5.6349489433e-07
2.10325728876e-07
3.16092077322e-05
4.8790519825e-05
9.2764657616e-05
0.000980797218114
0.0027239439631
0.0186779858386
0.00162693821931
0.00334105883378
0.0116202983467
0.00179580934454
0.00287522267033
0.0062565091508
0.00158682268747
0.00204085715583
0.0030439022411
0.00120353980854
0.00128416611029
0.00141367538162
0.000810899081549
0.000744789529724
0.000650123788255
0.000494626163926
0.000407638667013
0.000307656523786
0.000276795142611
0.000214429316476
0.000156073245961
0.000144115105173
0.000110856290012
8.71901996828e-05
7.15781777366e-05
5.80602596549e-05
5.37919269725e-05
3.60378872964e-05
3.29978932108e-05
3.8600503104e-05
2.10816632349e-05
2.30428331655e-05
3.4271341837e-05
1.68240884768e-05
2.12573754102e-05
3.60738018686e-05
1.80811490652e-05
2.41150060799e-05
4.1976339923e-05
2.25346402404e-05
3.01391036431e-05
5.16256677243e-05
2.96282978676e-05
3.92626050159e-05
6.57862588033e-05
3.9814406993e-05
5.23565354227e-05
8.63323928175e-05
5.21021872234e-05
6.7631097175e-05
0.000108825577173
6.29397874125e-05
7.9933297074e-05
0.000123683144766
6.82792649786e-05
8.42747878256e-05
0.000123911999721
6.56680520299e-05
7.84218521225e-05
0.000108938380321
5.64654922113e-05
6.52418585793e-05
8.56111437372e-05
4.42274543756e-05
4.9463832373e-05
6.13015794418e-05
3.24253453963e-05
3.5321729512e-05
4.17342294202e-05
2.43389390919e-05
2.61132253609e-05
3.00791280841e-05
2.99027430745e-05
3.23883170714e-05
3.8141811833e-05
9.01818398672e-05
9.79948638319e-05
0.000116190809673
0.000330578894719
0.000356158522278
0.000415376441431
0.000973489389055
0.00104086876507
0.0011952428757
0.127572355907
0.043288176287
0.0139042583152
0.00444479824745
0.00150430829103
0.000578152206825
0.000274318504516
0.000163521417104
0.000111657937474
8.10799535895e-05
6.7928408206e-05
6.74392347951e-05
7.25401860314e-05
8.21304514236e-05
9.73788848194e-05
0.000120038187583
0.000153824467203
0.000187803339271
0.000203178427694
0.000191896335752
0.00015845286191
0.000117078242222
7.87793303645e-05
5.09803400615e-05
3.58998128983e-05
4.71240796566e-05
0.000144754754719
0.000507368666392
0.0014289553219
0.231989062771
0.231991161031
0.231993145753
0.23199564503
0.231997687225
0.231998943016
0.231999567124
0.23199983863
0.231999945056
0.231999983122
0.231999995413
0.23199999892
0.231999999784
0.231999999964
0.231999999994
0.231999999999
0.231999999997
0.23199999998
0.231999999838
0.231999999571
0.231546007523
0.231763835162
0.231872218259
0.231933307734
0.231968395464
0.231986919554
0.231995075078
0.231998344553
0.231999494679
0.231999861358
0.231999965808
0.231999992638
0.231999998645
0.231999999789
0.231999999971
0.231999999994
0.231999999982
0.231999999797
0.231999997358
0.231999980671
0.229010758788
0.230936392764
0.231310875335
0.231649074895
0.231832999603
0.231932583955
0.231974756595
0.231991732831
0.231997601868
0.23199939026
0.231999858769
0.231999971059
0.231999994906
0.231999999242
0.231999999904
0.231999999982
0.231999999926
0.23199999887
0.231999978039
0.231999531537
0.190208249941
0.222338260799
0.227829679723
0.230321501228
0.231187669909
0.231720331709
0.231891230397
0.231964038585
0.231989785329
0.231997525734
0.231999450162
0.231999889755
0.231999980842
0.231999997186
0.231999999651
0.231999999942
0.231999999737
0.231999995273
0.231999870143
0.231989385051
0.048330729538
0.026538162343
0.152889044325
0.212505783304
0.227004608548
0.230534386539
0.231605123983
0.231867479988
0.231962411044
0.23199114765
0.231998076289
0.231999613043
0.231999931657
0.231999989803
0.231999998725
0.231999999809
0.231999999282
0.231999987443
0.231999687499
0.231984229313
0.0109859610028
0.00738765639084
0.104700524078
0.199828684406
0.222958630621
0.228937007351
0.230859119491
0.23165824449
0.231894391139
0.231974200431
0.231994297912
0.231998815796
0.231999781336
0.23199996596
0.231999995597
0.231999999393
0.231999998386
0.231999974506
0.231999442338
0.231978690253
0.0026389967772
0.00665821026737
0.0965100790975
0.194092209315
0.219411204475
0.226814631524
0.229832769671
0.231187007901
0.231775613164
0.231938747237
0.231985688298
0.231996860739
0.231999381076
0.231999897329
0.231999985982
0.231999998138
0.231999996741
0.231999955227
0.231999157411
0.231974307992
0.000953908967453
0.00685556817667
0.098280535059
0.190527172581
0.215389919166
0.224098422832
0.228430256529
0.230550313147
0.23157509319
0.23187384141
0.231968481678
0.231992621782
0.231998432917
0.231999719697
0.23199995908
0.231999994558
0.231999993796
0.231999927147
0.231998827069
0.231970980886
0.000630455695918
0.00667774798531
0.0909629402769
0.183347888557
0.209812053375
0.220678909118
0.226708018318
0.229815314014
0.231214741079
0.231777399877
0.231937263219
0.231984140199
0.231996375843
0.231999299678
0.23199989009
0.231999984986
0.231999988558
0.23199988682
0.231998425616
0.231967729618
0.000522167164198
0.00614721726571
0.0725361401384
0.171477262623
0.20232409548
0.216600382416
0.224701616903
0.228872681371
0.230761836255
0.231615710899
0.23188253318
0.231968043282
0.231992209794
0.231998381033
0.231999726847
0.231999961088
0.231999979144
0.231999829873
0.231997923
0.231963853538
0.000427950387833
0.00423447581891
0.0413624301162
0.154255234579
0.193079293235
0.211905778529
0.222365109891
0.227687583133
0.230202402297
0.231325639727
0.231800472515
0.231939261498
0.231984247252
0.231996505726
0.231999368767
0.23199990547
0.231999961849
0.231999750261
0.231997285822
0.231959128161
0.000322997900965
0.00260390432911
0.0218695715355
0.133910964289
0.182398010468
0.20650515722
0.219557619076
0.226180824669
0.229428247445
0.230947855561
0.231664268566
0.231889905844
0.23196987768
0.231992926599
0.231998639378
0.231999784835
0.231999929438
0.231999639037
0.231996478121
0.231953463173
0.000239071866455
0.00171723611559
0.0142636301232
0.112942853978
0.170772155865
0.20017463898
0.216106671502
0.2242636421
0.228416783455
0.230443488365
0.231459603033
0.231810821417
0.231945511576
0.231986537778
0.231997255928
0.231999540214
0.231999868045
0.231999482119
0.231995454681
0.231946675506
0.000211130431242
0.0015029819564
0.0120723937261
0.090106806107
0.156757135102
0.192433160498
0.211799410561
0.221848375104
0.227134330715
0.229825681826
0.23112930195
0.23169964899
0.231906880938
0.231975843075
0.231994800946
0.231999073789
0.231999751534
0.231999256005
0.23199415428
0.231938453038
0.000215223553672
0.00144969778515
0.0103009391959
0.062940976437
0.139054763267
0.182763708514
0.206434814342
0.218888631993
0.225546470625
0.229006820002
0.230717309273
0.231537826784
0.231848734434
0.231958893323
0.23199069526
0.231998230723
0.231999530881
0.231998918875
0.231992484212
0.231928357849
0.0002210913598
0.00128140947521
0.00713151356284
0.0312331125088
0.116392354093
0.170863003289
0.199983258934
0.21543164405
0.22365285748
0.227995406183
0.230225841321
0.231293024529
0.231764323833
0.231933114954
0.231984153313
0.2319967691
0.23199911308
0.231998391594
0.23199029241
0.231915744202
0.000233670637887
0.00117255086972
0.00534299742846
0.0202187172149
0.0914753833801
0.157522778238
0.192950355036
0.211640712209
0.221499345218
0.226796698895
0.229595044902
0.230989751875
0.231647219529
0.231894895031
0.231974070446
0.231994301968
0.231998318701
0.231997518062
0.231987317864
0.231899703994
0.000260127367149
0.00117054791604
0.0046658251425
0.0158157253795
0.0650834408803
0.143405595054
0.185677431862
0.207506494995
0.219070000688
0.225378936068
0.2288140832
0.230601992168
0.231486832385
0.231838927672
0.231958790631
0.231990202501
0.231996801061
0.231995986612
0.231983094104
0.231878920039
0.000303634499951
0.00125274150433
0.0044178830736
0.0130915025628
0.0404529530433
0.127672312337
0.177316488474
0.202400494637
0.215984390737
0.223559622472
0.227801295423
0.230091652517
0.231258434684
0.231761699623
0.231935507322
0.231983456345
0.231993895482
0.231993179127
0.231976762621
0.231851346316
0.000373793770394
0.00140769836157
0.00451171716689
0.0125739815097
0.0343125215786
0.107669152372
0.164673759454
0.194488381399
0.211103792475
0.220764248371
0.226310232447
0.229361106822
0.230930424678
0.231647768167
0.231899223278
0.231972269294
0.231988322863
0.231987893604
0.23196674818
0.231813716136
0.000432131536895
0.00144768340868
0.00428312375931
0.0114476461921
0.0299139469076
0.0833790052121
0.143120255007
0.180666320733
0.202603641004
0.215974670536
0.223859170252
0.228219305589
0.230440006813
0.231475250358
0.231842729315
0.231953215673
0.231977643636
0.23197785902
0.231950207496
0.231760538816
0.000432746879023
0.00128337332841
0.00343511721921
0.00838672120787
0.0197060736249
0.0475208579979
0.109089864805
0.155601855
0.187139392694
0.207473603821
0.219643815805
0.226343142416
0.229717391048
0.231183003958
0.23176229268
0.231920182385
0.231957242922
0.231958927142
0.231922348123
0.231683648308
0.000374918690969
0.000985516075975
0.00239446111784
0.00541915471922
0.0119184517476
0.0263320413726
0.0603453997773
0.113426666953
0.159993098481
0.192670556778
0.212580510641
0.223399944861
0.228606388351
0.230793921387
0.231635634057
0.23186222875
0.23191864539
0.231923879775
0.231875276289
0.231572023001
0.000284750052415
0.00066752318944
0.00147474804311
0.00309380617858
0.00639221625661
0.0132167310232
0.0268493415907
0.0564829795244
0.115019568908
0.167592925541
0.2013909321
0.21911477369
0.227106071449
0.230283739175
0.231448454237
0.23175997963
0.231844809796
0.23185884372
0.231795167987
0.231411520887
0.000194073816299
0.000407746719107
0.000821490109565
0.00159987475305
0.00314154534789
0.00638133354655
0.0129631811705
0.0262124784475
0.0599817704866
0.130754094277
0.185606044373
0.213724314798
0.225398516921
0.229725322578
0.231148839958
0.231587177467
0.231705939623
0.231739887869
0.231662562179
0.231184890263
0.000120328758357
0.000227428256242
0.000420668538135
0.000771250046278
0.00148343362759
0.0031210154072
0.00666464016229
0.0140381918204
0.0315678459137
0.0945683043954
0.168963458126
0.208642326286
0.223858681396
0.229102159151
0.230755332214
0.231265430215
0.231449626111
0.231528186255
0.23144898779
0.230872552261
7.24949548713e-05
0.000125413344292
0.000220914180471
0.000405379428592
0.000817718105809
0.00184001797777
0.00441760737437
0.0103127594475
0.0251055287236
0.076661000676
0.160138816883
0.205842612024
0.222685994144
0.228358375863
0.230118942814
0.230708033749
0.230988668502
0.231154794567
0.231109673383
0.23045137441
4.9861454501e-05
8.71294336415e-05
0.000167725690132
0.000362484411753
0.000888269038385
0.00240267335947
0.00599698373665
0.0136076174816
0.030482720334
0.0834218773728
0.162721678167
0.206248629205
0.222152708718
0.227415918406
0.229065119988
0.229735591494
0.230172486225
0.230507415653
0.230571657678
0.22988969334
7.02621520043e-05
0.000142050936058
0.000325724914624
0.000823818906853
0.0022364392236
0.0056200651611
0.0128085314315
0.0266619367443
0.0534619085535
0.118047244548
0.177952517609
0.209714576606
0.221869277326
0.225918455633
0.227286604604
0.228067830529
0.228760010917
0.229399114055
0.229717964428
0.229141351325
0.000218838042847
0.000448277745936
0.00102539644439
0.00252342202092
0.00593823127941
0.0131042507991
0.0273612540929
0.0547381564074
0.111093659125
0.159309141864
0.194120650679
0.212763494935
0.22052901959
0.223190077542
0.224281734212
0.225256321127
0.226363292453
0.227528056751
0.228360429983
0.228131126702
0.000742343490313
0.00143679438823
0.00305765302937
0.00643087680759
0.0131790867643
0.0266886753381
0.0547355022398
0.115926097237
0.157405897292
0.182769399895
0.201147688042
0.212000311321
0.216681382978
0.218296233515
0.21925358384
0.220565358294
0.222347718051
0.224401272691
0.226193059934
0.226740368006
0.00200601648094
0.003604775149
0.00674979633155
0.0129250628565
0.0255556399699
0.0533411854547
0.110304486223
0.150185828269
0.174247771028
0.189795153992
0.200662586865
0.20687344383
0.209311882425
0.231324698766
0.231249527518
0.231551739418
0.231426055603
0.231681725852
0.231561626749
0.231742205938
0.231625076811
0.231771376362
0.231650252354
0.231780953098
0.231654799676
0.231777204623
0.231646758647
0.231763738674
0.231628465457
0.231742090341
0.231600470709
0.231712305113
0.231561911281
0.231673315672
0.23151072407
0.231623057995
0.231443550111
0.231558577454
0.231355680883
0.231475556249
0.231240945427
0.23136837798
0.231091848271
0.231230192208
0.230899911021
0.231053776875
0.230656626052
0.230830967239
0.230353545055
0.230556281717
0.229984267642
0.230218518562
0.229542021419
0.229812356666
0.229023862549
0.229325477133
0.228427109096
0.228752129483
0.227753552104
0.228086929751
0.227007529092
0.227329310659
0.226192357844
0.226472095535
0.225308123979
0.225489705139
0.224335410872
0.224320845452
0.223233497169
)
;

boundaryField
{
    inletfuel
    {
        type            fixedValue;
        value           uniform 0;
    }
    inletair
    {
        type            fixedValue;
        value           uniform 0.232;
    }
    outlet
    {
        type            zeroGradient;
    }
    axis
    {
        type            empty;
    }
    leftside
    {
        type            zeroGradient;
    }
    burnerwall
    {
        type            zeroGradient;
    }
    front
    {
        type            wedge;
    }
    back
    {
        type            wedge;
    }
    procBoundary0to1
    {
        type            processor;
        value           nonuniform List<scalar> 
27
(
0.00207174943936
0.00221360197593
0.00253393098648
0.00301025511267
0.210081614087
0.211039786986
0.212912102822
0.215720711342
0.219266708047
0.222761036992
0.224800783188
0.00413548669187
0.00706684176269
0.0127235956311
0.0237647815151
0.0458455012537
0.0904097247696
0.132008493056
0.160146900125
0.176606449227
0.186655701471
0.193053853053
0.196071794767
0.210081614087
0.196741840035
0.222921508309
0.221961391104
)
;
    }
}


// ************************************************************************* //
