/*--------------------------------*- C++ -*----------------------------------*\
  =========                 |
  \\      /  F ield         | OpenFOAM: The Open Source CFD Toolbox
   \\    /   O peration     | Website:  https://openfoam.org
    \\  /    A nd           | Version:  7
     \\/     M anipulation  |
\*---------------------------------------------------------------------------*/
FoamFile
{
    version     2.0;
    format      ascii;
    class       volScalarField;
    location    "0.06";
    object      one_over_tauStar;
}
// * * * * * * * * * * * * * * * * * * * * * * * * * * * * * * * * * * * * * //

dimensions      [0 0 -1 0 0 0 0];

internalField   nonuniform List<scalar> 
814
(
815.85773169
1171.54231041
5301.37493317
1006.2151987
1391.50531342
5303.5305544
1103.4065426
1537.08816177
5306.3500305
1307.33066303
2073.62015028
6645.19629835
1589.32816502
2651.33780748
6471.82120937
1915.15118904
3120.28457059
5967.9997949
2229.6507332
3442.5243173
5475.63214469
2486.07822676
3606.47776834
5021.3074818
2665.99301192
3636.85315264
4609.5681875
2760.29737515
3558.00798979
4227.34049174
2766.72240033
3392.41208491
3858.81530093
2691.71046299
3161.73682407
3491.23341293
2549.01186922
2887.54478102
3121.17106892
2355.31868308
2589.34991129
2751.93862425
2127.38919324
2283.21495859
2392.58261407
1883.72625342
1984.47960451
2056.10986779
1646.04110305
1711.08554838
1758.66239723
1436.67030109
1480.48839415
1514.71352065
1268.26517418
1300.9210281
1328.27570156
1141.91298312
1167.8489099
1190.89873776
1047.03753947
1067.82119768
1085.66446464
971.857264434
987.727773872
999.608603685
906.96790656
918.652409846
925.803048034
848.314111353
856.73115283
861.182651957
792.472180301
798.83368468
802.355073658
738.98985277
743.785359441
747.200060049
688.203993581
692.110559947
695.732405949
641.627984093
644.919688274
648.793830154
599.693606364
602.351022929
605.879254817
552.169663239
553.883369462
555.996335104
478.709876803
478.827246395
477.837502848
377.999087153
376.846492064
373.590820423
957.547700951
4741.68146346
5031.73878019
4928.78185505
4705.52499356
4427.49224216
4119.79874869
3790.19035385
3442.71579534
3083.21673681
2718.45410288
2359.65157485
2022.862769
1727.36274847
1487.83992662
1306.93175775
1173.50816774
1067.85227747
981.121113919
908.195647096
846.623067195
792.144491537
741.418596782
693.473483529
649.066066475
607.235635571
556.429895701
474.691703433
368.262822869
55.1303686239
16.9207567412
14.2667703917
13.5157369938
12.4224448177
11.3581142891
10.1614424603
9.02594260492
8.0112862487
7.12832418621
6.39039730333
5.77850223969
5.28306294845
4.89384385943
4.59879542858
4.37766300186
4.23127968732
4.13066643667
4.28999410055
14.5635321782
56.7460299608
29.9441164152
24.2103784965
20.5731347561
17.2747819301
14.6014539833
12.3336592173
10.4827162544
9.01025214676
7.82927155452
6.898339632
6.15302979332
5.5617691176
5.09923972326
4.74604068277
4.48010952849
4.29754759582
4.17906202785
4.48001531582
14.7666292084
67.6191943346
47.3664531771
34.8732290927
28.2803622838
22.0402679751
17.6595408126
14.16642964
11.5298676288
9.60648735314
8.17224695702
7.10646770073
6.28840569977
5.65357552274
5.16618580315
4.79320756443
4.51824828907
4.32312838983
4.20891542632
4.59578207246
14.9618660421
614.226248773
387.367238637
115.933259574
48.9939066895
32.8847888256
23.2864959439
17.4167054094
13.2207752081
10.474595847
8.59275204238
7.31916938612
6.40450809568
5.72249973471
5.21332160062
4.82536414014
4.54663196411
4.34309862179
4.23954464918
4.66083041724
16.7525941346
2940.77753679
2156.19319831
1464.84240755
520.476472481
125.105474114
44.2346568296
24.6781620113
16.4246444233
11.9692650098
9.24707051761
7.61422986823
6.54423783675
5.79684000232
5.25835980778
4.85501594235
4.57056888003
4.36099866302
4.2644290805
4.72833741464
18.6637183092
3230.58862526
2174.00804241
1602.33186009
735.940888607
176.159706627
61.9889032785
33.3005817411
21.1122737993
14.2577123584
10.2722928348
8.06918824704
6.7483883227
5.89836713499
5.31405573825
4.89001733003
4.59551435276
4.38047377167
4.28638660612
4.84271671417
20.5811523866
3067.82373539
1992.30340423
1520.04833751
712.705466082
185.708856972
75.3954911695
43.1713369448
27.0335743253
17.2344824061
11.6860818198
8.71986864849
7.04556707802
6.04221340637
5.38955107979
4.93544797679
4.62627664242
4.40455603977
4.31312421182
4.99714466591
21.9524476263
3026.23110516
1995.35511969
1462.77605964
631.256143542
186.229835236
89.0158989271
54.1824734797
33.5315901932
20.5867431574
13.4017766605
9.56629590265
7.45299441536
6.23881946283
5.49010852873
4.99326008436
4.6644130718
4.43376539151
4.34744317781
5.17530644826
22.8249212758
3011.91653059
1998.91346269
1409.79701267
589.50417426
198.392978928
105.874698329
66.0035145437
40.119603526
24.0865043993
15.350630948
10.6093972792
7.98512707914
6.49916895759
5.62060863133
5.06467293721
4.70963638676
4.46720978747
4.38786098008
5.36508626013
23.3273063698
2937.387926
1975.70196998
1368.15625308
585.273206567
224.744297273
126.116216365
78.1426285869
46.6234265108
27.7535969566
17.5280874351
11.8566293542
8.65679742226
6.83743666917
5.78863949573
5.15269240777
4.76241395191
4.50455389182
4.43317443167
5.5629856359
23.5795690398
2800.32310465
1934.98204997
1332.44452202
609.440077749
260.5549257
149.419844597
90.7530218922
53.4068849794
31.7359810579
19.9438021767
13.3107687977
9.4790224864
7.26779014617
6.00380380924
5.2622475859
4.82463726864
4.54654331945
4.48373858794
5.77330037616
23.6338075625
2615.06205628
1862.44395496
1300.50013237
606.990188716
293.342186233
175.569740445
104.934140607
61.160735741
36.2140946371
22.6327774277
14.9634251014
10.452015189
7.79973726083
6.2756887127
5.39907198633
4.89898469734
4.59453887038
4.54035792184
5.99515268671
23.5293430469
2389.04184557
1733.46561505
1201.36892171
565.740491546
314.21940352
203.598531291
122.049723129
70.6641291581
41.4149706406
25.6271650242
16.8008822351
11.5688899085
8.43739900105
6.61226364122
5.56879403832
4.98841978158
4.65013337444
4.60367226445
6.22190375333
23.3070930202
2138.27822007
1559.73231536
1029.29014863
504.903303176
329.181264231
231.95103072
143.126707737
82.6612145112
47.6197202886
29.0125585873
18.8104105148
12.8220017878
9.17931371658
7.01803729375
5.77633245378
5.09603360605
4.7151270071
4.67428765227
6.44471146474
23.0030973133
1878.00042054
1358.65839326
840.076818236
458.367898036
340.88264732
257.376288326
167.244288885
97.461321568
55.1694982277
32.9027031965
21.0355775968
14.2043748106
10.0182445158
7.49366135174
6.02546847174
5.22486922814
4.79158078766
4.75300781543
6.65725772793
22.6431540172
1628.97664298
1159.01016672
695.898152965
435.105304183
351.100182792
277.041940143
189.906025821
113.961274115
64.23495512
37.4906189825
23.5537771584
15.7174111182
10.9471973741
8.03635806638
6.3182810055
5.37775315306
4.88187317678
4.84097177862
6.85627978733
22.2477749359
1415.26462401
998.329652506
617.85866257
427.037521466
357.600904962
288.64968371
204.571393406
128.961293334
74.5755703532
43.069424948
26.5275431428
17.4208569825
11.9744233189
8.64327381927
6.65485730178
5.55721628592
4.98879105047
4.93991248472
7.04075144341
21.8292265504
1248.85471602
886.215599942
579.077216103
426.738040097
358.502847691
292.847437087
210.214033698
140.050035529
86.0955243021
50.4033792347
30.4159522271
19.4957570348
13.1453122354
9.32127654226
7.03626451792
5.76615367762
5.11594621098
5.05278922909
7.21237036699
21.3954243337
1125.3477817
812.411390883
563.889882843
431.559859596
356.651862546
292.234199174
211.0232744
148.645189058
100.317354762
61.5255271871
36.458297837
22.429098759
14.6159842514
10.1091144255
7.47055668177
6.00895060761
5.26863535383
5.18470785239
7.37728065424
20.9557294679
1028.42140372
763.813615686
555.968606802
434.305871061
355.317650658
289.963199725
213.449197288
158.786058668
119.400602314
80.3286276273
47.6275815102
27.5241759181
16.7850556247
11.1064991184
7.98093652622
6.29570161066
5.45579202487
5.34489620093
7.54790864479
20.5235813749
948.508893784
729.460384873
551.513253054
439.044801315
358.89112425
286.993577591
218.696631898
170.568059789
140.292469871
106.812936312
68.0433442337
37.4568353029
20.5589274656
12.5377495014
8.61837278731
6.64500537339
5.69150337915
5.54865224783
7.74683621501
20.1181420348
884.639127447
703.515780173
549.960654962
445.580227937
365.078249513
287.242889695
223.757045594
182.837660672
159.242249129
133.433555242
97.2334388773
55.8756383674
27.6338104195
14.8036880667
9.46636857533
7.08560231909
6.00091892421
5.82252983355
8.00798460897
19.7651241591
831.862281742
682.91471859
550.853175404
454.526729114
374.818670805
295.223953404
228.515302693
192.674346719
174.404467783
154.399639086
125.650884114
82.118162411
39.7393615536
18.3658661172
10.6119433585
7.6521562591
6.4186981926
6.20693062387
8.38115688766
19.4890228069
788.010897111
666.992311654
554.325788053
466.208651038
387.576851452
305.407132046
235.25329018
197.809264984
186.519556241
171.213346609
146.906904821
108.855848632
56.4779677182
23.3471909937
12.0873150035
8.3875256968
7.00238173021
6.76627282757
8.93354727891
19.3204797778
749.549460371
653.48076842
558.576819771
478.9030201
402.06946092
318.383765541
244.218117268
203.7208542
192.678571076
184.182923181
162.028017249
129.374693708
73.8154292482
28.7321623207
13.7290711414
9.34447862417
7.83955412866
7.59147692493
9.74632026642
19.2969194509
713.47685393
640.953965955
563.379016492
491.971061513
416.394291686
331.970518046
259.281467612
213.644615381
197.117626629
192.505005097
172.187252891
142.056085252
86.6125611036
33.0877107291
15.4113486001
10.6447758144
9.08610310065
8.81963152913
10.9046533449
19.4495454147
676.979285557
626.333887287
565.589864916
501.444518211
428.614604918
348.924154367
276.045778112
224.187174207
202.171864948
196.475805913
175.505370681
146.465748829
92.3920108075
35.9310353982
17.3716579637
12.5876080328
11.0252894861
10.6563735868
12.4783230495
19.8110003073
640.631954761
606.39018896
558.465510561
499.574495893
429.421750657
352.102914124
280.891980534
228.366132631
204.128129695
195.557737492
173.580994646
143.698232617
87.8709333138
35.9202787587
19.8646294839
15.6137534897
14.083777418
13.392505286
14.5484111708
20.4452486636
603.009701232
577.825638319
535.884103973
478.276133906
405.219428858
330.145872161
265.350560188
219.434449737
196.882641668
185.104950125
163.048294903
130.929465495
73.5725366438
34.6738363959
23.6155903973
20.3687746989
18.7978676749
17.3827436747
17.2264334297
21.3943599015
551.244203068
525.457905259
480.073031902
414.02044134
343.392256356
281.060999987
232.75364752
198.581116753
179.844990695
166.754119669
145.564145631
108.203269687
58.6769774864
35.9308371159
29.6906021289
27.396989334
25.4954884134
22.9385317225
20.7476995717
22.7676615242
463.090357763
429.618612378
376.607732049
322.22682426
274.340487825
235.234625979
202.330041602
176.326536299
160.825954687
148.096495085
124.635999737
85.7548549073
53.7637207195
42.2399736008
38.7750297688
36.6663085071
33.9732806861
30.1083130336
25.5004714936
24.6924147256
354.479893264
325.458546555
295.549111259
265.214621798
237.422773086
214.050970853
186.496892312
158.761905025
143.264571736
127.662241509
101.777019104
73.470810648
58.2618096747
28.0806511861
56.4406896437
67.4380421953
56.4334033962
71.1195007249
56.4262555203
69.848807276
56.4237509603
66.8232305218
56.4235270105
63.1423704572
56.4239419318
59.52865774
56.4248662984
56.2028153318
56.4263464708
53.2419775527
56.4283586737
50.6556343661
56.4309320542
48.41190893
56.4341503557
46.4662083697
56.4381642489
44.768832062
56.4432190709
43.2826296293
56.4496257402
41.9841335049
56.4577459022
40.8576125021
56.4679810897
39.8918923789
56.4807169391
39.0822015979
56.4963033875
38.4198396062
56.5149211344
37.9456104793
56.5367760228
37.6536707206
56.5618652422
37.5701444647
56.5902034872
37.6673679995
56.6215748931
37.9060116893
56.655759826
38.2372765338
56.6924614496
38.6276707002
56.7320714575
39.1421940003
56.7750206783
39.7787645015
56.8237828287
)
;

boundaryField
{
    inletfuel
    {
        type            calculated;
        value           uniform 120.747670785;
    }
    inletair
    {
        type            calculated;
        value           uniform 4.0249223595;
    }
    outlet
    {
        type            calculated;
        value           nonuniform 0();
    }
    axis
    {
        type            empty;
    }
    leftside
    {
        type            calculated;
        value           nonuniform List<scalar> 
33
(
28.0806511861
56.4406896437
14.5635321782
14.7666292084
14.9618660421
56.4406896437
56.4334033962
56.4262555203
56.4237509603
56.4235270105
56.4239419318
56.4248662984
56.4263464708
56.4283586737
56.4309320542
56.4341503557
56.4381642489
56.4432190709
56.4496257402
56.4577459022
56.4679810897
56.4807169391
56.4963033875
56.5149211344
56.5367760228
56.5618652422
56.5902034872
56.6215748931
56.655759826
56.6924614496
56.7320714575
56.7750206783
56.8237828287
)
;
    }
    burnerwall
    {
        type            calculated;
        value           nonuniform List<scalar> 7(5301.37493317 5303.5305544 5306.3500305 55.1303686239 56.7460299608 67.6191943346 957.547700951);
    }
    front
    {
        type            wedge;
    }
    back
    {
        type            wedge;
    }
    procBoundary0to1
    {
        type            processor;
        value           nonuniform List<scalar> 
27
(
307.571166906
306.476911595
303.906486292
300.199424821
52.8485180211
50.0889602177
47.1228044011
43.4140749523
38.3939048895
31.7324202889
27.4367177171
292.125495897
278.136701508
262.133778438
245.719946251
229.285935661
209.404188863
178.553421363
148.646884225
127.950483403
110.031747394
90.7652002865
77.2460361157
52.8485180211
70.3416815198
40.5264060493
56.8796164704
)
;
    }
}


// ************************************************************************* //
