/*--------------------------------*- C++ -*----------------------------------*\
  =========                 |
  \\      /  F ield         | OpenFOAM: The Open Source CFD Toolbox
   \\    /   O peration     | Website:  https://openfoam.org
    \\  /    A nd           | Version:  7
     \\/     M anipulation  |
\*---------------------------------------------------------------------------*/
FoamFile
{
    version     2.0;
    format      ascii;
    class       volScalarField;
    location    "0.06";
    object      p;
}
// * * * * * * * * * * * * * * * * * * * * * * * * * * * * * * * * * * * * * //

dimensions      [1 -1 -2 0 0 0 0];

internalField   nonuniform List<scalar> 
814
(
97748.6943858
97739.9656583
97755.8731193
97724.2209444
97719.87328
97723.3052543
97708.4536555
97706.0310663
97708.2839007
97708.8710236
97707.3245497
97710.5688799
97725.1426621
97724.2821068
97723.3138016
97717.9574617
97717.5675706
97718.1119228
97717.8191821
97717.8967027
97718.1461784
97718.9427524
97718.8029094
97718.7396153
97718.0684123
97717.9443022
97717.8236113
97716.3259186
97716.2563214
97716.0577126
97714.5860055
97714.4995831
97714.3149064
97713.1098926
97712.9707593
97712.8219879
97712.5281278
97712.3661162
97712.2857819
97712.6156131
97712.4663025
97712.3956507
97712.6111316
97712.5122038
97712.4583564
97712.2087138
97712.1393468
97712.1138486
97711.3756612
97711.3284785
97711.3089682
97710.1879386
97710.1422622
97710.1252206
97708.6801436
97708.6625391
97708.6489119
97707.1670718
97707.1582661
97707.1521911
97705.6927268
97705.6830267
97705.6739494
97704.2728741
97704.2674535
97704.2488114
97702.8776862
97702.8736814
97702.8645156
97701.6211534
97701.6089328
97701.5949961
97700.5493875
97700.544888
97700.5279131
97699.7677003
97699.7505382
97699.7395092
97699.5395637
97699.5189853
97699.4986011
97699.9393414
97699.9147079
97699.9011699
97701.2904582
97701.2479353
97701.2282765
97703.1613581
97703.1187964
97703.1086893
97705.3179736
97705.2811257
97705.2665394
97707.3667109
97707.3545204
97707.3452341
97700.9078892
97724.6067833
97718.2605731
97718.244772
97718.5204753
97717.5944502
97715.8603532
97714.1746989
97712.7026326
97712.2130752
97712.3129829
97712.3847426
97712.060458
97711.26369
97710.0808278
97708.6134933
97707.135965
97705.6616612
97704.2283804
97702.8534314
97701.5694383
97700.511996
97699.716476
97699.4699807
97699.8784517
97701.1906785
97703.0939352
97705.2394711
97707.3292155
97723.7445624
97723.618576
97723.6427761
97723.5364065
97723.9945983
97725.1996196
97727.0039781
97728.1018723
97727.5202449
97726.3623744
97726.8637942
97728.3790711
97728.6487091
97728.4525744
97729.3424886
97730.4883254
97731.1823049
97732.0694873
97732.586821
97733.2172189
97725.2561196
97725.2811439
97726.8922064
97726.2107213
97724.6128433
97721.7943182
97721.5168253
97724.1497918
97727.0794333
97727.4963459
97726.9302447
97727.438345
97728.012185
97728.1879894
97728.9931172
97730.0719454
97730.7788166
97731.6425209
97732.104558
97732.6997294
97720.4045501
97722.6322404
97723.7610206
97725.2661591
97726.7164139
97723.9002515
97721.3238886
97722.5397535
97726.2070157
97727.4543869
97726.5583614
97726.6932624
97727.5681963
97727.9594494
97728.6697826
97729.705433
97730.4268819
97731.2699877
97731.6474212
97732.2661733
97718.5536438
97712.8392253
97721.1183935
97721.6477736
97726.4614545
97725.5606429
97722.109018
97721.6514436
97725.2733791
97727.0184033
97726.06686
97726.085593
97727.2126729
97727.7227876
97728.3408893
97729.3484969
97730.082987
97730.906636
97731.1911725
97731.862844
97721.13807
97718.4456208
97720.7708216
97717.7570828
97724.442173
97725.3507877
97722.8776051
97720.8243524
97724.1523928
97726.2466529
97725.4108951
97725.4805162
97726.8387868
97727.3950355
97727.9107743
97728.9019312
97729.6514646
97730.4480714
97730.7019664
97731.1951618
97718.1838568
97718.1577048
97718.9174028
97718.7267577
97722.7176532
97724.808266
97722.1141067
97719.6142691
97722.9554586
97725.3234779
97724.6799661
97724.9024228
97726.4266606
97726.952309
97727.3767265
97728.3682848
97729.1307761
97729.9025237
97730.1748191
97730.661095
97718.4099129
97719.067902
97718.9376102
97719.9326517
97722.2296221
97723.1931663
97719.9511628
97718.1382248
97721.9513989
97724.4420237
97723.9304969
97724.3289435
97725.9365237
97726.3744043
97726.7371739
97727.7439787
97728.5113853
97729.2605823
97729.5577085
97730.0935033
97718.4917168
97717.924638
97718.9938794
97718.8439234
97720.8125967
97719.8539713
97717.4041177
97716.935167
97721.379334
97723.6455109
97723.125746
97723.7026556
97725.3271111
97725.6506362
97725.9931227
97727.0229437
97727.7822151
97728.5083713
97728.8294454
97729.3965535
97717.5240662
97717.2169117
97717.9069109
97717.682001
97718.3338268
97716.6164352
97715.5123748
97716.5057124
97721.1574764
97722.7889084
97722.1751306
97722.9700924
97724.5743527
97724.7821305
97725.1461011
97726.1965136
97726.9313027
97727.6325909
97727.9699644
97728.5429499
97715.914852
97715.3118012
97716.3337947
97715.3062673
97715.7870575
97714.2299685
97714.6399583
97716.5958294
97720.8753989
97721.6293651
97721.0303463
97722.130042
97723.6745004
97723.7751691
97724.1950467
97725.2536537
97725.947899
97726.6219572
97726.9627307
97727.53191
97714.3499684
97713.5140079
97714.887601
97713.292203
97714.1694905
97712.9379249
97714.5337612
97716.6902644
97720.1244158
97720.1110119
97719.7896816
97721.2219811
97722.6275638
97722.6334026
97723.1341859
97724.1814978
97724.8220505
97725.465792
97725.7942354
97726.356708
97712.7434826
97712.2242943
97712.8707699
97712.1908823
97712.786472
97712.5320248
97714.4294553
97716.4537633
97718.8280796
97718.4211301
97718.5775691
97720.2468605
97721.4167128
97721.3560087
97721.9543768
97722.9662701
97723.5458142
97724.1544585
97724.4552817
97725.0146677
97712.1708067
97711.9591687
97712.3795934
97712.1087671
97712.3752632
97712.6693729
97714.2371916
97715.8702134
97717.2382444
97716.8243692
97717.4362301
97719.1487531
97720.0151047
97719.947512
97720.6468013
97721.5962491
97722.1128302
97722.6788803
97722.9409252
97723.5067806
97712.2012717
97712.0379604
97712.2550304
97712.2053547
97712.3883366
97712.7640627
97713.852844
97714.9742469
97715.6005223
97715.4027741
97716.2766013
97717.8514251
97718.4160461
97718.4234579
97719.2031828
97720.062242
97720.5181757
97721.0308721
97721.2531135
97721.8344911
97712.2333822
97712.0433839
97712.1763793
97712.1309546
97712.3040244
97712.6183846
97713.2036943
97713.8039545
97714.0277209
97714.0425101
97714.9998663
97716.314262
97716.6571161
97716.7997827
97717.6150768
97718.3599355
97718.7569574
97719.2041894
97719.4007831
97720.0005916
97711.8939075
97711.6833497
97711.6793786
97711.5107741
97711.7033544
97711.8967153
97712.1994299
97712.4455218
97712.4822463
97712.6679156
97713.5611232
97714.5830349
97714.811302
97715.0867672
97715.8766268
97716.4908261
97716.8254944
97717.1989677
97717.3999591
97718.0097018
97711.1007765
97710.8932586
97710.805343
97710.6647141
97710.6556166
97710.7206013
97710.8600552
97710.9250012
97710.8667473
97711.1930165
97711.9752304
97712.7244977
97712.9143532
97713.27123
97713.9869073
97714.4629396
97714.725577
97715.0283482
97715.2733795
97715.8662239
97709.9448146
97709.7490946
97709.6342637
97709.486931
97709.3253389
97709.2838413
97709.3610264
97709.3707123
97709.3843784
97709.7067663
97710.2968769
97710.8101277
97710.9752463
97711.3542729
97711.9562432
97712.2932059
97712.475824
97712.7254899
97713.0450626
97713.5756351
97708.5098703
97708.4009584
97708.1887977
97708.0458248
97707.7798122
97707.9002898
97707.6973325
97707.7918155
97707.7410785
97708.1165831
97708.5840611
97708.8452614
97709.0025573
97709.3544967
97709.8085982
97710.0138886
97710.1220166
97710.3413714
97710.7340262
97711.1518862
97707.0649065
97706.9618887
97706.7864418
97706.6329126
97706.4650347
97706.2292225
97706.2377855
97706.0952939
97706.1730942
97706.3897973
97706.6979435
97706.904067
97706.9853554
97707.3088327
97707.6082667
97707.6853839
97707.7367404
97707.9291139
97708.3502285
97708.622038
97705.6068366
97705.5117257
97705.3776994
97705.2531143
97705.1013697
97704.9070394
97704.872759
97704.7896799
97704.8578619
97704.9038906
97705.0510471
97705.0528665
97705.0656584
97705.2879743
97705.4353392
97705.3948748
97705.3958935
97705.5352588
97705.9082302
97706.0297673
97704.1559932
97704.0586241
97703.9302763
97703.7937865
97703.6089634
97703.4366778
97703.3447871
97703.212894
97703.2507926
97703.2451098
97703.242983
97703.3082462
97703.1996929
97703.3658268
97703.3616168
97703.2347501
97703.1345228
97703.1910373
97703.4435083
97703.4464877
97702.8126801
97702.7346901
97702.6556449
97702.5645373
97702.4689474
97702.3803088
97702.2662721
97702.2649425
97702.1399113
97702.1333413
97702.0061167
97701.8346119
97701.7542683
97701.6109291
97701.5025889
97701.2267429
97701.0151376
97700.9327572
97701.0322253
97700.9881724
97701.5237199
97701.4326208
97701.3590837
97701.2482398
97701.1550274
97701.0817571
97700.9960259
97700.6285709
97701.1019903
97700.7678525
97700.9165664
97700.7475842
97700.3442036
97700.2018128
97699.8507294
97699.4318446
97699.0715959
97698.8538229
97698.7902799
97698.7256763
97700.4749707
97700.4124431
97700.372312
97700.3335708
97700.2958655
97700.2906648
97700.2040804
97700.4830807
97699.978239
97700.3617552
97700.0078308
97699.9323787
97699.5487528
97698.9526
97698.5585546
97697.8635735
97697.3776001
97697.0387257
97696.8500697
97696.7814387
97699.6944539
97699.6337278
97699.596442
97699.5708961
97699.5523858
97699.6166689
97699.6442675
97699.7366605
97699.6920399
97699.653243
97699.5678146
97699.3920554
97698.9277572
97698.2398341
97697.5632101
97696.7677399
97696.1310941
97695.6620786
97695.3470985
97695.2245297
97699.4162847
97699.3488855
97699.293773
97699.2723267
97699.281861
97699.3558182
97699.4296282
97699.4854015
97699.4880813
97699.4586158
97699.3720825
97699.1434911
97698.6371053
97697.8981549
97696.9933102
97696.0682235
97695.2687027
97694.6778182
97694.2687628
97694.1144093
97699.8236026
97699.7521252
97699.6842554
97699.6261302
97699.6152726
97699.6061839
97699.6426823
97699.6539304
97699.610242
97699.437606
97699.4729184
97699.087571
97698.6866334
97697.7710758
97696.867084
97695.9019209
97695.0901996
97694.4716285
97693.9848102
97693.7635537
97701.1265923
97701.035294
97700.9213936
97700.8211638
97700.6811795
97700.5682725
97700.5020069
97700.3763619
97700.0643934
97700.0097473
97699.7401489
97699.5537686
97699.0565818
97698.523543
97697.5959251
97696.6297952
97695.6854371
97694.8642822
97694.1986562
97693.8256886
97703.0473317
97702.9368931
97702.7766225
97702.5021187
97702.228164
97701.9720534
97701.5897119
97701.1713247
97701.0686844
97700.7279819
97700.8165472
97700.4947318
97700.2279976
97699.4919482
97698.6565976
97697.9328841
97696.9693999
97696.1957008
97695.4704839
97695.1056231
97705.1948406
97705.0817901
97704.8133292
97704.5348145
97704.2395855
97703.9316084
97703.4967034
97703.7935248
97702.1785434
97702.815761
97702.2628322
97702.4885199
97701.8688586
97701.6363773
97701.2638517
97700.4086421
97699.5536084
97698.4946923
97697.5883338
97696.8648357
97707.2786028
97707.1342524
97706.9679861
97706.6960473
97706.5420094
97705.7868557
97705.6674759
97705.3359373
97705.6610011
97705.2766799
97705.5218805
97704.9980339
97704.7010255
97730.0510445
97730.273284
97729.7619454
97730.0003867
97730.0267716
97730.1079266
97729.8422379
97729.9251418
97729.3873993
97729.4592392
97728.6483964
97728.7161326
97727.6894409
97727.7499042
97726.5274575
97726.5801342
97725.1837124
97725.2284158
97723.6693447
97723.7090477
97721.987687
97722.0259148
97720.1463926
97720.1824943
97718.142446
97718.1758339
97715.9748723
97716.003807
97713.6462174
97713.6681215
97711.1737483
97711.1870552
97708.5927305
97708.5970379
97705.9701466
97705.9684559
97703.3783265
97703.3730537
97700.9355899
97700.9327088
97698.6865133
97698.6859413
97696.7590938
97696.7617526
97695.2127215
97695.217494
97694.0888476
97694.0932879
97693.7167863
97693.7234955
97693.7258154
97693.7311896
97694.9864975
97694.9917488
97696.6255444
97696.6244426
)
;

boundaryField
{
    inletfuel
    {
        type            zeroGradient;
    }
    inletair
    {
        type            zeroGradient;
    }
    outlet
    {
        type            fixedValue;
        value           nonuniform 0();
    }
    axis
    {
        type            empty;
    }
    leftside
    {
        type            zeroGradient;
    }
    burnerwall
    {
        type            zeroGradient;
    }
    front
    {
        type            wedge;
    }
    back
    {
        type            wedge;
    }
    procBoundary0to1
    {
        type            processor;
        value           nonuniform List<scalar> 
27
(
97710.2708575
97710.2722445
97710.2602875
97710.242528
97704.2039184
97703.6614609
97703.080494
97702.7906732
97701.624053
97700.493439
97699.8358248
97710.201067
97710.1225391
97710.0260925
97709.9050827
97709.8025258
97709.7119185
97709.5506867
97709.3510066
97709.0929642
97709.0798007
97708.6911192
97708.5638275
97704.2039184
97708.22633
97699.6098493
97699.6070319
)
;
    }
}


// ************************************************************************* //
