/*--------------------------------*- C++ -*----------------------------------*\
  =========                 |
  \\      /  F ield         | OpenFOAM: The Open Source CFD Toolbox
   \\    /   O peration     | Website:  https://openfoam.org
    \\  /    A nd           | Version:  7
     \\/     M anipulation  |
\*---------------------------------------------------------------------------*/
FoamFile
{
    version     2.0;
    format      ascii;
    class       volScalarField;
    location    "0.06";
    object      PaSR<psiReactionThermo>:kappa;
}
// * * * * * * * * * * * * * * * * * * * * * * * * * * * * * * * * * * * * * //

dimensions      [0 0 0 0 0 0 0];

internalField   nonuniform List<scalar> 
814
(
5.77047358305e-12
8.06487205108e-12
2.61523472801e-11
7.05105743655e-12
9.45526306181e-12
2.50053675692e-11
7.69922258353e-12
1.03996103898e-11
2.45788903457e-11
9.03035568426e-12
1.39146149352e-11
3.70796447691e-11
1.08982231405e-11
1.77663691948e-11
3.93160059315e-11
1.30523954451e-11
2.09392111487e-11
3.77899195643e-11
1.5145844566e-11
2.32047821717e-11
3.56904098323e-11
1.68958819868e-11
2.44595439638e-11
3.34428328425e-11
1.8184934864e-11
2.48420077238e-11
3.12040594891e-11
1.8941774268e-11
2.4484181992e-11
2.89573416502e-11
1.91173050854e-11
2.34991144766e-11
2.6643853483e-11
1.87119317135e-11
2.20053660297e-11
2.42141109758e-11
1.7784479811e-11
2.01410888073e-11
2.1673384066e-11
1.64394959562e-11
1.80448884708e-11
1.90666657968e-11
1.47993459916e-11
1.58427145761e-11
1.64789547065e-11
1.3013066681e-11
1.3662333774e-11
1.40275287828e-11
1.12627602259e-11
1.16610776793e-11
1.18615531832e-11
9.73318530102e-12
9.98744830563e-12
1.01079539841e-11
8.52465084158e-12
8.70678430945e-12
8.79803095374e-12
7.63410957686e-12
7.77795664258e-12
7.85698097622e-12
6.98434805593e-12
7.09821932408e-12
7.15780515904e-12
6.48215368021e-12
6.56988014754e-12
6.60428840209e-12
6.06582536598e-12
6.13008663212e-12
6.14664997316e-12
5.69458860663e-12
5.74343730349e-12
5.75421340036e-12
5.35101023176e-12
5.38869961277e-12
5.40242920296e-12
5.01591443187e-12
5.04754512614e-12
5.06648740068e-12
4.70015526924e-12
4.72556606733e-12
4.74934726247e-12
4.40054378049e-12
4.4238284527e-12
4.45011568602e-12
4.12268939349e-12
4.14005892023e-12
4.16388824808e-12
3.77320887347e-12
3.78481210133e-12
3.79746019225e-12
3.21077499245e-12
3.2095313467e-12
3.20009237902e-12
2.46245001513e-12
2.45478765041e-12
2.43173242108e-12
6.43797206715e-12
2.724205613e-11
3.011219086e-11
3.08944820711e-11
3.05486190126e-11
2.94516203268e-11
2.78457256975e-11
2.58653014762e-11
2.36052228175e-11
2.11513829695e-11
1.8581461587e-11
1.60009797239e-11
1.35573544354e-11
1.14286827884e-11
9.74188749204e-12
8.50712577293e-12
7.62587903017e-12
6.95019519409e-12
6.41728448947e-12
5.98551306561e-12
5.6303676387e-12
5.31878176898e-12
5.02122855e-12
4.73105925177e-12
4.45122878764e-12
4.17130262314e-12
3.79784708799e-12
3.17416691172e-12
2.39477075948e-12
3.21275958243e-13
1.18832152558e-13
1.01570878065e-13
9.66452850505e-14
8.90769135895e-14
8.16436245409e-14
7.31991093864e-14
6.5149403229e-14
5.79228188445e-14
5.16080607692e-14
4.6310462256e-14
4.19015316304e-14
3.83190613782e-14
3.54946233197e-14
3.33461121405e-14
3.17291369163e-14
3.0655167587e-14
2.99116884943e-14
3.10239935984e-14
1.00026728372e-13
3.44797951591e-13
2.0742023484e-13
1.71866076048e-13
1.47205035107e-13
1.24191428427e-13
1.05296721647e-13
8.91346815831e-14
7.58887252582e-14
6.53168718657e-14
5.68106287498e-14
5.00882602788e-14
4.46906092644e-14
4.03969453614e-14
3.70275745481e-14
3.44473188237e-14
3.24971517418e-14
3.11547452176e-14
3.02759472004e-14
3.23874890296e-14
1.01554265884e-13
4.31066310341e-13
3.25264712197e-13
2.44969704524e-13
2.01961442421e-13
1.58366307411e-13
1.27451053328e-13
1.02495800234e-13
8.35719195047e-14
6.97191911476e-14
5.93581113791e-14
5.1641930631e-14
4.5704638075e-14
4.1086304997e-14
3.75308158022e-14
3.48026340726e-14
3.27844714576e-14
3.13483303516e-14
3.04993027303e-14
3.32165416123e-14
1.02991279917e-13
3.85099287697e-12
1.78899011876e-12
7.19530834837e-13
3.43007208278e-13
2.34554341828e-13
1.67652308009e-13
1.25915829957e-13
9.58311206435e-14
7.60533512709e-14
6.24478908274e-14
5.32165497597e-14
4.65701521232e-14
4.16030852572e-14
3.78855356443e-14
3.50454879679e-14
3.29987007285e-14
3.14995777369e-14
3.07278997955e-14
3.36821556187e-14
1.16126661305e-13
9.30307456972e-12
3.65549817142e-12
2.0291037825e-12
1.67467364245e-12
7.85911434324e-13
3.114824052e-13
1.77420907763e-13
1.18795199492e-13
8.68501073077e-14
6.72065596018e-14
5.5379277867e-14
4.76030305329e-14
4.21571455452e-14
3.82237136643e-14
3.52694465612e-14
3.31800392634e-14
3.1635621643e-14
3.09141862451e-14
3.41670550989e-14
1.29633362923e-13
1.27530401255e-11
4.68303545076e-12
2.02164110607e-12
1.71306295739e-12
9.98025316304e-13
4.2597646981e-13
2.37011597617e-13
1.51986449322e-13
1.03250038294e-13
7.46141731129e-14
5.86916349256e-14
4.9101184929e-14
4.29086312676e-14
3.86395688933e-14
3.55327266655e-14
3.33688885763e-14
3.17835729776e-14
3.10787248841e-14
3.49883171329e-14
1.43337976584e-13
1.51544006696e-11
4.57766921146e-12
1.9932304806e-12
1.61719241094e-12
9.96035530705e-13
5.03030920983e-13
3.02578164056e-13
1.93147535711e-13
1.24408471789e-13
8.47817043566e-14
6.34089120459e-14
5.12716261303e-14
4.3967849078e-14
3.92002439271e-14
3.58727769233e-14
3.36007386209e-14
3.19657877666e-14
3.12783672058e-14
3.60960886175e-14
1.53242400234e-13
1.70328209466e-11
5.4747193346e-12
2.0131985462e-12
1.50195177192e-12
9.48334302247e-13
5.68250147159e-13
3.70950441584e-13
2.37100024728e-13
1.47978131476e-13
9.70589785454e-14
6.95230474679e-14
5.42362912714e-14
4.54094477178e-14
3.994376479e-14
3.63037576274e-14
3.38870391977e-14
3.21860307984e-14
3.15338597848e-14
3.73739212549e-14
1.595919459e-13
1.82736109872e-11
6.38686862058e-12
2.02777861989e-12
1.40005757534e-12
9.21127980821e-13
6.30482753569e-13
4.36778999428e-13
2.79958061812e-13
1.72185697911e-13
1.10917840737e-13
7.70289224918e-14
5.8095331889e-14
4.73110555375e-14
4.09047123106e-14
3.68341483035e-14
3.4225521386e-14
3.24376105585e-14
3.18342008324e-14
3.8735187556e-14
1.63309778652e-13
1.85453384036e-11
7.10578647146e-12
2.05833626903e-12
1.32287317855e-12
9.10856830276e-13
6.80871678593e-13
4.94028458583e-13
3.19869622116e-13
1.9705266584e-13
1.26271758358e-13
8.5964476005e-14
6.29504989618e-14
4.97732241428e-14
4.21371552784e-14
3.7485376195e-14
3.46193714373e-14
3.27179306542e-14
3.21703193906e-14
4.015351196e-14
1.65261374565e-13
1.80173320275e-11
7.65212301105e-12
2.10230583004e-12
1.29160898647e-12
9.10098315646e-13
7.16466122488e-13
5.41551804974e-13
3.58413482264e-13
2.23382907023e-13
1.43097738269e-13
9.63298593014e-14
6.8874580162e-14
5.28962551422e-14
4.37097642462e-14
3.82928816722e-14
3.50822204734e-14
3.3032368728e-14
3.25446377384e-14
4.16583046362e-14
1.65801799927e-13
1.69489927601e-11
7.826276044e-12
2.29309698259e-12
1.27268665658e-12
9.16729100025e-13
7.4532020551e-13
5.83075004167e-13
3.9831628307e-13
2.51898890583e-13
1.61551908603e-13
1.08032334056e-13
7.58597018049e-14
5.674600575e-14
4.56909622948e-14
3.9297883633e-14
3.56334255723e-14
3.3390825342e-14
3.29629847057e-14
4.32436259627e-14
1.65198185649e-13
1.54686611121e-11
7.58754863087e-12
2.42990932454e-12
1.26079439653e-12
9.38645589752e-13
7.78511821204e-13
6.22545225997e-13
4.41328154298e-13
2.83352515995e-13
1.81684339091e-13
1.20929641217e-13
8.38432258192e-14
6.13482770456e-14
4.81371879448e-14
4.05406971281e-14
3.62943475159e-14
3.38048505897e-14
3.3430008943e-14
4.48633508406e-14
1.63742469288e-13
1.3734498333e-11
6.91896552851e-12
2.3787087919e-12
1.24586930298e-12
9.87646271319e-13
8.25913931085e-13
6.64380823197e-13
4.87619472046e-13
3.183658369e-13
2.03859108861e-13
1.34851559952e-13
9.27540038059e-14
6.66873055119e-14
5.10794400884e-14
4.20563687787e-14
3.7087170144e-14
3.42874289512e-14
3.39500627464e-14
4.64556838506e-14
1.61696731545e-13
1.18998092642e-11
6.08355404957e-12
2.27299820285e-12
1.24574031972e-12
1.06123553713e-12
8.92927770956e-13
7.14620720487e-13
5.36151080225e-13
3.57389634777e-13
2.28404525797e-13
1.50034898426e-13
1.02516772653e-13
7.27040408434e-14
5.4520447057e-14
4.38716338168e-14
3.80336432021e-14
3.48533399019e-14
3.45288480219e-14
4.79762884451e-14
1.59247582265e-13
1.0164968326e-11
5.32741239766e-12
2.24217873947e-12
1.27863789123e-12
1.15256808375e-12
9.80140493814e-13
7.78734768163e-13
5.85577824644e-13
3.9977699163e-13
2.56056515547e-13
1.66902351673e-13
1.13101475321e-13
7.93390873025e-14
5.843764717e-14
4.60007867381e-14
3.9153839392e-14
3.55195224151e-14
3.51743549171e-14
4.94019449225e-14
1.56540131707e-13
8.73730663417e-12
4.82575539422e-12
2.33985995223e-12
1.44220933697e-12
1.24582709011e-12
1.07694375516e-12
8.53302226348e-13
6.34801365339e-13
4.43964498414e-13
2.87964858591e-13
1.86340444966e-13
1.24889861411e-13
8.66389514713e-14
6.28069796653e-14
4.84433960044e-14
4.04655141404e-14
3.63056319574e-14
3.58986037441e-14
5.07245961877e-14
1.53658881907e-13
7.69261895641e-12
4.55133229304e-12
2.50480457523e-12
1.65059876045e-12
1.3126296343e-12
1.17017702309e-12
9.31903605488e-13
6.87468000186e-13
4.92056657135e-13
3.27790328967e-13
2.11061885065e-13
1.39057249752e-13
9.49054034967e-14
6.76723901922e-14
5.12054969084e-14
4.19887079716e-14
3.72369158302e-14
3.6722035565e-14
5.19545275304e-14
1.50655749785e-13
6.96537048676e-12
4.40697240649e-12
2.69572630402e-12
1.85578766489e-12
1.3686259673e-12
1.24538622095e-12
1.00772520425e-12
7.53362534946e-13
5.57021204341e-13
3.85619315822e-13
2.48232926265e-13
1.58751962651e-13
1.05198756202e-13
7.33026665943e-14
5.43424276911e-14
4.37535727009e-14
3.83502232541e-14
3.76798840781e-14
5.31322125342e-14
1.47590028381e-13
6.41414859386e-12
4.33236414609e-12
2.86267656632e-12
2.02791717879e-12
1.48250810245e-12
1.28861560955e-12
1.07924494604e-12
8.41288885495e-13
6.5746306634e-13
4.80620125876e-13
3.13780523637e-13
1.9214942298e-13
1.20206724217e-13
8.03897606557e-14
5.80163858507e-14
4.58306220634e-14
3.97078525875e-14
3.88361194174e-14
5.43411591843e-14
1.44549173991e-13
5.97730602757e-12
4.29899084315e-12
3.01820778036e-12
2.20815070979e-12
1.63773957786e-12
1.31878975118e-12
1.13560218712e-12
9.36208620881e-13
7.83980541102e-13
6.1675418734e-13
4.25774189894e-13
2.54593482036e-13
1.4587703261e-13
9.04812447005e-14
6.25844673677e-14
4.83502372136e-14
4.14078714545e-14
4.02967454847e-14
5.57344951338e-14
1.41660003476e-13
5.65047242388e-12
4.28809706628e-12
3.16906574933e-12
2.39257764827e-12
1.79642210158e-12
1.35039659157e-12
1.16774363823e-12
1.01923271264e-12
9.08601178258e-13
7.67829202016e-13
5.7861982965e-13
3.62501536665e-13
1.92635395781e-13
1.06279169697e-13
6.86290277013e-14
5.15133472794e-14
4.36262237479e-14
4.22462429786e-14
5.75427261066e-14
1.39099600459e-13
5.39266957798e-12
4.2881699468e-12
3.31931743911e-12
2.59021579566e-12
1.98599515701e-12
1.48525136599e-12
1.18490728595e-12
1.07104140051e-12
1.00601086619e-12
9.0121850948e-13
7.34962755188e-13
5.04607706133e-13
2.6866977768e-13
1.30729357148e-13
7.67401620143e-14
5.55581035467e-14
4.66024873261e-14
4.49631998965e-14
6.01028397381e-14
1.37040376387e-13
5.185671782e-12
4.29815263908e-12
3.46955059138e-12
2.79750072736e-12
2.19391593574e-12
1.64701313404e-12
1.26824930441e-12
1.0888238745e-12
1.07190580817e-12
1.01107237104e-12
8.66825079298e-13
6.46483489057e-13
3.66730637717e-13
1.64141716667e-13
8.7102523723e-14
6.07734390666e-14
5.07318744527e-14
4.88879781967e-14
6.38655762085e-14
1.35706839927e-13
5.00134990097e-12
4.30275089094e-12
3.60450466255e-12
2.99676306669e-12
2.40630667778e-12
1.82730694375e-12
1.38874469214e-12
1.15847873211e-12
1.098785957e-12
1.09031985089e-12
9.68606785942e-13
7.62655073508e-13
4.61886738206e-13
1.99250880278e-13
9.85025769505e-14
6.75026348657e-14
5.66027738516e-14
5.46264500866e-14
6.93624189332e-14
1.35373883543e-13
4.81649279734e-12
4.29207448126e-12
3.72117824004e-12
3.17823678089e-12
2.60181926904e-12
2.00352666742e-12
1.54066010505e-12
1.25727524508e-12
1.14349264958e-12
1.14113407917e-12
1.039068416e-12
8.40371918607e-13
5.29538645921e-13
2.26804569522e-13
1.1002343371e-13
7.65337858909e-14
6.52388914875e-14
6.30641037315e-14
7.71305838836e-14
1.36267791886e-13
4.61098740948e-12
4.24410212271e-12
3.79443054088e-12
3.30792726807e-12
2.75807546832e-12
2.18536132845e-12
1.69138621133e-12
1.34898392921e-12
1.19537021372e-12
1.16971824899e-12
1.06252393583e-12
8.68127920629e-13
5.59732771659e-13
2.44290808763e-13
1.23197956058e-13
8.98046352369e-14
7.8440257723e-14
7.54696902956e-14
8.7578906072e-14
1.38607925283e-13
4.38895281996e-12
4.13782745059e-12
3.77953911069e-12
3.33406526374e-12
2.80846430452e-12
2.24628849098e-12
1.74392681347e-12
1.38200983294e-12
1.20955828643e-12
1.16712010449e-12
1.04762714804e-12
8.47509892483e-13
5.34094513562e-13
2.43443766953e-13
1.39474912517e-13
1.09918896561e-13
9.86995452703e-14
9.35143773948e-14
1.01170201594e-13
1.42801354427e-13
4.13719515666e-12
3.94769424925e-12
3.63066132039e-12
3.19547783445e-12
2.65050437095e-12
2.09994286969e-12
1.6345632578e-12
1.3098169843e-12
1.15109874773e-12
1.10328956465e-12
9.7331299607e-13
7.62392394152e-13
4.5402458951e-13
2.34177750994e-13
1.62983292737e-13
1.40202047599e-13
1.28676373921e-13
1.19000100121e-13
1.1851072379e-13
1.49065712427e-13
3.75451787222e-12
3.55761412884e-12
3.21529730683e-12
2.7239662802e-12
2.20561745952e-12
1.7524661706e-12
1.40132305864e-12
1.15644575776e-12
1.05290112506e-12
9.85220214299e-13
8.48135949707e-13
6.24008307177e-13
3.68380080845e-13
2.39203261707e-13
1.9896576729e-13
1.82314189707e-13
1.69066083031e-13
1.53158976758e-13
1.40905920593e-13
1.58046567528e-13
3.08586896022e-12
2.83937590309e-12
2.45678788812e-12
2.06703886493e-12
1.72167356772e-12
1.43358137563e-12
1.1927945673e-12
1.03672274389e-12
9.36109042536e-13
8.53928634975e-13
7.06067438659e-13
4.98099678178e-13
3.36449474168e-13
2.72262397564e-13
2.49286555522e-13
2.34360130903e-13
2.17680403011e-13
1.95678805633e-13
1.70474231938e-13
1.70490251784e-13
2.29945119401e-12
2.09953210178e-12
1.89031925151e-12
1.67300735496e-12
1.4655375873e-12
1.28838543956e-12
1.12166980448e-12
9.31077471583e-13
8.18397992431e-13
7.16272286074e-13
5.70672165666e-13
4.30214491746e-13
3.56017811614e-13
1.99081283774e-13
3.85340925174e-13
4.74480945243e-13
3.9256616143e-13
5.00710708441e-13
3.95456215784e-13
4.91397090744e-13
3.9522483153e-13
4.69734531267e-13
3.94148603754e-13
4.43500513247e-13
3.92710442291e-13
4.17820408073e-13
3.91023145309e-13
3.94182670382e-13
3.8912686239e-13
3.73101292693e-13
3.8703832997e-13
3.54636771526e-13
3.84756518838e-13
3.38560611474e-13
3.82275224317e-13
3.24555717437e-13
3.7958526113e-13
3.12269663298e-13
3.76685052945e-13
3.01439212435e-13
3.73592716398e-13
2.91898334976e-13
3.70357278624e-13
2.83532335919e-13
3.67062753297e-13
2.76261642491e-13
3.63852671545e-13
2.70048852987e-13
3.60890154262e-13
2.64849847203e-13
3.58399604275e-13
2.60949062393e-13
3.56515913875e-13
2.58330117267e-13
3.55396634508e-13
2.57182965776e-13
3.55046724185e-13
2.57338759993e-13
3.55440588368e-13
2.58531483901e-13
3.56445709323e-13
2.6040461335e-13
3.57907985213e-13
2.62679214614e-13
3.59693096324e-13
2.65755962478e-13
3.61696745118e-13
2.69640062442e-13
3.63808388747e-13
)
;

boundaryField
{
    inletfuel
    {
        type            calculated;
        value           uniform 0;
    }
    inletair
    {
        type            calculated;
        value           uniform 0;
    }
    outlet
    {
        type            calculated;
        value           nonuniform 0();
    }
    axis
    {
        type            empty;
    }
    leftside
    {
        type            calculated;
        value           uniform 0;
    }
    burnerwall
    {
        type            calculated;
        value           uniform 0;
    }
    front
    {
        type            wedge;
    }
    back
    {
        type            wedge;
    }
    procBoundary0to1
    {
        type            processor;
        value           uniform 0;
    }
}


// ************************************************************************* //
