/*--------------------------------*- C++ -*----------------------------------*\
  =========                 |
  \\      /  F ield         | OpenFOAM: The Open Source CFD Toolbox
   \\    /   O peration     | Website:  https://openfoam.org
    \\  /    A nd           | Version:  7
     \\/     M anipulation  |
\*---------------------------------------------------------------------------*/
FoamFile
{
    version     2.0;
    format      ascii;
    class       surfaceScalarField;
    location    "0.06";
    object      phi;
}
// * * * * * * * * * * * * * * * * * * * * * * * * * * * * * * * * * * * * * //

dimensions      [1 0 -1 0 0 0 0];

internalField   nonuniform List<scalar> 
1567
(
-3.74433651844e-09
8.61405459481e-08
-1.44626336247e-08
2.57853537278e-07
3.9741561751e-07
1.42641157391e-09
8.47573393778e-08
-2.16582740939e-09
2.61570821746e-07
3.953539278e-07
2.76651397564e-10
8.46443511107e-08
-2.45471323957e-09
2.64566941674e-07
3.92949760163e-07
-1.43188224686e-09
8.6136731619e-08
8.63704463922e-09
2.55272597646e-07
3.56698897481e-07
5.47197513005e-08
1.63213229477e-09
8.46344355272e-08
1.85220938087e-08
2.39241478614e-07
3.35263091536e-07
4.56355416104e-08
1.80070851973e-09
8.29954839239e-08
1.02212568027e-08
2.31506062061e-07
3.12018160681e-07
3.57182334089e-08
2.66131450208e-10
8.285044374e-08
5.37032277729e-09
2.26833086524e-07
3.0176122618e-07
1.64115873345e-08
9.79385913413e-10
8.18919788663e-08
5.57131918256e-09
2.22425430985e-07
2.93340632702e-07
1.42048157761e-08
1.65474738056e-09
8.0150601818e-08
7.32592908815e-09
2.16657281682e-07
2.85094911682e-07
1.56172957167e-08
2.48319985791e-09
7.75162876507e-08
1.11253212044e-08
2.07837239255e-07
2.75438483206e-07
2.08831598919e-08
3.75575528565e-09
7.3620513279e-08
1.50189298001e-08
1.96446047412e-07
2.63496762112e-07
2.72791374891e-08
5.34194716879e-09
6.82450893785e-08
1.92588128747e-08
1.82640593765e-07
2.47704617511e-07
3.57007388878e-08
6.62191911612e-09
6.17298119547e-08
2.26806116188e-08
1.67011289887e-07
2.28671787577e-07
4.26828837672e-08
7.39797056393e-09
5.45679508996e-08
2.58070777549e-08
1.49309801556e-07
2.06728536862e-07
4.88928577421e-08
7.32438412049e-09
4.75479469461e-08
2.64245867148e-08
1.31021501901e-07
1.83937299109e-07
5.02439387465e-08
6.49049229445e-09
4.13309077159e-08
2.36257505634e-08
1.14550133094e-07
1.62960122789e-07
4.51927768565e-08
5.20073191608e-09
3.63090598213e-08
1.90959701442e-08
1.01017548326e-07
1.45473082369e-07
3.66290219857e-08
4.04669152578e-09
3.23311067105e-08
1.45262821895e-08
9.05996154358e-08
1.31760169298e-07
2.78550278214e-08
2.65606995257e-09
2.96846008289e-08
9.80749384362e-09
8.33445545775e-08
1.22484272853e-07
1.85167454876e-08
1.45609533514e-09
2.82032927551e-08
5.17184987983e-09
7.9450599754e-08
1.18137715111e-07
8.89253791523e-09
4.98182621724e-10
2.76850177117e-08
1.29188984837e-09
7.84855214827e-08
1.18009399444e-07
8.06489195425e-10
-3.95943429387e-11
2.7715984254e-08
-6.36335562727e-10
7.89606621988e-08
1.20448140586e-07
-3.56908137591e-09
-6.41852903521e-10
2.83850246666e-08
-3.14617180429e-09
8.14525653715e-08
1.25728679877e-07
-8.70743556932e-09
-5.7448544448e-10
2.90058826652e-08
-3.07286256441e-09
8.40223911318e-08
1.30694292778e-07
-8.14350249316e-09
-3.74120322036e-10
2.94492291466e-08
-1.83908921433e-09
8.56341017386e-08
1.34743525197e-07
-5.81113992836e-09
4.32734236563e-10
2.90680931573e-08
1.07320450232e-09
8.51189541163e-08
1.34553807165e-07
1.36620235546e-09
1.82891312525e-09
2.72832139944e-08
6.91661835019e-09
8.01345073179e-08
1.27288587204e-07
1.42965719259e-08
3.4845231416e-09
2.38113758288e-08
1.3737275523e-08
6.99186979934e-08
1.1131055077e-07
2.97523476857e-08
5.62625977093e-09
1.81903354764e-08
2.20272685409e-08
5.35196154397e-08
8.46994443567e-08
4.86279983218e-08
6.79157012776e-09
1.13692291763e-08
2.68531769356e-08
3.33766432452e-08
5.23283124773e-08
5.90837858661e-08
6.40364150036e-09
4.92876100727e-09
2.52286886182e-08
1.44294008211e-08
2.159637719e-08
5.57634522397e-08
3.09583244727e-09
1.24441794664e-08
2.71229223225e-08
2.53504257956e-07
-2.04149912035e-07
2.31280538486e-07
7.05416134405e-08
2.24864391273e-07
4.26456211193e-08
2.31940187711e-07
9.06883544222e-09
2.37589803291e-07
8.37565079872e-09
2.40445355549e-07
1.30096939088e-08
2.38891015456e-07
2.30339076181e-08
2.33569716197e-07
3.34199912521e-08
2.23255698531e-07
4.69945311475e-08
2.08651484873e-07
5.83296558184e-08
1.91184544677e-07
6.72732473886e-08
1.72623394735e-07
6.93145494572e-08
1.55158602089e-07
6.25562626929e-08
1.40231372717e-07
5.0889664811e-08
1.2921277257e-07
3.78684454041e-08
1.22677318075e-07
2.3940623734e-08
1.20486951811e-07
9.9878429909e-09
1.22587140876e-07
-2.39118916619e-09
1.27589608423e-07
-9.47109759727e-09
1.35410514856e-07
-1.71659511843e-08
1.4343138446e-07
-1.65445954071e-08
1.4957127662e-07
-1.20737470991e-08
1.51005653225e-07
-6.55391500941e-11
1.43686331635e-07
2.16689761181e-08
1.25631305349e-07
4.78307924965e-08
9.5424881497e-08
7.87923018017e-08
5.7210250313e-08
9.71421896342e-08
2.21536453086e-08
9.05825706887e-08
4.33742125669e-08
1.81941309532e-07
6.98409850147e-07
4.3305361825e-07
1.15498600121e-06
7.45330351441e-07
1.74946065501e-06
1.02040042622e-06
2.6017911939e-06
1.3332341373e-06
3.57515825095e-06
1.58087530722e-06
4.88411710542e-06
1.84430107222e-06
6.36884009828e-06
2.02423215029e-06
8.24319503014e-06
2.16413120801e-06
1.04519653832e-05
2.23883347329e-06
1.32094206201e-05
2.34201303332e-06
1.64829408106e-05
2.38704902631e-06
2.04511215771e-05
2.3455806404e-06
2.51861651972e-05
2.28465205652e-06
3.08854491314e-05
2.17975515842e-06
3.77789143674e-05
2.08170963677e-06
4.59196510746e-05
1.78247787976e-06
5.58825880173e-05
1.52258443722e-06
6.75218040685e-05
6.68851188319e-07
8.20573547366e-05
9.85024713812e-05
3.91363682217e-07
2.98815757566e-07
3.91750955329e-07
1.15358252455e-06
7.40738476509e-07
1.3972193222e-06
9.45531099546e-07
2.38175846428e-06
1.17569374846e-06
3.31090316486e-06
1.28896031588e-06
4.73891400096e-06
1.40359998044e-06
6.2635531467e-06
1.47331337838e-06
8.2269652208e-06
1.51539741984e-06
1.04569076606e-05
1.48057469116e-06
1.32535767924e-05
1.44290730918e-06
1.65329225136e-05
1.40070840104e-06
2.05312691434e-05
1.34008708547e-06
2.52841091607e-05
1.27375208655e-06
3.1009018684e-05
1.21310025882e-06
3.79395711435e-05
1.16867046639e-06
4.60881635702e-05
1.04449547464e-06
5.61603353921e-05
9.53678432761e-07
6.77982068174e-05
1.60545595878e-07
8.30664911988e-05
9.88848425398e-05
7.42438124525e-09
2.98707479789e-07
2.91087628937e-07
8.46644594162e-07
6.68384251226e-07
1.00351090664e-06
8.27056078138e-07
2.22023089747e-06
1.04600200289e-06
3.07993123778e-06
1.03455874711e-06
4.71684330268e-06
1.01864968739e-06
6.25651946663e-06
9.83145975097e-07
8.27688954423e-06
9.54233732194e-07
1.05077691728e-05
8.85184526623e-07
1.33104535639e-05
8.1049974997e-07
1.65818453144e-05
7.52537689358e-07
2.05805795769e-05
6.99312102683e-07
2.53292345125e-05
6.47450664587e-07
3.10519413322e-05
6.1855185627e-07
3.79727559336e-05
6.06654313194e-07
4.61089521058e-05
5.80415492173e-07
5.61991806132e-05
5.72933850752e-07
6.78196826234e-05
-7.07043557732e-09
8.36584762387e-05
9.88617368601e-05
-5.21503569945e-07
3.97838073006e-07
3.63220458132e-07
1.15574969359e-07
5.91802536724e-07
8.16567061535e-07
1.3236210773e-06
1.49061179227e-06
1.40682780109e-06
3.00909125951e-06
1.37632817824e-06
4.71477891032e-06
1.27182201643e-06
6.31470676821e-06
1.16703557503e-06
8.37616370628e-06
1.08725593025e-06
1.06017953947e-05
9.77780827415e-07
1.33967927916e-05
8.61733575304e-07
1.66524683471e-05
7.79185737951e-07
2.06376693138e-05
7.12648105679e-07
2.53712675863e-05
6.52102906276e-07
3.10777091676e-05
6.28655646902e-07
3.7968005322e-05
6.29599900817e-07
4.60801177673e-05
6.57836515914e-07
5.6138697562e-05
6.89796783489e-07
6.77468887639e-05
5.57038593528e-07
8.37357805499e-05
9.99104420605e-05
-5.86267987958e-07
1.2677235574e-07
3.21317282051e-07
1.71189034192e-07
4.82141913433e-08
7.51650865954e-07
4.24768154489e-07
1.68000507048e-06
1.24101366557e-06
2.05818819664e-06
3.15402748338e-06
2.06634688955e-06
4.83582195969e-06
1.71089216151e-06
6.61416619716e-06
1.4825203444e-06
8.57755268796e-06
1.30978649824e-06
1.07835724834e-05
1.1649436237e-06
1.35178836532e-05
1.02318898662e-06
1.67453772908e-05
9.28854540562e-07
2.07072019602e-05
8.55828617259e-07
2.54214770852e-05
7.89473484184e-07
3.1105566692e-05
7.66879511791e-07
3.79581303698e-05
7.73317566793e-07
4.60437064463e-05
8.50960687614e-07
5.60257464388e-05
9.63485880499e-07
6.75894219439e-05
1.51843029664e-06
8.31195447895e-05
9.82312430508e-05
3.09020050686e-06
5.73376244158e-08
2.97646104079e-07
7.64511877621e-08
4.57854759842e-08
5.10373323056e-07
2.85249105112e-07
1.3903678355e-06
1.21639253049e-06
2.08793844043e-06
3.18566182084e-06
2.17907620434e-06
4.95254471617e-06
1.95710570563e-06
6.78655239625e-06
1.76167131138e-06
8.72063673321e-06
1.57292146607e-06
1.09769538871e-05
1.41529778258e-06
1.36556813666e-05
1.25860508932e-06
1.68569549898e-05
1.15823864936e-06
2.07901036007e-05
1.0782960428e-06
2.54853563679e-05
1.00410606088e-06
3.11447600645e-05
9.77568272792e-07
3.79585501279e-05
9.83060896664e-07
4.60185708346e-05
1.09492130727e-06
5.58901821793e-05
1.25922981442e-06
6.73935005609e-05
2.26646188448e-06
8.20673587934e-05
9.59322631676e-05
4.46809618138e-06
2.6052762259e-09
2.97091106598e-07
6.49864332066e-08
8.60574082928e-09
4.51110552125e-07
2.3202704197e-07
1.16337594389e-06
1.30311310106e-06
1.86697632151e-06
3.07250076389e-06
2.0599376543e-06
4.87313541001e-06
2.03224625927e-06
6.72974584645e-06
1.9517066831e-06
8.75291788085e-06
1.81820177259e-06
1.11093604572e-05
1.66344733887e-06
1.37925518797e-05
1.49617004797e-06
1.69822044808e-05
1.39285246651e-06
2.08811284098e-05
1.30479580374e-06
2.55596196519e-05
1.22120089904e-06
3.11933310341e-05
1.1890108314e-06
3.79680500923e-05
1.18999946778e-06
4.60036994397e-05
1.31865766748e-06
5.57431374228e-05
1.49514646778e-06
6.71909832275e-05
2.64676915712e-06
8.08779631407e-05
9.40274262959e-05
4.46528488214e-06
-7.20655661915e-09
3.09782328308e-07
2.20669142977e-08
3.87039323262e-09
3.42845173325e-07
2.17332303265e-07
9.34459791922e-07
1.25180055086e-06
1.5046416963e-06
2.81037273058e-06
1.81574025886e-06
4.53662238161e-06
1.97921691776e-06
6.46019703483e-06
2.05609450772e-06
8.66087723965e-06
2.01470701314e-06
1.11412772941e-05
1.87364187108e-06
1.3910595199e-05
1.70961814807e-06
1.71033799401e-05
1.60578206379e-06
2.09731833862e-05
1.51082977665e-06
2.5636777377e-05
1.41808157713e-06
3.12457770609e-05
1.3801762263e-06
3.79811159616e-05
1.37399532122e-06
4.59936311732e-05
1.5008644031e-06
5.55930011054e-05
1.66002237071e-06
6.69993318538e-05
2.68233816653e-06
7.98097637802e-05
9.27049246215e-05
3.91331445049e-06
-1.18890104244e-08
3.36113412623e-07
-1.31479497808e-09
1.60447387363e-08
2.86503819505e-07
1.91608713592e-07
7.67856662791e-07
1.10081818384e-06
1.25560189224e-06
2.44494797428e-06
1.63200095256e-06
4.09520967345e-06
1.93385040502e-06
6.09006067181e-06
2.1230018256e-06
8.47821132087e-06
2.17914904425e-06
1.10981908412e-05
2.07071940337e-06
1.39739747974e-05
1.91064696289e-06
1.72154184746e-05
1.80631176952e-06
2.10633786331e-05
1.70633132592e-06
2.57113388493e-05
1.60560905634e-06
3.12986358661e-05
1.56152265122e-06
3.79955074792e-05
1.54461322361e-06
4.59874078313e-05
1.65167935921e-06
5.54522804025e-05
1.77181752475e-06
6.6834114597e-05
2.55802948129e-06
7.89616074888e-05
9.18194165258e-05
3.33428089579e-06
-4.84945537964e-10
3.61595841612e-07
-1.83574886727e-08
4.63517615136e-08
2.45047665066e-07
1.80852238063e-07
6.9339577291e-07
8.68924132242e-07
1.12197330689e-06
2.10419879255e-06
1.55397350302e-06
3.66036102516e-06
1.93330214162e-06
5.72535827818e-06
2.21603530636e-06
8.22649620432e-06
2.33513234959e-06
1.10044144605e-05
2.2677349238e-06
1.39631431749e-05
2.11418219516e-06
1.73151148625e-05
2.0128228416e-06
2.11476434056e-05
1.90607379311e-06
2.57836746433e-05
1.79844121874e-06
3.13510701018e-05
1.74607928681e-06
3.80130984064e-05
1.71346688966e-06
4.59884869663e-05
1.78444591762e-06
5.53360287196e-05
1.84838754396e-06
6.67114042455e-05
2.37953525549e-06
7.83509357756e-05
9.13049202601e-05
2.76285915354e-06
1.30428173048e-08
3.84034683442e-07
-1.12676999068e-08
8.29609299688e-08
2.33460828636e-07
1.72125796737e-07
6.45801768057e-07
6.67676270755e-07
1.05167410042e-06
1.83550375098e-06
1.53559034555e-06
3.27491834162e-06
1.96413658484e-06
5.39438359626e-06
2.32114305117e-06
7.91862174791e-06
2.46940427675e-06
1.08475514585e-05
2.46230082052e-06
1.38973857357e-05
2.33706020262e-06
1.73742142044e-05
2.23374498944e-06
2.12288263541e-05
2.11498751702e-06
2.58577434366e-05
2.00149248601e-06
3.14027654407e-05
1.9376264046e-06
3.80370957575e-05
1.88411795491e-06
4.60011536332e-05
1.90650910898e-06
5.52563967023e-05
1.90303729045e-06
6.66420236827e-05
2.191351266e-06
7.79648678734e-05
9.10978065318e-05
2.24412867225e-06
4.36550367737e-08
3.88879710169e-07
2.78602305671e-08
1.14314224592e-07
1.9823430317e-07
1.22224415826e-07
5.4781894134e-07
5.06827778705e-07
9.74955418153e-07
1.5632881638e-06
1.48844809197e-06
2.93120924411e-06
1.97358113542e-06
5.04636691587e-06
2.39013360336e-06
7.55212208597e-06
2.58728222142e-06
1.0611135049e-05
2.64758840311e-06
1.37738743175e-05
2.5667128147e-06
1.73728637675e-05
2.45945519949e-06
2.13044285989e-05
2.33104524293e-06
2.59291255584e-05
2.21288682234e-06
3.14529328798e-05
2.13469750386e-06
3.80693707893e-05
2.05538538512e-06
4.60284952652e-05
2.02102536461e-06
5.52204080943e-05
1.94466537432e-06
6.66296774123e-05
2.01313238623e-06
7.77783580576e-05
9.11167784306e-05
1.81455593004e-06
6.65967860189e-08
3.80882569092e-07
5.24379369323e-08
1.45289020556e-07
1.54558548956e-07
1.00391207789e-07
4.40397641254e-07
3.85232477826e-07
8.92388940634e-07
1.26335582859e-06
1.40211447384e-06
2.61291984118e-06
1.94433962639e-06
4.6429394452e-06
2.40515449137e-06
7.13373008589e-06
2.67845356296e-06
1.02837264543e-05
2.81565001274e-06
1.35851585139e-05
2.78931306933e-06
1.72953465101e-05
2.68974128898e-06
2.1355307944e-05
2.55720889322e-06
2.59905601559e-05
2.43113741826e-06
3.15051468005e-05
2.33593590111e-06
3.81106801469e-05
2.22649094299e-06
4.60724148202e-05
2.13121635112e-06
5.52301728998e-05
1.98009594873e-06
6.66730630303e-05
1.85734688338e-06
7.77598132783e-05
9.12940999029e-05
1.47150643251e-06
8.14973760731e-08
3.65147772589e-07
7.29114367992e-08
1.70932472243e-07
1.34810934606e-07
1.06639799949e-07
3.73764028426e-07
2.82307093797e-07
7.8144929901e-07
1.00040916329e-06
1.29369247521e-06
2.27335166838e-06
1.88355265305e-06
4.18175642973e-06
2.37672058518e-06
6.68115703081e-06
2.74938026019e-06
9.85641901657e-06
2.93514159558e-06
1.33201437074e-05
2.99840865494e-06
1.71658123284e-05
2.92605460022e-06
2.13372822386e-05
2.7901129281e-06
2.60404910124e-05
2.65498802439e-06
3.15609666673e-05
2.54145035844e-06
3.8159743487e-05
2.39855154088e-06
4.61334950653e-05
2.24060408093e-06
5.52848351351e-05
2.01485339459e-06
6.67681961094e-05
1.72827846109e-06
7.78791776329e-05
9.15732643457e-05
1.20735428188e-06
8.45320764911e-08
3.4658871955e-07
7.75940435844e-08
1.93575475023e-07
1.10098564253e-07
1.28753973206e-07
2.85630988525e-07
2.03301297078e-07
6.5830901835e-07
7.4039075713e-07
1.1597465789e-06
1.91901944675e-06
1.78479715318e-06
3.67788917014e-06
2.31792590982e-06
6.20362435675e-06
2.77928054897e-06
9.35408737116e-06
3.03523786007e-06
1.29749714485e-05
3.18792586342e-06
1.6959966666e-05
3.15131513425e-06
2.12470463743e-05
3.02555677616e-06
2.60678384334e-05
2.88730983374e-06
3.16140467449e-05
2.75247121489e-06
3.82164414716e-05
2.57405942129e-06
4.62111234545e-05
2.35311853016e-06
5.53814417415e-05
2.05363052328e-06
6.6910074989e-05
1.63172834305e-06
7.81060215126e-05
9.19163284013e-05
1.00854189309e-06
7.57831109419e-08
3.28722316433e-07
6.97796580639e-08
2.11953063339e-07
8.8374032348e-08
1.48775059543e-07
1.99888822419e-07
1.5889225324e-07
5.29488525696e-07
4.96473576084e-07
1.01648108748e-06
1.56505355462e-06
1.61535465506e-06
3.21584502726e-06
2.20511424897e-06
5.69484940606e-06
2.74572793368e-06
8.79504317129e-06
3.09814777409e-06
1.25376488316e-05
3.32565662923e-06
1.66414616224e-05
3.35226145308e-06
2.10971114584e-05
3.27565489031e-06
2.60393166888e-05
3.1328899968e-06
3.1664175082e-05
2.97176429507e-06
3.82826702314e-05
2.75657023376e-06
4.63037285567e-05
2.47212706646e-06
5.55165097867e-05
2.10015825932e-06
6.70936104862e-05
1.56879551067e-06
7.84130490194e-05
9.22973192027e-05
8.62833189908e-07
6.02849160284e-08
3.14121326765e-07
5.48618477557e-08
2.25277917619e-07
6.29353688021e-08
1.6680105748e-07
1.2360641694e-07
1.42242296118e-07
3.73984032697e-07
3.0727894967e-07
8.153722839e-07
1.24050480396e-06
1.33393566478e-06
2.84319082366e-06
2.00156873575e-06
5.10513425004e-06
2.59764236676e-06
8.1950755236e-06
3.08510636984e-06
1.19638946596e-05
3.41382473031e-06
1.61949538267e-05
3.54418809908e-06
2.08342182416e-05
3.53463705788e-06
2.5935989842e-05
3.38963473379e-06
3.17057703228e-05
3.20336237283e-06
3.83545986982e-05
2.9499449937e-06
4.64097435654e-05
2.60163881834e-06
5.5686012607e-05
2.15785707507e-06
6.7315022628e-05
1.53575444609e-06
7.87792717123e-05
9.26965497207e-05
7.58693182343e-07
4.13027516048e-08
3.05380993993e-07
2.82122839646e-08
2.42408093947e-07
1.94005902999e-08
1.93048327506e-07
4.57658447536e-08
1.50319005475e-07
1.98915521451e-07
2.00610788978e-07
5.48154633817e-07
9.64179539133e-07
1.01238515419e-06
2.47115631273e-06
1.62838860663e-06
4.51976838894e-06
2.31783407011e-06
7.45309182416e-06
2.99973657763e-06
1.1160122479e-05
3.45926276505e-06
1.5590762778e-05
3.71559297483e-06
2.04241826828e-05
3.79465211253e-06
2.57323388425e-05
3.67771054247e-06
3.17036517034e-05
3.46741269352e-06
3.84291833579e-05
3.16319002334e-06
4.65387319867e-05
2.74789612305e-06
5.58893305668e-05
2.23039407701e-06
6.75738984186e-05
1.53017154948e-06
7.91870610372e-05
9.30939083382e-05
6.92410047719e-07
1.8235555945e-08
3.05767465552e-07
-5.35064731292e-09
2.67636701671e-07
-3.22720487702e-08
2.29243749231e-07
-4.289480809e-08
1.85857772451e-07
1.45573043146e-08
2.03897688173e-07
2.21748302162e-07
7.2931778107e-07
5.89482689434e-07
2.04213281202e-06
1.1244873706e-06
3.84552090748e-06
1.88522603933e-06
6.4772176667e-06
2.71611997528e-06
1.0091740311e-05
3.42803322555e-06
1.46542067091e-05
3.88832485388e-06
1.97719821798e-05
4.09697428809e-06
2.53969917441e-05
4.02669010841e-06
3.16164350385e-05
3.77724643149e-06
3.85190325204e-05
3.4090938249e-06
4.67017843542e-05
2.91868485393e-06
5.61321210901e-05
2.32253534774e-06
6.78724569538e-05
1.54707971035e-06
7.96236437586e-05
9.34732468488e-05
6.52129457982e-07
-6.82884055864e-09
3.17386754081e-07
-4.88092617084e-08
3.08029514675e-07
-1.09418989113e-07
2.91289360811e-07
-1.75291973172e-07
2.59997056023e-07
-2.01601436298e-07
2.65025945219e-07
-5.65686043011e-08
5.47029928842e-07
2.46074938723e-07
1.5262443469e-06
7.61512770457e-07
2.98288234064e-06
1.53147498206e-06
5.26837164587e-06
2.47016374078e-06
8.71398363155e-06
3.43791273531e-06
1.33221296197e-05
4.08473294014e-06
1.88678565669e-05
4.47265164729e-06
2.48812392248e-05
4.44610234563e-06
3.14328695751e-05
4.17629560333e-06
3.86035238207e-05
3.71658341311e-06
4.69254675673e-05
3.12631202979e-06
5.64364987594e-05
2.44435659377e-06
6.8212071327e-05
1.59204733686e-06
8.00747875347e-05
9.38107512673e-05
6.46311707267e-07
-3.08155236905e-08
3.41283387987e-07
-9.04536887686e-08
3.63102532214e-07
-1.76546582663e-07
3.71155512016e-07
-2.80252788167e-07
3.55120714286e-07
-3.64166439096e-07
3.42892179158e-07
-3.58135457615e-07
4.47661112193e-07
-2.35406012803e-08
9.82524650134e-07
4.71711972174e-07
2.00445825e-06
1.32836821912e-06
3.78151167276e-06
2.39962663832e-06
7.00025065273e-06
3.59700779063e-06
1.1602901727e-05
4.47322349505e-06
1.76580781464e-05
5.01504782034e-06
2.42194524755e-05
5.03150670282e-06
3.1157844031e-05
4.71356534476e-06
3.87119696409e-05
4.11893730445e-06
4.72503983796e-05
3.38681231882e-06
5.68376608986e-05
2.59565641288e-06
6.86044260109e-05
1.65563875341e-06
8.05298646154e-05
9.40905128497e-05
6.47828451918e-07
-4.74271191664e-08
3.75130875738e-07
-1.16794144774e-07
4.26051495198e-07
-2.14978918872e-07
4.58310737983e-07
-3.31300026669e-07
4.53420882544e-07
-4.28493986081e-07
4.17041069225e-07
-4.62163349277e-07
4.08531545758e-07
-1.97973553215e-07
5.54423759913e-07
3.71695766637e-07
1.0508138605e-06
1.2704441881e-06
2.29620530072e-06
2.56794049401e-06
5.04072548472e-06
4.05474488521e-06
9.57900899669e-06
5.10511826792e-06
1.62940167131e-05
5.79386047226e-06
2.33819865929e-05
5.82107224872e-06
3.0986144775e-05
5.39189574082e-06
3.88882387626e-05
4.66013517843e-06
4.76682918097e-05
3.7242306653e-06
5.73823687071e-05
2.77227538333e-06
6.90813958101e-05
1.74018195239e-06
8.09668271845e-05
9.42177869769e-05
7.2480107617e-07
-5.89198039095e-08
4.13319138332e-07
-1.31454468538e-07
4.91426693852e-07
-2.3027526835e-07
5.43492407913e-07
-3.44873573059e-07
5.44369133332e-07
-4.45250513034e-07
4.8542086816e-07
-4.55591931899e-07
3.89941894458e-07
-2.69006293978e-07
3.05880112133e-07
2.67322813261e-07
3.56590950138e-07
1.233017869e-06
9.92950617863e-07
2.74345473755e-06
3.15742709177e-06
4.63571554103e-06
7.46169824991e-06
6.17259631296e-06
1.47898119772e-05
6.94658642598e-06
2.27151658589e-05
6.96057456789e-06
3.10001957734e-05
6.27997309322e-06
3.9285982065e-05
5.29525783764e-06
4.82769858515e-05
4.16710457231e-06
5.80329578646e-05
2.99422103524e-06
6.96738663156e-05
1.80450356352e-06
8.14162923769e-05
9.41446630899e-05
7.75781023144e-07
-5.49328621515e-08
4.48928999914e-07
-1.19248590629e-07
5.49345165135e-07
-1.98186568131e-07
6.09937607439e-07
-2.83712767452e-07
6.08322868106e-07
-3.48023880995e-07
5.20571823396e-07
-3.20008995294e-07
3.446398965e-07
-1.33342214263e-07
1.50369132014e-07
2.90595030311e-07
-4.73019270686e-09
1.14143911276e-06
1.62589320424e-07
2.80055068405e-06
1.59124752566e-06
5.03742147342e-06
5.71438942901e-06
7.24810280415e-06
1.34149159688e-05
8.3816904428e-06
2.23683089578e-05
8.32929142568e-06
3.1426150776e-05
7.28952906698e-06
4.00209582388e-05
5.96008625613e-06
4.91275999066e-05
4.55368655764e-06
5.8825587483e-05
3.22004494561e-06
7.02709446557e-05
1.95125178786e-06
8.17423734105e-05
9.38128736422e-05
8.98495395794e-07
-4.31592931512e-08
4.78282819775e-07
-9.50998665464e-08
5.96566407518e-07
-1.54862063818e-07
6.60156784139e-07
-2.05334713366e-07
6.42256961697e-07
-2.21333908348e-07
5.14329346325e-07
-1.68323667251e-07
2.79842860994e-07
-3.28055999939e-09
1.48739889768e-08
3.7401855844e-07
-2.71276571756e-07
1.17015940799e-06
-3.50153509432e-07
2.74527414962e-06
5.88214545847e-07
5.19370453856e-06
4.64850928224e-06
8.26382253233e-06
1.24746515609e-05
9.87505575707e-06
2.27655768477e-05
9.7544339471e-06
3.23510852048e-05
8.30752928766e-06
4.12948082741e-05
6.57218279514e-06
5.01611633369e-05
4.87451885492e-06
5.96839821484e-05
3.36810860471e-06
7.08001775768e-05
2.03557560772e-06
8.18519999515e-05
9.31456098842e-05
9.603930295e-07
-1.1451946866e-08
4.88911888903e-07
-3.42877672707e-08
6.16793438381e-07
-5.39681587027e-08
6.74202308034e-07
-5.04388625418e-08
6.29068358589e-07
2.92257473511e-10
4.52671521168e-07
1.19202271679e-07
1.58652454188e-07
3.54795689004e-07
-1.93791786553e-07
6.86128763374e-07
-5.26130764458e-07
1.19537483311e-06
-6.68182019709e-07
2.40112011449e-06
9.35877353658e-08
4.9447485297e-06
3.95330943305e-06
8.48889565288e-06
1.23737500202e-05
1.07969030113e-05
2.36070031086e-05
1.05467580898e-05
3.37880370196e-05
8.85766570844e-06
4.26379304262e-05
6.87276667888e-06
5.11443035132e-05
5.03422195824e-06
6.03182294914e-05
3.42979373921e-06
7.10473187742e-05
2.09926869957e-06
8.15717143386e-05
9.20290822205e-05
1.0412986803e-06
4.16003049673e-08
4.68709492853e-07
6.59499807302e-08
5.9144000494e-07
1.05903110008e-07
6.31891337748e-07
1.80076470971e-07
5.50921717913e-07
3.03848178322e-07
3.25916008384e-07
5.01642212567e-07
-3.29656171796e-08
7.49715067866e-07
-4.17719632372e-07
1.02173209112e-06
-7.46607135663e-07
1.33947560694e-06
-8.5720405211e-07
2.25300012028e-06
-3.75814515816e-08
4.66387265835e-06
3.92012351613e-06
8.47995365624e-06
1.2852495817e-05
1.08352838408e-05
2.49291841225e-05
1.03804698283e-05
3.52979870688e-05
8.61035019965e-06
4.35376777389e-05
6.53513994713e-06
5.16142395174e-05
4.69294110425e-06
6.03299153159e-05
3.16227546185e-06
7.06373714517e-05
1.93578835539e-06
8.064656275e-05
9.02277419253e-05
1.06785008226e-06
1.07165692545e-07
4.09256922058e-07
1.90812881371e-07
5.07459064968e-07
3.13187577619e-07
5.0887257662e-07
4.84693702576e-07
3.79263341286e-07
7.18676711067e-07
9.61044082824e-08
9.76860652548e-07
-2.75396732411e-07
1.24279314134e-06
-6.50545724324e-07
1.51217425836e-06
-9.55660359744e-07
1.80559578339e-06
-9.92285570867e-07
2.47197591172e-06
2.949786964e-07
4.41155653085e-06
4.94803554777e-06
7.34922934438e-06
1.4537604651e-05
8.94377112854e-06
2.64522572999e-05
8.46947212081e-06
3.58008699453e-05
7.03879205293e-06
4.30500256652e-05
5.45155566591e-06
5.05821763868e-05
4.0365911265e-06
5.8928029233e-05
2.91950916851e-06
6.89069246905e-05
1.89567182909e-06
7.87577880572e-05
8.77851382457e-05
1.09780348675e-06
1.8232084501e-07
3.05440353838e-07
3.34560243492e-07
3.54864117785e-07
5.40588422574e-07
3.03095327131e-07
8.04892099369e-07
1.18596529732e-07
1.08786253303e-06
-1.71517430474e-07
1.34872241638e-06
-4.9968391514e-07
1.62144059858e-06
-8.479385013e-07
1.84193535497e-06
-1.02191779588e-06
1.95958340812e-06
-5.62626382446e-07
2.21871373979e-06
1.47272784125e-06
3.09932961072e-06
7.31158779663e-06
4.3072152539e-06
1.68580918412e-05
5.10173441358e-06
2.66909869581e-05
5.15640896284e-06
3.39325807046e-05
4.64590468173e-06
4.01630217406e-05
3.95744406375e-06
4.72399961834e-05
3.09246606278e-06
5.55702443105e-05
2.30089013875e-06
6.55328156489e-05
1.46041245475e-06
7.56297405817e-05
8.43063835955e-05
1.05505408778e-06
2.30237690161e-07
1.71808380065e-07
4.21743646426e-07
1.63212860247e-07
6.6717059252e-07
6.0202181819e-08
9.22254411642e-07
-1.24589683989e-07
1.14565303057e-06
-3.64370219259e-07
1.36522614688e-06
-6.47600145984e-07
1.47509639446e-06
-7.8978899904e-07
1.41716598795e-06
-4.29235268244e-07
9.34783390005e-07
8.41338678639e-07
1.3626859689e-07
3.7001116759e-06
-3.45252614118e-07
9.92573041733e-06
2.54220989753e-08
1.75520531682e-05
8.43680402021e-07
2.42855205533e-05
1.53925592063e-06
2.95672856949e-05
1.97295033148e-06
3.48186571804e-05
2.38816797001e-06
4.12103014948e-05
2.30196382594e-06
4.97208966422e-05
2.15056641243e-06
5.98096236638e-05
1.61571822845e-06
7.08128232003e-05
8.01208685992e-05
1.15866764448e-06
2.09350971394e-07
5.23688521063e-08
3.68849445183e-07
3.90219921729e-09
5.24960479335e-07
-9.19805751259e-08
6.62289214275e-07
-2.48503348355e-07
7.6706498851e-07
-4.30410415988e-07
7.3263940048e-07
-5.10299763032e-07
4.97381624701e-07
-1.38447488113e-07
-2.48946246297e-07
8.39479256812e-07
-1.83013205517e-06
2.63080324939e-06
-3.61494827265e-06
5.93442159842e-06
-4.01231722488e-06
1.07791138061e-05
-3.24334843861e-06
1.57745194373e-05
-1.72943077199e-06
1.96435512576e-05
-1.86553377943e-07
1.33884320726e-06
2.38964640469e-06
3.05636881264e-06
3.01366438387e-06
2.32967103488e-06
1.1678591892e-06
9.17655596548e-08
1.3225141343e-07
1.517688227e-07
1.13759822556e-07
-3.71361975145e-08
-4.96950881061e-07
-1.44048543043e-06
-2.77142167389e-06
-4.25357526633e-06
-5.40224488199e-06
-5.12711648964e-06
-3.80099028027e-06
-3.48167677761e-06
2.84957971287e-06
-3.5560222854e-06
2.25189259419e-07
5.66950425879e-06
-3.39316111233e-06
2.56308574848e-06
7.52014404463e-06
-8.83370500655e-07
2.76475984663e-06
9.17499206736e-06
1.8269945931e-06
2.45793221628e-06
1.05884418817e-05
4.22826445723e-06
2.09365410944e-06
1.17847039459e-05
6.26251329501e-06
1.72351240292e-06
1.27742315782e-05
7.92036411916e-06
1.37993944538e-06
1.3581607903e-05
9.2262581509e-06
1.10034449498e-06
1.42302941384e-05
1.02418060382e-05
8.74930723153e-07
1.47505212429e-05
1.10183985138e-05
7.03799232615e-07
1.51641480436e-05
1.16066614007e-05
5.77981210789e-07
1.54876520842e-05
1.20471143636e-05
4.83083835751e-07
1.57388940398e-05
1.23646841777e-05
4.13524926569e-07
1.59285156606e-05
1.25775728457e-05
3.68621640268e-07
1.60629037666e-05
1.27025598607e-05
3.39978253395e-07
1.614421547e-05
1.27481409117e-05
3.34106435826e-07
1.61761809163e-05
1.27302710644e-05
3.31185148656e-07
1.61556476921e-05
1.26466787136e-05
3.7568323273e-07
1.61026895227e-05
1.25406022367e-05
4.02440850006e-07
1.60008708127e-05
1.23925382789e-05
4.74084815522e-07
1.58697167757e-05
1.22476842377e-05
5.11295238474e-07
1.56816409979e-05
1.20772959122e-05
5.60756342006e-07
1.54462421647e-05
1.19033651824e-05
5.85341030501e-07
1.51495479699e-05
1.17158606925e-05
6.05683740983e-07
1.48171068616e-05
1.15243781702e-05
5.94350673792e-07
1.44340791296e-05
1.13120686638e-05
6.49557927867e-07
1.40696725884e-05
1.11459247524e-05
6.31008857824e-07
)
;

boundaryField
{
    inletfuel
    {
        type            calculated;
        value           nonuniform List<scalar> 3(-8.23348996769e-08 -2.46982642096e-07 -4.11704732053e-07);
    }
    inletair
    {
        type            calculated;
        value           nonuniform List<scalar> 
20
(
-8.75474726474e-07
-1.3984942755e-06
-2.0500179264e-06
-2.85658767287e-06
-3.84992462692e-06
-5.06787962721e-06
-6.55557954997e-06
-8.36670463242e-06
-1.05651435693e-05
-1.32271456959e-05
-1.64437293975e-05
-2.03228404661e-05
-2.49923753017e-05
-3.06049486748e-05
-3.73423538146e-05
-4.54198555502e-05
-5.50930165666e-05
-6.66660102272e-05
-8.04992413558e-05
-9.70213023033e-05
)
;
    }
    outlet
    {
        type            calculated;
        value           nonuniform 0();
    }
    axis
    {
        type            empty;
        value           nonuniform 0();
    }
    leftside
    {
        type            calculated;
        value           uniform 0;
    }
    burnerwall
    {
        type            calculated;
        value           uniform 0;
    }
    front
    {
        type            wedge;