/*--------------------------------*- C++ -*----------------------------------*\
  =========                 |
  \\      /  F ield         | OpenFOAM: The Open Source CFD Toolbox
   \\    /   O peration     | Website:  https://openfoam.org
    \\  /    A nd           | Version:  7
     \\/     M anipulation  |
\*---------------------------------------------------------------------------*/
FoamFile
{
    version     2.0;
    format      ascii;
    class       volScalarField;
    location    "0.06";
    object      Qdot;
}
// * * * * * * * * * * * * * * * * * * * * * * * * * * * * * * * * * * * * * //

dimensions      [1 -1 -3 0 0 0 0];

internalField   nonuniform List<scalar> 
814
(
11.0603061145
13.2745746263
13.231958936
1219.99283344
1818.39742232
5527.93271854
60055.9911708
130159.077026
1115582.3282
1956615.25541
7927711.16982
163819174.772
12088565.6998
45182778.8036
404612323.901
17357003.6074
46112996.5909
199622929.179
17982605.0497
36448109.3512
88611892.0576
15380038.2321
24246938.0915
37647955.6011
11250411.1114
14287161.4482
15881493.8594
7192816.10588
7703924.99601
6899101.12809
4079148.9047
3891309.62571
3205906.40373
2089722.42995
1889472.33422
1631628.43592
994060.953845
912559.858662
909178.464468
468758.472672
470915.739434
582592.264186
251713.813714
294676.060635
455884.46762
180750.897477
239666.564961
416552.858849
171451.80917
236405.693806
416659.5515
186990.050233
256028.939686
441186.938098
216948.178614
292306.375017
491577.799249
260236.947828
347438.938446
574241.054865
310113.515809
407000.007271
655134.444034
343432.544924
440429.144618
679379.621983
345755.45433
428917.674193
626964.433015
306905.870699
368521.246345
508944.076065
246347.855853
285001.027007
372283.605955
177825.165475
199842.419994
247075.643722
121797.536793
132748.60367
157005.535609
84618.5019793
91292.119485
105440.921043
98305.0833331
106572.847924
126111.874552
273440.406812
298547.082261
355010.114883
888360.897628
954893.805527
1112397.58253
2100665.0754
2246095.08098
2561298.21437
135099860.426
1301396597.87
389653192.148
116854053.456
37170842.7763
13380692.1059
5917252.47676
3266152.75473
2045191.91228
1344171.32452
1003980.39581
873785.91885
810858.811259
785664.780704
801373.597523
864420.331676
989272.640316
1091769.10922
1078421.18313
938927.477217
719726.906944
497392.698335
313045.194354
189930.676308
125609.313819
155647.234718
442893.493114
1349112.62229
3031016.72444
18368.3237092
4671.20328614
3187.68843215
1956.82699468
964.188958365
362.354932219
100.801924329
26.178604389
6.31954678852
1.41073582876
0.287176001921
0.0523326506712
0.00835769035626
0.0011489960647
0.000133162926616
1.26773489031e-05
9.75225227642e-07
5.79982075596e-08
2.68322851044e-09
1.63960517294e-10
765556.811963
217746.923337
100841.558467
45864.5488995
16952.3322138
4127.52418906
1003.5689369
229.949895008
49.3129145833
9.81198887517
1.81247425886
0.303147582751
0.0448689417195
0.00576727799461
0.000629888266656
5.73556724945e-05
4.23871534889e-06
2.47032815136e-07
1.13859574919e-08
6.20900232813e-10
5372056.74629
1555402.56648
781587.672786
296443.019368
65008.4796428
15587.3837563
3812.5928941
865.312750732
180.066453774
34.0032657454
6.00601850115
0.969128015862
0.138838202867
0.0172728739835
0.00182602683714
0.000162275744502
1.17129844859e-05
6.79041282478e-07
3.09745536418e-08
1.52735578097e-09
201319977.921
90650096.846
11609616.2609
1161971.63895
253041.999989
50345.9049302
13634.7855577
3174.51924762
650.281818589
116.973117866
19.8562854968
3.14077447831
0.445451538585
0.0549499445119
0.00576022918787
0.000509988439006
3.67292426031e-05
2.16186501834e-06
1.00664133632e-07
7.15530376667e-09
992404962.543
343007791.538
425746375.193
40113173.6926
2927121.14967
307276.236064
47536.5137518
10833.1168151
2177.83979218
371.966962043
60.9051056273
9.60166391689
1.38275250139
0.173592423765
0.0185005184518
0.00166633366626
0.000122377350541
7.44312538008e-06
3.68689029067e-07
4.35017539316e-08
201187751.415
87296841.9026
445837274.643
52669990.5425
4508053.35223
566430.793386
124765.894389
27354.7310953
5883.72740613
997.954807669
161.256440973
25.8766739741
3.88260624184
0.509004481983
0.0564802916098
0.00527944657741
0.000402709468036
2.56167788636e-05
1.38514599363e-06
2.20251586048e-07
42744431.2858
70911436.9735
373137251.167
42911097.7598
4048230.64079
699059.255289
209934.120802
61970.4340476
12105.7368467
2193.48712845
362.102632247
60.4384237263
9.64126663892
1.34771533169
0.158778860155
0.0156624272469
0.00125803151598
8.43936147934e-05
5.00826630498e-06
9.08106499056e-07
14817352.3595
70072764.4732
334401239.865
32498797.3347
3291966.9923
745406.704324
292511.83969
102211.895793
21301.8429367
4092.54687785
705.963712615
124.475026715
21.3077459601
3.21316720874
0.407143806398
0.0428876948833
0.0036610652491
0.000260249072625
1.68703149691e-05
3.16032259542e-06
9665057.77471
66231474.0202
323672238.685
29040204.8576
3017985.51219
763475.482112
351165.690912
133966.025222
34190.013233
6333.53039034
1226.95719855
232.659596319
42.7139706681
6.96114000412
0.95405983558
0.10802262444
0.00985163766138
0.000743374269997
5.22217044091e-05
9.56079354315e-06
7824682.24494
59641756.2047
356134092.773
31176270.4949
3299716.49468
784745.047967
376738.435287
156085.990826
45159.0211989
9350.23635086
1986.83644435
405.181059119
79.1223958067
13.8676688081
2.05563471616
0.250644783699
0.0244706929879
0.0019598742819
0.000148072172323
2.5665383809e-05
6165568.89787
40663432.6458
413341723.812
39353487.3007
4177240.30141
852288.677036
380720.15204
169078.515764
53673.703542
13810.4493424
2917.82311301
664.446383008
137.495022368
25.7098169278
4.10174579488
0.537591167958
0.0561759310726
0.00477261319995
0.000385865657455
6.23810354277e-05
4389476.56901
24566153.3344
196326127.298
51200641.5731
5456586.73628
1011175.9353
386519.592522
179534.316062
62922.6850917
18298.5617228
4231.88036442
1040.72010556
226.432005843
44.7618790921
7.62589813077
1.07008842603
0.11952917572
0.0107679674637
0.000929132190072
0.000139630812378
2993154.12602
15369253.8116
107518698.666
65391327.4192
6998603.34842
1311388.71116
419399.341589
194392.929547
73724.1873167
23189.1910118
5891.05363085
1552.89430183
354.889695224
73.6194808238
13.2813644111
1.9860803611
0.236686737712
0.0226099741878
0.00207955282891
0.000292563567542
2382966.67273
12254239.8184
75185007.4674
77300636.5246
9771335.59342
1899030.67532
512142.09114
219253.272217
86775.0001632
28144.2982846
8176.62910713
2160.11945301
529.423812952
114.851758862
21.7855495236
3.4561458922
0.438410745839
0.0444280313861
0.00435598833938
0.000581727884012
2144108.0559
10387614.0796
51853491.0045
87256499.1012
13617314.4261
2893628.87728
706523.9174
258856.319488
101814.991671
33786.4266302
10469.5146845
2914.14824778
754.700113094
170.821648651
33.8571536681
5.67435937713
0.764295442054
0.0822462418812
0.00861531031381
0.00111414201666
1916117.73538
7889060.31337
29579725.5745
96003175.9148
19663107.7626
4511367.34038
1053644.67192
317210.208864
117355.769394
39475.2506317
12653.7720795
3888.63243756
1035.13399869
243.975578829
50.2111424231
8.85448481989
1.26341495953
0.14463847649
0.0162759167281
0.00208972360633
1761580.4096
6239307.76029
19419864.1618
56993009.1675
34235103.657
7168074.77757
1567661.46557
398184.445628
133473.867741
45314.6559991
15145.3856711
4925.52891382
1375.16804774
338.342588994
71.7422197511
13.2515415851
1.99789880776
0.244109601584
0.029793214716
0.00390397053931
1730166.66757
5533653.5849
15684178.3625
43470850.5862
49752367.3252
10250420.4401
2223578.52714
532122.934332
162350.696743
54790.766412
18729.3947912
6259.26560196
1814.41970495
463.863021503
100.136797254
19.2107058823
3.05060581752
0.400010099083
0.0536840365107
0.00737274002535
1817815.17279
5434521.17356
14329476.2234
35939755.5083
70667235.3255
14423099.1125
3245318.76001
845100.158394
256977.349638
82912.9133329
27075.2911557
8671.98548765
2520.96004004
637.32070033
139.57966686
27.2273529834
4.53763644611
0.645002765297
0.0968714769307
0.0142397162257
2041042.34337
5742664.53114
14315791.6678
34337535.0063
88398590.6788
24888799.81
5605364.56564
1700492.59014
584413.602292
185464.797572
53999.2680056
15035.2381804
3973.94550115
934.960262445
200.502103717
38.2988903967
6.65870234365
1.04141613123
0.178376768648
0.0285688951714
2170600.31384
5629713.33805
13325721.2476
30953154.703
75388153.0937
42870511.4846
11375504.3744
3931158.57478
1533665.7641
524044.5014
145573.523729
34967.7756054
7693.30802823
1540.96303895
304.216265631
54.7748042782
9.80219297841
1.71982507405
0.342182202083
0.06122399536
2023604.32233
4796592.85083
10499950.3008
22323127.8968
47533418.7377
77162454.6337
24259196.2816
9582086.01144
3972894.91071
1437327.59624
417573.303398
96478.4363669
17840.3038074
3044.42689427
475.060260063
80.9513888875
14.8185172521
2.98267646086
0.69974884377
0.145288899453
1646174.82205
3558305.797
7202763.14776
14203925.5281
27772108.3238
53884616.0694
54531175.8021
22503342.2035
9590200.48325
3545564.58383
1063622.31943
249443.776641
43808.6304778
6129.65147549
784.125899605
123.350093258
23.4967778342
5.55978789551
1.558328792
0.386263337891
1183747.96348
2343577.12624
4394158.49605
8054261.3161
14594297.8458
25617357.5945
44220340.8722
53853337.0311
22785566.5972
8398454.33183
2436369.90838
553102.130026
95789.242554
11697.2453257
1254.88774657
187.763595917
39.6962773167
11.4008045592
3.86296378781
1.12765141524
768182.304758
1399792.32218
2439070.76577
4176930.69568
7144140.02178
12117210.7715
20221154.0367
36996414.9544
53536300.8722
19233241.2083
5293477.43022
1093463.88178
174417.465757
18558.5816874
1937.46422989
264.074540716
71.5493557735
25.4606537846
10.1430709491
3.36176905105
454547.67008
766667.97192
1253883.10432
2040957.09396
3412258.11354
5959337.5102
10463442.0601
19294756.4795
43987447.2741
37505013.6472
9853012.80699
1881126.36154
263948.442755
24501.3260386
2411.91417867
412.191388904
139.030797676
58.8531874621
26.8424159735
9.69116002573
261147.294173
415479.995745
662829.862791
1091391.00088
1921992.80727
3637971.57441
7224467.98486
14487113.1427
34632777.947
52257367.9093
13249522.6795
2438581.76366
325918.325716
27744.5625846
2834.92163533
646.403283044
282.679970599
140.127273265
69.2207670538
26.33368195
171176.111383
282111.016808
501601.063407
980009.635899
2106424.21782
4837685.98512
10127063.1227
19955031.117
43985796.4421
50389175.5356
12740491.72
2276803.37694
283914.732191
24223.5582228
3234.91960886
1104.31342745
598.344648377
327.704068466
169.77015056
66.6741613042
229667.013003
444442.638203
949425.252833
2171913.34661
5138442.88256
11026113.2056
21650261.452
40938876.7887
84707755.916
28685187.0845
7251565.69516
1290500.25108
156599.295272
17061.8406514
4018.04840081
2062.18345673
1285.78810351
747.358333661
393.239810227
157.145722835
662980.025202
1298660.27133
2742957.27132
5966788.19367
12165990.7827
23532464.1537
45017995.6717
89765116.3154
33191980.941
10819943.5205
2766151.10131
510618.173863
69377.6111923
13495.9514129
6118.84184651
4075.38722093
2738.47278985
1647.03609403
861.075261883
345.186340827
1930989.22637
3503813.25232
6688700.43227
12527418.3656
23267776.2284
44440133.7496
87762878.3614
30434817.448
11274694.7267
4041131.86733
1084150.922
209089.448891
42151.0518432
16671.4905271
11128.2310917
8220.36790873
5687.56167758
3491.64934734
1806.25123067
712.3441197
4127213.66342
6945726.95125
12217394.1252
22182320.4708
42921971.4853
78896599.8312
29659819.9942
12018678.3392
4626531.24241
1568075.44362
421021.542999
106981.735315
42871.1441677
1.26333417003e-08
2.50011552037e-08
6.37440826766e-08
5.12233187885e-08
2.67479052003e-07
1.27407295854e-07
8.65162973829e-07
3.34952533292e-07
2.41418091787e-06
8.33046607642e-07
5.88566179428e-06
1.80770580288e-06
1.27472409169e-05
3.59098125258e-06
2.54090510468e-05
6.75603052774e-06
4.77713403319e-05
1.22804570316e-05
8.65078173111e-05
2.19952588357e-05
0.000153553574003
3.95597847492e-05
0.000272322798731
7.28647696683e-05
0.000493703246564
0.000140452940042
0.000928842400519
0.000288710403179
0.00183650404285
0.000649010473489
0.00387243983473
0.00164705208119
0.00898197049393
0.00481490568108
0.0235742026542
0.0157314785849
0.0702968456983
0.0540595573602
0.222836079524
0.182657592103
0.715300509615
0.588300632466
2.19058615677
1.76302698065
6.26885893804
4.90118654906
16.5830269059
12.6256077754
40.4856773234
30.158215778
92.1813790789
67.6096025417
194.880826985
141.302395898
386.239232221
277.945592902
)
;

boundaryField
{
    inletfuel
    {
        type            zeroGradient;
    }
    inletair
    {
        type            zeroGradient;
    }
    outlet
    {
        type            zeroGradient;
    }
    axis
    {
        type            empty;
    }
    leftside
    {
        type            zeroGradient;
    }
    burnerwall
    {
        type            zeroGradient;
    }
    front
    {
        type            wedge;
    }
    back
    {
        type            wedge;
    }
    procBoundary0to1
    {
        type            processor;
        value           nonuniform List<scalar> 
27
(
3790383.79981
4019967.65195
4578274.35162
5386555.0863
28244.7960924
21675.2078904
16351.1328917
11428.7702023
7049.57674839
3634.47429212
1384.99256568
7280185.99481
12179991.1452
21655207.1206
40894963.3642
83663432.5162
37984540.8477
14566540.5146
5424304.07654
1929906.85021
659987.382534
226350.347308
105928.544471
28244.7960924
71416.4568907
720.600803627
508.279917484
)
;
    }
}


// ************************************************************************* //
