/*--------------------------------*- C++ -*----------------------------------*\
  =========                 |
  \\      /  F ield         | OpenFOAM: The Open Source CFD Toolbox
   \\    /   O peration     | Website:  https://openfoam.org
    \\  /    A nd           | Version:  7
     \\/     M anipulation  |
\*---------------------------------------------------------------------------*/
FoamFile
{
    version     2.0;
    format      ascii;
    class       volScalarField;
    location    "0.06";
    object      T;
}
// * * * * * * * * * * * * * * * * * * * * * * * * * * * * * * * * * * * * * //

dimensions      [0 0 0 1 0 0 0];

internalField   nonuniform List<scalar> 
814
(
294.025932016
294.027644567
294.036903166
294.027402955
294.031612898
294.047817455
294.045612549
294.057890241
294.115037776
294.401348156
295.115913129
303.591661178
295.99673397
299.724679598
329.883652217
299.074932686
306.958898817
352.593446692
303.624660138
316.183114488
372.426982686
309.405536741
326.415621015
387.659257505
316.38582976
336.975489991
398.158735796
324.847004757
347.681541431
405.496304474
335.44113429
359.123463175
412.718661854
349.166219567
372.652616158
422.824450751
367.350075751
390.269315567
438.669489931
391.59362786
414.195192542
462.713037684
423.668085091
446.669360867
497.254879282
464.624699091
488.843887219
543.068500073
513.32549423
539.138209691
597.309352787
565.985384552
593.08200175
654.006113199
618.33611902
646.035468538
708.054851096
667.427312566
695.297557474
757.334380581
712.268036669
739.90333395
801.068831725
751.192648396
777.814269155
836.107481444
782.74991084
807.373718984
860.413421629
804.58909957
826.062270488
871.726425714
817.795712734
835.4988302
872.902641321
826.490662944
840.357096804
869.48243543
837.032975517
847.747024624
870.222289177
857.095096656
865.522426658
883.292079278
899.599789814
906.730566126
921.915078036
989.787211351
996.934696319
1012.34226634
1160.99899566
1169.44743996
1187.91780781
1409.527156
1419.59387001
1441.65249447
365.435883438
495.380493278
513.889671675
516.485488232
509.127305505
499.262704206
491.532520942
489.502832125
494.896277992
509.673538167
535.746656641
574.975513264
627.004872121
686.628357077
745.788718441
799.480728214
847.228389979
888.231501976
917.159772067
932.515185558
932.622194307
922.116685358
907.470113223
899.644518381
906.824685074
942.411032811
1033.51431786
1213.69455994
1472.15677496
291.609606268
291.588731637
291.573904946
291.551408225
291.534077067
291.525254498
291.522336655
291.521328913
291.520391983
291.520214143
291.521748083
291.523469813
291.523831234
291.524207151
291.5254826
291.526675555
291.527505968
291.528338632
291.528841772
291.52865398
295.579068394
293.085595323
291.955559118
291.303690597
290.940221415
290.768885177
290.708818522
290.696903322
290.700202604
290.705942751
290.71145204
290.717220886
290.721314456
290.72417132
290.726966619
290.728976144
290.730489232
290.73153033
290.730819742
290.723829355
321.714371506
302.140622068
298.450519146
294.419563956
292.294939462
291.214425002
290.798813028
290.654043522
290.620894633
290.61842369
290.62468153
290.632368258
290.639314351
290.644495538
290.648707475
290.652786618
290.654629919
290.657403387
290.654888526
290.663948367
514.597329019
389.564708809
337.780694813
310.308148796
300.209271168
293.794170486
291.845008542
291.051386355
290.803810312
290.743795087
290.739549364
290.746804933
290.755836193
290.763078054
290.768971258
290.774918996
290.777814069
290.782055841
290.781154424
290.982637729
1130.64494195
2025.78414475
1256.70208191
555.155953302
358.137462588
309.807075145
295.64637454
292.360757925
291.2314982
290.923577978
290.866393663
290.863893564
290.871544387
290.878698351
290.884817635
290.890553574
290.894129487
290.897974765
290.901824227
291.180062355
1064.12422893
1914.07718185
1710.31602755
712.705313652
412.925226571
331.767752943
305.880353877
295.17338505
292.129084814
291.161614877
290.948621912
290.913865163
290.914320915
290.919250577
290.924300391
290.928667609
290.932090135
290.934749158
290.943344846
291.303823847
972.915542014
2027.93599361
1776.8986827
779.964369874
460.683054755
361.097208887
320.091190363
301.587554187
293.656298911
291.581715517
291.035268501
290.92448982
290.907922253
290.908779422
290.912530641
290.915933158
290.91886997
290.920897485
290.932433177
291.35619064
876.471324119
1932.35064097
1745.67526002
821.702126298
514.255072041
398.041872927
339.288794884
310.229125569
296.270872242
292.373047024
291.213999086
290.949242326
290.896503624
290.889502598
290.89181098
290.895016752
290.897713657
290.899963125
290.914478164
291.384225992
799.871700846
1820.19703312
1806.82776327
907.795953262
586.215632593
442.954704785
362.296756026
320.079654827
301.065162422
293.587679343
291.576485008
291.03222811
290.906119009
290.882108874
290.881384237
290.884449096
290.887166459
290.890041189
290.909072007
291.421485651
748.894649698
1713.24280109
1974.77417185
1045.58771766
678.624183755
494.228055925
388.365175514
332.590785876
307.098379812
295.683078073
292.249938613
291.216087081
290.947961342
290.88826975
290.880184981
290.882205769
290.884884478
290.888397497
290.913365804
291.47480818
726.152332868
1612.41555793
2263.02616802
1237.14545984
787.719228028
550.957290865
418.068706823
348.191278866
314.531086515
299.503343326
293.280316157
291.560785092
291.036357819
290.906736986
290.882655111
290.88175428
290.884071444
290.888223593
290.920393127
291.540378685
723.704058763
1545.45097611
2428.32255937
1453.89556986
909.087686591
614.607523629
453.310158365
367.882513313
324.777133756
304.479881657
295.02330449
292.167039883
291.200736054
290.942978523
290.88746432
290.880317665
290.881749408
290.886701033
290.927700472
291.616794725
739.735760721
1505.65990138
2481.11156839
1667.57952267
1036.72920052
688.428479174
496.26554823
392.733104441
338.076398493
311.11454945
297.669094643
293.157289795
291.487080684
291.010312356
290.897800501
290.878627708
290.878258007
290.884262328
290.936243406
291.706686033
775.34021675
1517.41022225
2450.90050126
1898.78549023
1189.4383978
778.572174591
549.365591452
423.726305155
354.81745402
319.21004884
301.976810392
294.564811578
291.951769862
291.127984285
290.919260283
290.878529556
290.874691023
290.881980846
290.947528818
291.814470735
828.942094363
1548.7500445
2382.82043169
2181.97423477
1380.3550748
890.367946242
614.53125725
461.234725276
375.388645401
329.911970977
307.352824567
296.63277785
292.663737536
291.320729269
290.958983024
290.882059498
290.871900703
290.880622097
290.962828919
291.945517785
893.539843461
1573.03823605
2297.96816601
2511.54065081
1618.4568346
1025.19529178
691.167999984
504.321952315
399.694800339
343.068772046
313.755281864
299.789084104
293.710813339
291.620923261
291.026283575
290.891934462
290.870920545
290.881081629
290.98381694
292.10761795
955.822903443
1572.70019019
2203.82988647
2539.99803979
1881.63482427
1171.8340551
772.065894061
550.532710202
426.997184551
358.555678361
321.952554523
303.702353839
295.177366903
292.074679186
291.134467964
290.912662133
290.873867885
290.885253192
291.013546938
292.31167425
1005.8115951
1554.04389984
2110.78899479
2456.72781578
2166.39738854
1320.19101006
852.863674596
599.899158405
457.424990782
376.743971005
332.063458664
308.707583544
297.201089632
292.750759355
291.303914699
290.951967557
290.885189405
290.897232258
291.057859548
292.57363715
1044.33506306
1533.67317221
2025.77273092
2367.08004736
2411.13921689
1482.57375615
945.080302937
661.008646174
496.074724259
400.05416396
345.161063139
315.29817385
300.10497088
293.695946986
291.570294848
291.022861979
290.913801298
290.925448744
291.128011037
292.919093514
1078.48914609
1511.12630052
1948.6041991
2284.1673663
2405.3158476
1703.963056
1088.16527405
757.706563985
558.113441403
436.212901533
364.552997887
324.773342605
304.309746881
295.112210322
291.998870006
291.149080778
290.977306634
290.986646692
291.24535556
293.390188911
1101.07667389
1474.96625964
1862.8344269
2187.44264866
2349.67876061
1962.14686573
1331.95004995
927.064873897
667.222716979
498.871938517
396.754498673
339.706254641
310.654803265
297.289564884
292.686484064
291.377169758
291.109760759
291.112876463
291.44936366
294.060426215
1105.04906879
1424.43116978
1764.1073106
2076.11177788
2307.48316134
2286.60364899
1696.64868294
1222.8719831
862.516393879
609.886522897
452.469273546
364.444149045
320.085725604
301.037896222
293.691200821
291.792369471
291.376086169
291.363114276
291.807577664
295.042109883
1092.07161502
1358.31662228
1646.97853141
1932.58285267
2192.12789125
2338.03048999
2166.53593479
1679.95351745
1186.90842892
797.976601665
545.149216069
403.308438919
334.649462476
306.07673463
295.318504215
292.54901122
291.895453535
291.839577737
292.431568521
296.48934769
1064.04625292
1280.99342274
1519.60669793
1768.9131199
2024.37565341
2240.34043728
2329.69343166
2213.47213281
1678.05609894
1098.77210363
687.937656871
459.368682406
354.283238192
312.735898624
297.788184044
293.927014293
292.909818613
292.738657623
293.517247193
298.602884317
1027.327334
1200.80206749
1394.35910725
1604.32041067
1835.04145783
2063.04840605
2228.37367189
2328.38977386
2196.93741707
1507.30490619
880.460343305
528.491026821
376.459407275
320.103008738
301.832956439
296.321421452
294.844346451
294.398745855
295.338194877
301.630177146
989.073568535
1125.79446608
1282.11670233
1458.30915397
1662.2978657
1880.81571512
2070.5556374
2242.72488556
2355.25451692
1868.72646307
1072.75997404
592.072139772
396.366634456
328.522997662
307.349525258
300.846269233
298.452830858
297.370678598
298.294249866
305.854775864
962.985915848
1071.15944509
1200.80390464
1353.85193094
1534.91193283
1735.65021776
1945.72486128
2156.64319313
2326.15200939
2024.88595065
1168.35315979
626.456226704
411.943731865
339.020781338
316.500778281
308.826311265
305.011707715
302.645891613
303.020013908
311.612489545
958.116971966
1048.51037416
1163.10025342
1305.16769521
1479.57465468
1687.5426896
1915.12615456
2133.72555495
2284.4516855
1954.76850558
1139.68090963
622.024063488
420.210618879
353.048707697
331.954892186
322.937320756
316.755520715
311.871581957
310.568541238
319.368962857
988.096231852
1072.35040543
1186.29320049
1336.36801428
1533.44424385
1763.47436409
1992.37573687
2162.16082154
2164.63512668
1621.93911047
966.418297331
580.097982634
426.810342258
375.889278131
358.325556373
347.405969603
337.315607827
327.840483197
322.668082122
329.781646259
1081.79924989
1175.62059087
1310.29817624
1498.17624722
1722.4710695
1950.39058238
2116.96590749
2105.9480275
1676.35835552
1186.47529578
775.356273806
545.512035549
449.630115814
417.210270565
403.018915052
388.9544928
372.546568801
355.110549073
342.145206673
343.935510059
1273.2573727
1392.48856165
1565.98292272
1770.28298515
1978.66245102
2136.84185297
2101.00181199
1599.01581441
1203.45511876
917.630764859
694.458047669
562.922590732
508.09838206
489.918135643
477.359507206
458.264873448
431.838388549
401.092765289
373.635384019
363.54360928
1541.52396452
1679.17109995
1847.15081806
2029.36612697
2174.44043903
2129.8541424
1635.82264909
1258.75429834
1012.03916792
835.615753827
708.603154563
638.984896419
614.950481944
305.252947815
306.363355399
300.108574395
302.478496396
297.234362841
299.616724003
295.887289256
298.286328907
295.204463989
297.737271111
294.92836816
297.600167197
294.918464398
297.707807491
295.093739883
298.009792275
295.418108354
298.491397064
295.885019959
299.1655453
296.508634773
300.068332209
297.321148116
301.260873426
298.370690268
302.830038532
299.730150032
304.890199645
301.496007038
307.580466342
303.787082658
311.05794601
306.728101477
315.47713264
310.45744472
320.986760328
315.056439543
327.682423387
320.69862826
335.650631419
327.426878362
344.869054398
335.385542244
355.277585619
344.559257668
366.679306324
354.879667708
378.785794242
366.154712484
391.282401155
378.262985375
403.862573611
391.409926623
416.554455051
406.354798097
429.755147807
)
;

boundaryField
{
    inletfuel
    {
        type            fixedValue;
        value           uniform 294;
    }
    inletair
    {
        type            fixedValue;
        value           uniform 294;
    }
    outlet
    {
        type            zeroGradient;
    }
    axis
    {
        type            empty;
    }
    leftside
    {
        type            fixedValue;
        value           uniform 294;
    }
    burnerwall
    {
        type            zeroGradient;
    }
    front
    {
        type            wedge;
    }
    back
    {
        type            wedge;
    }
    procBoundary0to1
    {
        type            processor;
        value           nonuniform List<scalar> 
27
(
1651.93437902
1663.13206755
1687.22052015
1719.91981731
608.941245229
596.555076401
569.900212516
529.153497325
476.804199932
424.026770467
391.140087395
1790.57394841
1919.90625508
2067.33077398
2186.96412313
2174.13959398
1821.96067649
1427.10816394
1150.10540043
983.251861565
877.452753221
812.039341562
786.791248592
608.941245229
787.451269015
423.645173307
443.917420355
)
;
    }
}


// ************************************************************************* //
