/*--------------------------------*- C++ -*----------------------------------*\
  =========                 |
  \\      /  F ield         | OpenFOAM: The Open Source CFD Toolbox
   \\    /   O peration     | Website:  https://openfoam.org
    \\  /    A nd           | Version:  7
     \\/     M anipulation  |
\*---------------------------------------------------------------------------*/
FoamFile
{
    version     2.0;
    format      ascii;
    class       volVectorField;
    location    "0.06";
    object      U;
}
// * * * * * * * * * * * * * * * * * * * * * * * * * * * * * * * * * * * * * //

dimensions      [0 1 -1 0 0 0 0];

internalField   nonuniform List<vector> 
814
(
(0.921434398749 3.41800616966e-15 61.2426156774)
(-3.14727728303 8.1487341294e-16 60.6438466183)
(4.25519494433 2.48061691424e-16 57.2534143331)
(0.862710584699 3.71229527945e-15 63.7583954173)
(-1.58551157685 1.39768874908e-15 62.5825540643)
(2.05762968951 3.16116070781e-16 57.2901726139)
(0.593031362871 -4.97083621835e-15 64.2548109082)
(-1.14065342155 -1.08389215769e-14 62.7472057124)
(1.29973104403 -1.32955662673e-14 55.7070289244)
(0.34820444613 -9.71085608841e-13 61.9040596318)
(-1.27694280418 -1.09960278851e-12 59.8915640209)
(3.14913306777 -3.2935958792e-12 48.999631168)
(0.321847744849 -1.32316352746e-10 60.3349870219)
(-0.190896561328 -5.66080728128e-11 57.5949696961)
(2.15201200217 -1.34728968161e-11 45.5710032937)
(0.223655938719 -1.9324491139e-10 60.1763147962)
(-0.0323321769803 -7.32463731582e-11 56.7155550109)
(1.29802959075 2.1650594082e-11 44.2418156922)
(0.0603916623744 -9.03187442057e-11 58.9167178573)
(-0.0451519128728 -5.68940886043e-11 54.7520530332)
(0.657717481292 5.41064006786e-11 42.3383093859)
(0.0696745005114 -4.27712720781e-11 57.4809452113)
(0.0830202184697 -3.0661882537e-11 52.7561363886)
(0.482031132865 8.02835270553e-11 40.8126221816)
(0.09288278601 -1.89746970829e-11 55.8838096677)
(0.198895124106 -1.32376589954e-11 50.7626648632)
(0.456951412636 5.03670344655e-11 39.5822802579)
(0.126491729109 8.58405667727e-11 53.7262905903)
(0.330371095277 1.40377575559e-11 48.4596309726)
(0.547307683555 3.53064661371e-11 38.2382286952)
(0.17785966387 3.20133153482e-11 50.7641057594)
(0.458931293823 3.04565058635e-11 45.6528336415)
(0.664666633612 6.48027269972e-11 36.5048554723)
(0.238901942752 3.58595466931e-11 46.8923589515)
(0.58603225913 1.09271377118e-10 42.2319418012)
(0.809390549229 1.00315979396e-10 34.2383409585)
(0.281584827788 2.5562631598e-11 42.185189374)
(0.669913940013 6.75157559124e-11 38.1830016731)
(0.909684285776 6.86490896448e-11 31.3717904301)
(0.297399292165 -1.62839857025e-11 37.0182756326)
(0.713610902848 -7.03298853445e-11 33.7632683183)
(0.978297710202 9.24135664229e-12 28.1236522146)
(0.277851872007 1.12543297641e-10 31.8974685553)
(0.683003896913 -1.36911807243e-11 29.3508345323)
(0.953283420434 -7.20246898103e-11 24.8006534219)
(0.232626552682 1.59979191386e-11 27.3027660716)
(0.576687845989 -7.55741219219e-12 25.3436701603)
(0.813407186094 -2.32872073494e-11 21.7311501403)
(0.177210479853 -8.35276498759e-13 23.5793684232)
(0.442629649576 -9.86817784803e-12 22.0646202852)
(0.630459544562 -2.04922288591e-11 19.196593518)
(0.132518399602 -1.00143563372e-12 20.8763318087)
(0.326585316253 -2.94362083843e-12 19.6756433418)
(0.463565062265 5.12442180496e-14 17.3583092467)
(0.0844254917015 -7.14321044873e-13 19.0986014302)
(0.213812517683 -2.06198341394e-12 18.1118936471)
(0.307191325247 -3.68870660767e-12 16.1796064922)
(0.0449389863409 -6.00051911643e-14 18.0720514745)
(0.112698133697 -1.99535977673e-13 17.2270361677)
(0.153619444995 -6.30868024444e-13 15.5571578646)
(0.0158811936798 2.34839743756e-12 17.6549926186)
(0.0352032441938 6.81109436924e-12 16.9081582764)
(0.0291018553921 1.17742835866e-11 15.4263414213)
(-0.000166692902365 4.70410396113e-11 17.7528378727)
(-0.00370738328831 1.50531647296e-10 17.0821687393)
(-0.0288516449823 5.58699150551e-11 15.7549550953)
(-0.0170895598503 2.03836397855e-11 18.2102773036)
(-0.0496545437434 5.29108708322e-11 17.6041362861)
(-0.0992498236374 4.65912255276e-11 16.4122696757)
(-0.014510660796 -5.88859062982e-11 18.833920289)
(-0.0451688535912 2.85755237182e-11 18.2895477322)
(-0.0901044293696 1.11184511899e-10 17.2231296218)
(-0.00900296935803 4.05566428565e-12 19.4149123262)
(-0.0264592429594 2.69091600005e-11 18.9295860855)
(-0.0588216480553 4.92169824147e-11 17.9752291352)
(0.0115921649435 6.57057934832e-11 19.60729751)
(0.0240044937742 -8.38275458202e-11 19.1829488166)
(0.0241472353839 -9.10306769597e-11 18.3417410417)
(0.0454594704699 -7.77907524106e-12 19.0421473224)
(0.116009421063 -3.19898946604e-11 18.6685277716)
(0.172869149017 -3.94481737278e-11 17.9171419751)
(0.0812355778534 -1.50210057063e-11 17.367859515)
(0.210999703229 -4.38440231223e-11 17.0394094942)
(0.328227242408 -7.71766090028e-11 16.3636516813)
(0.128454892071 1.48398652504e-12 14.3160431557)
(0.33371658695 5.99963766323e-12 14.0313944102)
(0.521651826454 2.19588411635e-11 13.4310165521)
(0.145560650617 -1.86899552882e-11 9.87156485395)
(0.378042465654 -5.49766599254e-11 9.63034783296)
(0.591864132331 -2.6179731038e-12 9.11300184608)
(0.134041733658 1.5120516854e-12 4.85921715478)
(0.348909899161 5.44623376857e-12 4.6724423556)
(0.54525798524 1.64842135767e-11 4.27504286219)
(0.0593453938177 2.01235429995e-11 1.35786465142)
(0.155929058472 5.8507308103e-11 1.23441578796)
(0.244989770792 1.05072985737e-10 0.988852478988)
(-1.4161176665 -3.00404856145e-11 13.8263790001)
(0.824872770111 -1.97679019521e-11 18.3410842845)
(0.786393006871 -1.67750618252e-11 24.3457246551)
(0.299453636136 -7.36167006994e-12 26.1983619279)
(0.270856128834 1.10781430252e-11 27.2261339484)
(0.345944948885 1.76110426516e-11 27.812618847)
(0.499953532905 2.36321882108e-11 27.8620470265)
(0.660986698235 3.45042168952e-11 27.3139094395)
(0.877241046262 4.60449967866e-11 26.1605813688)
(1.03168044629 4.16653542874e-11 24.3650922574)
(1.13023332424 1.83827836783e-11 22.1709083204)
(1.11208203666 8.2495993566e-12 19.8560317233)
(0.959075663383 1.12577799195e-11 17.6909491148)
(0.75011269807 -2.80985919895e-11 15.9033800444)
(0.548370826058 1.70055785358e-11 14.6400865242)
(0.353308719098 -9.83430731688e-12 13.8771951277)
(0.161410081748 -2.32586282657e-12 13.543406852)
(0.00165355478832 1.96216885451e-11 13.6300771229)
(-0.0778579349767 2.2285784987e-11 14.1502080889)
(-0.16624218305 4.12925396243e-11 14.9702458205)
(-0.152927156923 7.59026689417e-11 15.9257225938)
(-0.107227212976 4.66634416734e-11 16.802834911)
(0.0107424951343 -5.09473989872e-11 17.2980890572)
(0.214035556543 -3.15267600799e-11 16.9675573513)
(0.432660043341 -3.0909902771e-11 15.4930239705)
(0.689682641409 5.99287635167e-11 12.6424311862)
(0.796048796518 3.44716981152e-11 8.42764048763)
(0.722338544304 2.91980491556e-11 3.74976338139)
(0.324209355729 1.60984412269e-10 0.677773099262)
(0.0480083573373 -4.98505045333e-12 1.83940497342)
(0.148427138007 -3.76325612258e-11 1.94232726095)
(0.190943902368 -7.01846079835e-12 1.8907667148)
(0.232080564801 -1.49081276773e-12 1.944353485)
(0.242959325968 -3.62435445297e-13 1.93332047897)
(0.251853567642 -9.97736422104e-14 1.96165018523)
(0.245314332115 -5.58836506093e-14 1.96380137435)
(0.239165488239 -1.25618996918e-13 1.97698662154)
(0.219943450824 -3.52642533594e-13 1.9808582034)
(0.203560645261 -1.14983428465e-13 1.99169491083)
(0.183111870006 -1.00999041454e-13 1.99630432569)
(0.168384384826 -2.91554279972e-13 2.00142972123)
(0.146725833441 -2.48834476616e-13 2.00377079675)
(0.131185413979 -4.25065649027e-14 2.00576420146)
(0.106344896241 -5.66961234438e-15 2.0091843326)
(0.0998496835957 -6.22677371518e-16 2.00849352535)
(0.0700260966053 4.54520166732e-17 2.01260346026)
(0.0669958859956 9.35076646038e-15 2.01093117482)
(0.0304000355949 1.41285198827e-13 2.01620888819)
(0.0105735989989 2.90624232872e-15 2.01297078197)
(0.373953073222 -9.02159680583e-12 1.53244510679)
(0.228292197702 -6.75119686042e-11 1.50136058695)
(0.27747561266 -1.49632654206e-11 1.61015903885)
(0.368808128954 -3.85874686337e-12 1.7143215378)
(0.331879877568 -1.11757075952e-12 1.77035306398)
(0.344320932423 -3.84820573657e-13 1.87828644443)
(0.299659785679 -4.36656645728e-13 1.91111855701)
(0.281411915331 -1.71671422516e-12 1.95392702693)
(0.244617573342 -1.12023843974e-11 1.96585823634)
(0.218367448536 -1.41275819131e-12 1.98898052277)
(0.181903289871 -1.06764270128e-12 1.9973217156)
(0.159811923282 -7.11541143895e-12 2.0072856769)
(0.131710016014 -5.76895057217e-12 2.01105918614)
(0.118067659857 -3.96074638713e-13 2.01465725577)
(0.0900720113355 -3.45415664658e-14 2.02077187068)
(0.0914219852905 -4.37190722212e-15 2.01908412335)
(0.0583719414591 -9.33083817884e-15 2.02760967523)
(0.0691278137423 1.07151532845e-13 2.02383644897)
(0.0267105544886 3.85698066011e-12 2.04344238219)
(-0.0130801219124 3.94693615264e-14 2.03043757458)
(-0.0901401007449 -1.52154042049e-11 0.409267694239)
(0.144526968451 -5.50471635687e-11 1.8378935256)
(0.472074868598 -1.96811919026e-11 1.29523322827)
(0.491895461382 -6.43154675415e-12 1.67667646549)
(0.48384159797 -2.06653134166e-12 1.68831890072)
(0.459549522276 -7.40150038907e-13 1.85780482722)
(0.354325709015 -7.89862003522e-13 1.89376319094)
(0.308295594852 -2.59317892627e-12 1.9571669205)
(0.247090468809 -9.35263603197e-12 1.96972161858)
(0.211727491474 -2.01138266713e-12 1.99491205674)
(0.164535046866 -1.72303099926e-12 2.00143393383)
(0.139126919455 -6.67618321965e-12 2.01146276216)
(0.108235446298 -5.45766959593e-12 2.01432075624)
(0.0974141092035 -6.16139772618e-13 2.01745240641)
(0.0694713391466 -6.51760541097e-14 2.02303451604)
(0.077484375968 -2.07415456214e-14 2.02031488013)
(0.0448346841 -2.04719919745e-13 2.03023680826)
(0.0682967722948 1.66472002623e-13 2.02508265193)
(0.0219986719967 3.90573153663e-12 2.06114912196)
(-0.025587283044 6.2177448366e-14 2.02804780533)
(-2.27221979643 -4.28675444107e-11 1.28259716002)
(0.54263895173 -4.91951825404e-11 1.2843750492)
(0.201769490288 -2.41576983485e-11 0.979536780276)
(0.828488260058 -8.68672625415e-12 1.58101757214)
(0.595844329481 -3.34451444848e-12 1.5785373829)
(0.589142257746 -1.31320073834e-12 1.84221895979)
(0.410500782093 -1.56461574602e-12 1.8850288169)
(0.351602384174 -3.53785007092e-12 1.97334130553)
(0.262827217045 -8.08816369059e-12 1.98531340484)
(0.221122105511 -2.60664061925e-12 2.00787108582)
(0.164080801185 -2.37245478761e-12 2.01053882569)
(0.136148263868 -6.79561781792e-12 2.01819827913)
(0.101985321917 -5.40681961834e-12 2.01896035508)
(0.092672229681 -8.88111406935e-13 2.02062303316)
(0.0633305708122 -9.85340571261e-14 2.02444747135)
(0.0760813319266 -1.04229075578e-13 2.02067634521)
(0.041644087658 -2.62958117607e-12 2.03049852572)
(0.078485358017 1.97076229635e-13 2.02495357645)
(0.0220814995901 5.5614413015e-12 2.07442221776)
(0.0665321974768 2.52494565531e-14 2.0361245123)
(2.2653587469 3.31786344063e-11 5.18992993596)
(1.17322953543 -1.14064722644e-10 -0.527341311308)
(1.25753748512 -3.60446961556e-11 1.37108772074)
(1.30787672079 -1.46010024521e-11 1.4850882869)
(0.946027911195 -5.91805990946e-12 1.72038571642)
(0.856146870535 -2.91218950742e-12 1.89110014675)
(0.535977730546 -1.03454110224e-11 1.93979281131)
(0.438367618259 -1.14228040948e-11 2.00387312381)
(0.30446455736 -7.87923083439e-12 2.00847900794)
(0.253786770626 -3.3152050865e-12 2.02349915138)
(0.186946437987 -3.52331584288e-12 2.02062830954)
(0.155969093226 -1.23699454446e-11 2.02457464532)
(0.117356708854 -5.97975721562e-12 2.02282176422)
(0.107327487761 -1.20617029865e-12 2.02258587376)
(0.0744356274274 8.16698684743e-14 2.02426753283)
(0.089054414372 -1.84093312633e-13 2.01953466576)
(0.05044481142 -2.53391679184e-12 2.02765003212)
(0.0987429257697 2.10557956011e-13 2.02210819189)
(0.0386962034592 5.57683138069e-12 2.06877616868)
(0.186075830337 -2.89802178202e-12 2.04595632047)
(1.35355784297 -9.57153081691e-11 9.20253940524)
(0.33626328546 -2.04073214451e-10 1.89362648433)
(1.17031809656 -5.1275996298e-11 2.42223218747)
(1.1992305977 -1.87198963339e-11 1.89394041143)
(1.04930219959 -7.60698005308e-12 2.21561816752)
(0.86693073606 -4.61832103293e-12 2.10628309664)
(0.595906085292 -1.00490196674e-11 2.08627170385)
(0.491015762904 -1.65036875185e-11 2.05956266205)
(0.34869753483 -8.26267785171e-12 2.04311368217)
(0.294424147298 -4.34560833333e-12 2.04425104273)
(0.219468364162 -7.88255281076e-12 2.03337449559)
(0.185746312154 -1.16231185643e-11 2.03229347862)
(0.142114003339 -1.08923250944e-11 2.02752725123)
(0.129968655012 -1.58448814118e-12 2.02491794659)
(0.0926305314565 3.38050505868e-12 2.02416599283)
(0.107343907707 -1.49223347689e-13 2.0183408813)
(0.0637673220335 -2.4615273947e-12 2.02320361894)
(0.120001587308 2.24116462668e-13 2.01680359114)
(0.0543774144997 7.19598432546e-12 2.0457882036)
(0.260409461399 -2.62330944146e-12 1.99783123368)
(-0.0598126354724 -8.59421015723e-11 9.08237300245)
(0.196903310262 -1.82088276252e-10 0.0665606849299)
(1.06803534719 -5.5565843501e-11 1.55938294043)
(1.0643330504 -2.06279708115e-11 2.2856205462)
(1.00306186362 -8.75674197952e-12 2.47108889744)
(0.806874388314 -7.01172459747e-12 2.31168651648)
(0.609358868425 -1.87913276811e-11 2.20886668992)
(0.50935348625 -1.57311038327e-11 2.11976318)
(0.385342883387 -8.62326175423e-12 2.08180583151)
(0.328674721186 -5.49377422425e-12 2.06648923563)
(0.248733073856 -8.43065417251e-12 2.04817208962)
(0.213531454261 -1.13485761331e-11 2.0408648364)
(0.165489491479 -1.03413656559e-11 2.03299925079)
(0.15098457743 -1.93182073418e-12 2.02770204099)
(0.10965292162 2.96065247528e-12 2.0243607092)
(0.123784892176 -9.11486549932e-14 2.01737183939)
(0.0758077499171 -2.33956473101e-12 2.01785774983)
(0.136253528755 2.3151183259e-13 2.01048040699)
(0.0634755226911 6.94318837245e-12 2.01567044089)
(0.283269799945 -2.46601722118e-12 1.94992859571)
(0.0684056682165 -3.87086239796e-11 9.40710434204)
(-0.402189430558 7.5114795082e-11 0.202875411946)
(0.853184353175 -2.69481298261e-11 1.44923094398)
(0.915555375496 -1.73865715606e-11 2.58417873756)
(0.848369205965 -9.4602743877e-12 2.63720757735)
(0.724690773237 -9.63209256438e-12 2.46578262574)
(0.581820153382 -1.7915691831e-11 2.28978895112)
(0.510557977464 -1.53058176057e-11 2.17357291069)
(0.408146899381 -9.28656538723e-12 2.11453284372)
(0.352654508364 -7.48785075735e-12 2.08577685307)
(0.271116839551 -1.59290974898e-11 2.0636649407)
(0.235317224264 -1.16257176168e-11 2.04964019583)
(0.184452416223 -1.01081004024e-11 2.03880770541)
(0.167844303364 -2.35948896393e-12 2.03071849736)
(0.123492077999 2.58351583721e-12 2.02468844817)
(0.136636733428 -1.61547290569e-14 2.01653432534)
(0.0852538049586 -2.16184993996e-12 2.01207148023)
(0.146184107397 2.39008090344e-13 2.00414156604)
(0.0673489408888 6.72724620261e-12 1.98644299956)
(0.266311094299 -2.2449224002e-12 1.91714119552)
(0.223854061243 -1.41795419995e-11 10.2702339421)
(-0.631243257776 2.98897296306e-11 -0.0183197596089)
(0.754843467379 7.18473031203e-11 1.38227077012)
(0.821635762094 -5.19210591187e-12 2.61509805963)
(0.761529029482 -9.13473210004e-12 2.70370781925)
(0.673166444193 -1.0971260629e-11 2.52997590726)
(0.564518757632 -9.42469518488e-12 2.32912488366)
(0.509964470891 -1.4065271257e-11 2.2092708696)
(0.422625818255 -1.07519467461e-11 2.14101210483)
(0.372670608075 -1.76487618294e-11 2.10250050152)
(0.290030280137 -2.2068639479e-11 2.07849434128)
(0.252703673783 -1.2197558597e-11 2.05849785968)
(0.200559082473 -9.97826565182e-12 2.04463205706)
(0.182038521018 -3.09362400529e-12 2.03388611931)
(0.135510595842 1.85201422195e-12 2.02514039653)
(0.1470561694 2.23275400288e-14 2.01589073131)
(0.0930999436836 -1.96846951065e-12 2.00642779731)
(0.15117447065 2.46905987756e-13 1.99843508944)
(0.0681928424111 6.47232738061e-12 1.96233753823)
(0.236060239785 -1.96446193533e-12 1.89521955105)
(0.604209647863 2.43914873414e-11 11.2223996681)
(-0.796654822191 2.5622693151e-10 0.634471871299)
(0.694422216651 2.86394565779e-11 1.33197117617)
(0.837962301516 -4.96899675379e-12 2.60165461754)
(0.736820791742 -9.29101884163e-12 2.70895416443)
(0.669943995902 -1.14529282682e-11 2.54685671528)
(0.56598368634 -1.9062970429e-11 2.34684850796)
(0.52147427164 -1.42250571466e-11 2.23469524412)
(0.437496831682 -1.20811503083e-11 2.16795225936)
(0.3906337494 -1.74765138313e-11 2.1178361627)
(0.307881922462 -2.04633380956e-11 2.09077321023)
(0.268122664893 -1.27010841647e-11 2.06734187248)
(0.215650556022 -1.03784994957e-11 2.05025299481)
(0.195289032642 -7.63015581429e-12 2.0370747217)
(0.147102713855 -2.27084861926e-12 2.02571359034)
(0.156217146919 -1.32473048704e-13 2.01549886811)
(0.100298221631 -1.79522612113e-12 2.0014408609)
(0.15281113193 2.54437364226e-13 1.99381683678)
(0.0674163544203 6.17799037754e-12 1.94418999999)
(0.203650499348 -1.68917327681e-12 1.88126145753)
(0.898520857847 1.22080085085e-11 11.8958666327)
(-0.735458334978 -2.15846139058e-11 1.39896615535)
(0.742628108061 -1.16482987512e-10 1.51552070228)
(0.895048676474 -2.09372628365e-11 2.49181895213)
(0.747878219555 -1.05532685193e-11 2.72775906267)
(0.696923802176 -1.14624443436e-11 2.54321025201)
(0.582413014832 -1.58124244733e-11 2.37457238793)
(0.541178407901 -1.26161732481e-11 2.25980237774)
(0.451209703876 -3.297345908e-12 2.19520403455)
(0.405229713136 -1.65936140947e-11 2.13417781579)
(0.326817961309 -1.94133257777e-11 2.10216563011)
(0.283745930859 -1.33330344287e-11 2.0762882081)
(0.23027877733 -1.49690121869e-11 2.05602855221)
(0.208117534453 -8.30601466544e-12 2.04024503511)
(0.15861630207 -6.15117111572e-12 2.02653784008)
(0.164502187002 -3.54569404713e-13 2.01552167368)
(0.107147550317 -1.66254223317e-12 1.99759516559)
(0.152178357002 2.5414911893e-13 1.99068261162)
(0.0660304898565 5.72121921115e-12 1.93185483924)
(0.173345290681 -1.45972807463e-12 1.87445151875)
(1.09260225249 -1.92946561451e-11 12.1714310084)
(-0.0768614793593 -2.67222120272e-10 2.12596554443)
(0.727455839134 -6.63397455874e-11 1.59035857145)
(0.843315240866 -1.76494138261e-11 2.28419839449)
(0.762466296117 -1.00048857599e-11 2.75415626232)
(0.707094898938 -1.20074698974e-11 2.54451957498)
(0.603095574617 -2.32314974553e-11 2.4194969284)
(0.554812471654 -1.18302661743e-11 2.28772520433)
(0.465234690679 -6.0065439495e-12 2.22273239946)
(0.417792362219 -1.5551309867e-11 2.15311958679)
(0.344906285542 -1.77339733085e-11 2.11507313674)
(0.298771437289 -8.80174305279e-12 2.08433679769)
(0.244087328786 -1.41947281109e-11 2.06211351803)
(0.220145381641 -9.08974481433e-12 2.04334041097)
(0.169854861327 -6.36236114333e-12 2.02775746209)
(0.171853111807 1.96426473313e-12 2.0161134232)
(0.113583052638 -1.70808920853e-12 1.99522805876)
(0.15002171858 1.74745244206e-13 1.98922743627)
(0.0646413685116 2.02362035119e-12 1.92482813803)
(0.146439657505 -1.41517238479e-12 1.87319049979)
(1.15917612476 -5.03633098922e-12 11.9037123305)
(0.382295821571 -3.94309586408e-11 2.67892874109)
(0.623305046063 1.30001012389e-10 1.24546102635)
(0.774005625384 9.14811772051e-12 2.04415872288)
(0.767774530061 -7.01964129295e-12 2.72748692012)
(0.702577014179 -1.26925415398e-11 2.56217588232)
(0.621031392841 -1.95909222801e-11 2.47019663278)
(0.559429734876 -1.21758028395e-11 2.31917680229)
(0.478078088687 -1.73228285525e-11 2.25308517631)
(0.427830418785 -1.52133177224e-11 2.17381698743)
(0.360796402695 -1.66464666181e-11 2.12740227809)
(0.312694716984 -1.53503524638e-11 2.09228463399)
(0.257500962745 -1.41449699353e-11 2.06839812378)
(0.231080254348 -9.6714783843e-12 2.04653366574)
(0.180672156728 -6.8943389055e-12 2.02945544928)
(0.17828748774 1.20092198234e-12 2.01738047329)
(0.119580750929 -5.93930955207e-12 1.99449359299)
(0.146959154292 -6.58818733935e-14 1.98946818212)
(0.0635619818628 1.70466404924e-12 1.92236047042)
(0.123658043378 -4.42655141395e-12 1.87583607901)
(1.20427619177 7.38688283346e-12 11.3359776083)
(0.610944161864 3.64598372368e-11 3.09417898261)
(0.573956751789 3.33722297646e-10 1.11664719669)
(0.743071753345 4.47590590958e-11 1.80918946633)
(0.743468682987 -2.71354693924e-12 2.62828796561)
(0.695108504169 -1.37150838134e-11 2.58930346731)
(0.635168296356 -2.91719727769e-11 2.50817953602)
(0.559164732194 -1.4751629255e-11 2.35386834752)
(0.491518159791 -1.62853411019e-11 2.28104222088)
(0.431485507394 -1.55076722078e-11 2.19409791086)
(0.373572954113 -2.21143187709e-11 2.14137890207)
(0.326439064183 -1.56118758197e-11 2.10109478062)
(0.269829132668 -1.41726615708e-11 2.07393816632)
(0.240784966727 -1.04288197242e-11 2.05014777919)
(0.1909831416 -1.28918138552e-11 2.0316144955)
(0.183948742809 5.18919666628e-12 2.0193838274)
(0.125187359533 -5.3175242857e-12 1.99540322837)
(0.143509668145 -3.0747301843e-13 1.99131926511)
(0.0629690709766 1.28758220407e-12 1.92366703928)
(0.104821435156 -4.26216515891e-12 1.88112416623)
(1.15108642061 1.49474237185e-10 10.7010179131)
(0.614906783102 9.85203850143e-11 3.52106688415)
(0.467871685145 2.68779987209e-10 1.34388431612)
(0.679644709233 1.32936514566e-10 1.54677239735)
(0.703808405389 8.91407834046e-12 2.42821874487)
(0.678530830397 -1.31599843879e-11 2.60822325315)
(0.639157848175 -2.34571937418e-11 2.53071953793)
(0.559446013014 -2.4114291076e-12 2.39127748501)
(0.499041542721 -2.61338330647e-11 2.30452242117)
(0.434923236534 -1.7238639659e-11 2.21416658806)
(0.384707665345 -2.10353232635e-11 2.1583631277)
(0.337023009483 -1.66240450691e-11 2.1089403665)
(0.281372950617 -1.84482757841e-11 2.07763917516)
(0.24999550759 -1.14568976316e-11 2.05411396269)
(0.200717468915 -1.48375847821e-11 2.03416780168)
(0.189115545687 3.23002551715e-12 2.02212263999)
(0.130511608901 -4.91117162016e-12 1.99788262383)
(0.140101372436 -5.31701703682e-13 1.99464620239)
(0.0629013827413 1.09245356569e-12 1.92801045937)
(0.0895591971557 -1.42626253659e-12 1.88815492493)
(0.975964879824 8.60909929947e-11 10.1276432607)
(0.540540448569 8.2566764314e-11 3.91340669706)
(0.382728950637 1.41659919925e-10 1.63972914796)
(0.544654178212 1.71277114629e-10 1.32039794176)
(0.653836636942 1.83400118155e-11 2.09603731043)
(0.652440023724 -1.3368723573e-11 2.58941284254)
(0.61507500099 -4.46401873267e-11 2.53793752886)
(0.549899434475 -1.19086123399e-11 2.42821072382)
(0.496578653277 -2.43220069134e-11 2.32383995893)
(0.435998434189 -1.98409854468e-11 2.2363300434)
(0.390483524581 -3.32892417172e-11 2.17118479905)
(0.342872036551 -1.85985708293e-11 2.11686264008)
(0.292951389191 -1.76409744097e-11 2.08092664998)
(0.259509039365 -8.94868378553e-12 2.05835195639)
(0.2099424768 -1.36982109337e-11 2.03725355711)
(0.19406956433 1.60801367184e-12 2.02555042726)
(0.135658910264 -4.37329022212e-12 2.0018080792)
(0.137045732584 -7.07875945913e-13 1.99929118907)
(0.0633446841804 1.0127234625e-12 1.93465234563)
(0.0776712250982 -1.29490327094e-12 1.89633306742)
(0.757636785344 -8.95440948155e-11 9.69047775831)
(0.412363740769 6.58413520543e-11 4.2332626014)
(0.293034849653 2.55865893949e-10 1.86019783488)
(0.306620554909 2.13261899414e-10 1.15181963474)
(0.557153299455 2.65195009741e-11 1.59939427032)
(0.572302071162 -1.42533224221e-11 2.44078692303)
(0.539819822743 -3.29789100563e-11 2.51694403619)
(0.516739885402 -1.53523619148e-11 2.44534331693)
(0.473875903267 -2.40953848033e-11 2.33086252474)
(0.429258434696 -2.22327577363e-11 2.25058936417)
(0.389406419169 -3.02376941196e-11 2.17859143467)
(0.348108013842 -1.99296176652e-11 2.12443527642)
(0.303682968092 -1.73430836707e-11 2.08414349492)
(0.269161717711 -1.02452921885e-11 2.06096979193)
(0.218703539804 -1.27589783105e-11 2.0408277192)
(0.199031323447 -9.50581235596e-15 2.02953192986)
(0.140800955455 -3.85482631415e-12 2.00704156783)
(0.134576234635 -8.39597992162e-13 2.00513294797)
(0.064284038594 9.37605804453e-13 1.94304093654)
(0.0684905010773 -1.00869049961e-12 1.90532874865)
(0.537797565763 9.17006697204e-11 9.48419173868)
(0.230316944384 -6.18749130172e-11 4.58667987342)
(0.107375768853 -1.59263645567e-12 2.15414594879)
(0.0489009615758 8.77266847676e-11 1.10645738057)
(0.311840269438 2.0579596503e-11 1.13690222963)
(0.445425388292 -1.76116192816e-11 2.18814648841)
(0.442742614724 -3.06228909726e-11 2.48655985566)
(0.438721365642 -1.9697496835e-11 2.42985667919)
(0.428789037533 -3.60318772728e-11 2.3359979777)
(0.414760654582 -2.4631196495e-11 2.25457636014)
(0.385140042487 -2.92710362763e-11 2.17966251455)
(0.351642123231 -2.52339192006e-11 2.12624453139)
(0.312826038086 -1.37757935074e-11 2.08463366682)
(0.279631310337 -1.08031928179e-11 2.0615166736)
(0.228722717329 -1.19692653642e-11 2.0447537412)
(0.204419014403 -1.47721413523e-12 2.03416643209)
(0.146262263977 -3.48611498143e-12 2.01347552634)
(0.132928972732 -9.48722004689e-13 2.01208939532)
(0.0657207500419 7.30560456949e-13 1.95268492156)
(0.0615712765983 -9.73645811027e-13 1.91474797773)
(0.300942475042 -5.26034015878e-11 9.49545036587)
(0.0295846057201 1.59823041056e-10 5.00188961741)
(-0.132287605352 1.08205956597e-10 2.53314258101)
(-0.150151555576 7.99057020751e-11 1.2432912414)
(-0.0973284301936 1.03262584148e-11 0.894372893541)
(0.171309817448 -8.66856059841e-11 1.93103008099)
(0.290392283673 -3.46058051009e-11 2.40618554064)
(0.336400583409 -2.45749870669e-11 2.37912229238)
(0.376652760964 -3.28079015143e-11 2.31482208125)
(0.37757671258 -2.56415411105e-11 2.23617858711)
(0.3730979174 -2.82796822774e-11 2.1759298596)
(0.356028183123 -2.43515993265e-11 2.1198307967)
(0.324213502283 -1.47081889793e-11 2.08261725677)
(0.293379136766 -1.18290582961e-11 2.06193995372)
(0.240981386383 -1.68586742119e-11 2.04665692149)
(0.210829938015 -3.04968781566e-12 2.04008534807)
(0.15239974674 -3.30282425151e-12 2.0211461777)
(0.132324931304 -1.13099040868e-12 2.02032322271)
(0.067600913766 -2.65114510627e-12 1.96340110863)
(0.056360544193 -3.89010336797e-12 1.92464251855)
(0.0776353612931 -7.57734375815e-12 9.69639818266)
(-0.226815639558 2.06275525023e-11 5.60978957945)
(-0.465577718703 1.96106922713e-10 3.12524301206)
(-0.557728671018 8.50083833817e-11 1.69665327555)
(-0.421262169151 7.39111499325e-12 1.14246268372)
(-0.159246560197 -4.50198969218e-11 1.68274288723)
(0.0899670450951 -3.53105169695e-11 2.27144342913)
(0.236637842248 -2.80232576572e-11 2.28975772699)
(0.326222462154 -3.16093501914e-11 2.24331422735)
(0.368110007481 -2.59711152388e-11 2.19451039168)
(0.374413133216 -2.69082556404e-11 2.15233660587)
(0.361982803143 -2.33650335538e-11 2.10614270494)
(0.342719036664 -1.16775674094e-11 2.07515005578)
(0.309941883518 -1.24472598458e-11 2.05996024254)
(0.256954196619 -1.55043131105e-11 2.04686231441)
(0.221167822816 -4.53763882436e-12 2.04688617595)
(0.159614865893 -3.12651527086e-12 2.03047273685)
(0.133157936346 -1.29997450627e-12 2.02966036602)
(0.0700732920564 -2.80202534049e-12 1.97468937261)
(0.0529817884097 -4.11392807365e-12 1.93419912774)
(-0.118228292294 4.18953332539e-11 10.251255883)
(-0.454912442426 1.16804434862e-10 6.54743542696)
(-0.740081424068 2.29679317728e-10 4.04020930035)
(-0.853052046329 9.06005599086e-11 2.42692551563)
(-0.752539982779 9.33298079934e-12 1.55400358909)
(-0.473867655072 -3.46659704834e-11 1.50872863635)
(-0.139103503478 -3.60192570772e-11 2.03796051019)
(0.12737171333 -2.76168163842e-11 2.13027020123)
(0.313723007238 -1.40334935027e-11 2.13964834871)
(0.387859236808 -2.48591310702e-11 2.13611293901)
(0.40078765167 -2.6041877809e-11 2.12059264708)
(0.392301575232 -2.73940864473e-11 2.08969091373)
(0.373389191147 -1.3695938441e-11 2.06947924557)
(0.336815284432 -1.2931602251e-11 2.05809610977)
(0.2804446384 -1.5032892567e-11 2.05229005509)
(0.23680965412 -1.02653659283e-11 2.05396755118)
(0.168978186789 7.64314952275e-13 2.04273798959)
(0.135370419022 -1.25977290041e-12 2.04105958835)
(0.0730008731623 -3.02763863616e-12 1.98718890475)
(0.0505484547461 -4.34765457351e-12 1.94229565267)
(-0.229950038452 -2.17709005509e-11 11.1709962682)
(-0.58562207477 1.77485858432e-10 7.72257082363)
(-0.881400241838 9.64422275606e-11 5.14687994115)
(-1.01564766542 7.4681932649e-11 3.29498704025)
(-0.972484364458 8.11510344803e-12 2.03341839059)
(-0.709121841827 -4.41533456164e-11 1.4917871576)
(-0.307642410381 -8.75363332823e-11 1.62352332496)
(0.0945069429019 -2.95977892195e-11 1.81634199617)
(0.362816258473 -3.6561830182e-11 1.91313785918)
(0.471090719498 -2.55857041581e-11 2.04293405006)
(0.478709094428 -3.19694789012e-11 2.06620192669)
(0.450017663269 -2.06744714165e-11 2.07577041727)
(0.424146306241 -1.48560218229e-11 2.0617984203)
(0.375682961465 -1.3298503095e-11 2.06099054267)
(0.31155738551 -1.47475887284e-11 2.06218463727)
(0.256888647811 -1.4670533034e-11 2.06435749098)
(0.182645027458 3.55490751758e-12 2.0544709507)
(0.139226275113 -1.02493760404e-12 2.05361511994)
(0.0754683962242 -2.93274359224e-12 1.99929463671)
(0.0500901257776 -4.36288494694e-12 1.94790717306)
(-0.322070896235 4.63876126831e-11 12.3136424709)
(-0.648623253687 1.33450623243e-10 9.04317526648)
(-0.924739601242 1.17040968975e-10 6.3819077332)
(-1.06855276624 8.01760621038e-11 4.27936061199)
(-1.05392431653 1.94205356168e-11 2.63841253389)
(-0.852938345691 -2.72594403878e-11 1.59042507084)
(-0.423397821935 -4.692685436e-11 1.1888054437)
(-0.000237600718507 -2.77246892003e-11 1.20208970024)
(0.466408097568 -2.68993984453e-11 1.53569575873)
(0.599368043055 -2.39444776862e-11 1.87992112499)
(0.602036895624 -1.9375820153e-11 2.01814598635)
(0.565024841355 -2.04821087092e-11 2.07560509456)
(0.500857310057 -1.58487352309e-11 2.07321192382)
(0.439412617544 -1.36029697661e-11 2.08403833363)
(0.353445923706 -1.43994067059e-11 2.08538059058)
(0.281343245448 -1.41334958045e-11 2.08927293288)
(0.199007235895 2.63912227272e-12 2.07303953449)
(0.146483650654 -7.191293096e-13 2.06777629738)
(0.0774665944283 1.8525212997e-13 2.01073918236)
(0.0487676972147 -4.24563495138e-12 1.95703763437)
(-0.293384043561 5.52648290822e-11 13.504696486)
(-0.570116132935 5.26740350495e-11 10.3268156131)
(-0.787950028457 1.05776526293e-10 7.54584307431)
(-0.888351284912 9.0155255645e-11 5.16269862906)
(-0.874745547085 5.9415425359e-11 3.15009612948)