/*--------------------------------*- C++ -*----------------------------------*\
  =========                 |
  \\      /  F ield         | OpenFOAM: The Open Source CFD Toolbox
   \\    /   O peration     | Website:  https://openfoam.org
    \\  /    A nd           | Version:  7
     \\/     M anipulation  |
\*---------------------------------------------------------------------------*/
FoamFile
{
    version     2.0;
    format      ascii;
    class       volScalarField;
    location    "0.03";
    object      alphat;
}
// * * * * * * * * * * * * * * * * * * * * * * * * * * * * * * * * * * * * * //

dimensions      [1 -1 -1 0 0 0 0];

internalField   nonuniform List<scalar> 
814
(
0.000204778738575
0.000126653720728
1.62786045198e-05
0.000168898096563
0.000106915923653
1.40696679258e-05
0.000155957106102
9.83667829618e-05
1.31404618504e-05
0.000127741107221
8.35494072211e-05
2.52308914219e-05
0.000112990266254
8.02580224175e-05
4.43991211537e-05
0.000102983937176
8.26407914919e-05
6.55024181128e-05
9.93685952193e-05
9.17606162432e-05
8.89045363049e-05
0.000103741789247
0.000107210338488
0.000114734029729
0.000116936346429
0.000129232311713
0.000144626501335
0.00014027370148
0.00015842033724
0.000179450326893
0.00017412243413
0.000194381912083
0.000217864591
0.0002159802064
0.000234118394973
0.000255794286577
0.00025850330596
0.000271400052943
0.000286952148715
0.00029148456695
0.000297643571303
0.000304229029101
0.000302440837445
0.000302583447882
0.000299308381876
0.000280529252606
0.00027625618848
0.000265432959607
0.000231028002042
0.000225319118
0.00021253157146
0.000185551283271
0.000181223961732
0.000172026500857
0.000168340060869
0.000165733608915
0.000160202348477
0.000169566134552
0.00016762076441
0.000162791369363
0.000174279597359
0.000172252614727
0.000167598876697
0.000178572711728
0.000177009798072
0.00017313715587
0.000184173779805
0.000183026581855
0.000180355675234
0.000190541378438
0.000190334322048
0.000189344411981
0.000201583712969
0.000201719935021
0.000202342554059
0.000222576165153
0.000224238658364
0.000226977457263
0.00029985020833
0.000301554967723
0.000306224002829
0.00032659047002
0.000325410524026
0.000321391462948
0.000117814712883
0.000116754497775
0.0001146761428
8.75151807378e-05
8.81514195229e-05
8.93877923978e-05
0.000190274810393
0.00019204197508
0.00019543777905
0.000323914115064
0.00032525842026
0.000327856739852
0.000209575793078
5.43974100833e-05
7.48977190802e-05
9.70629574254e-05
0.000123204267633
0.000155524710547
0.000193092652982
0.00023202189346
0.000266812118673
0.000291516049488
0.00030010572939
0.00028594499457
0.000245675050705
0.000193479574876
0.000159321719654
0.000151809957711
0.000155266521562
0.00016046761578
0.000167361608228
0.000176351349042
0.000187595023142
0.000202798952806
0.000230661051345
0.000311689460404
0.000315491915433
0.000111817356825
9.11491697671e-05
0.000199955635528
0.000331244310914
3.14227856364e-05
0.000184564498668
0.000275064224678
0.000320382247173
0.000346362072093
0.00036761834876
0.000387705790673
0.000408511328054
0.000426354540143
0.000442324025676
0.000454221818138
0.000463213720372
0.000467454238995
0.000467813653682
0.000461571259767
0.000453649119431
0.000441018831674
0.000430989091273
0.000404964158924
0.000117128449213
5.44754529083e-05
9.32965680733e-05
0.000212275810931
0.000286169942776
0.00034334391388
0.000376990093985
0.000399763492693
0.000418295346479
0.000433707365402
0.000447840567343
0.000459720817473
0.000469124811025
0.000474449073809
0.000475265221745
0.000469998898463
0.000461085284714
0.000449027534016
0.000436839990003
0.000398939422018
0.000118997550663
8.05713180104e-05
8.15738008854e-06
3.69239796591e-05
0.000165622725208
0.000278423163658
0.000352949663939
0.000391707640615
0.000418627198382
0.000436760009019
0.000451064906802
0.000463110771221
0.000472734071435
0.000478574052412
0.000479606273367
0.000474841894298
0.000465532001465
0.000453667262644
0.000440484836631
0.000394472794705
0.00012054847017
5.6955450299e-05
6.41209540607e-06
3.48001873466e-06
1.2789910045e-05
6.43877663518e-05
0.000195077948346
0.000314408076928
0.000390506637154
0.000433601448909
0.000455967368285
0.000469511086582
0.000478999975288
0.000484398689446
0.000484974291625
0.000479780421997
0.000469957772975
0.000457595795307
0.000443879310615
0.000389915671628
0.000133581388096
2.35245489228e-05
1.22131412219e-05
5.03961483896e-06
2.7032203011e-06
6.95362895437e-06
3.59208452425e-05
0.000128520083043
0.000273799690208
0.000391786821697
0.000448938796476
0.000471655107352
0.000482555298922
0.000487541885398
0.000487558080884
0.000481634935917
0.00047148071043
0.000458660381661
0.000445095939973
0.000386825312359
0.000132902523964
3.70553366588e-05
2.27978711754e-05
8.59141238333e-06
3.27585924913e-06
3.24445967923e-06
1.5913892989e-05
7.61681489849e-05
0.000205160112766
0.000342344725142
0.000426742047984
0.00046417762489
0.000479431950528
0.000485003945926
0.000484707067681
0.000478148826829
0.000467729442112
0.000454792782653
0.000441259094888
0.000382266947518
0.000135083088398
6.66321698246e-05
3.68042467503e-05
1.14863393865e-05
3.50559234132e-06
3.44795821505e-06
1.53553211526e-05
6.68771725922e-05
0.000173381316919
0.000298066758378
0.00039290212912
0.000445229264616
0.000467186616789
0.000474427691294
0.000474019964713
0.000466863187464
0.000455992743261
0.000443106907134
0.00042911975924
0.000371641131744
0.000139192592631
0.000107452998556
5.65167307613e-05
1.57026553475e-05
3.93775355067e-06
3.92373331635e-06
1.53930759291e-05
5.84508678801e-05
0.000143686991135
0.000251724600447
0.000351019310063
0.000414830801327
0.000444014188098
0.000453584980145
0.000453152132107
0.000445258980125
0.000433594279955
0.000420601180994
0.000406140352888
0.000351712418685
0.000141989335985
0.000153694172023
8.17136350995e-05
2.15802205142e-05
4.67185971223e-06
3.95199273387e-06
1.27703726241e-05
4.57558956063e-05
0.000113826745191
0.000207672015586
0.000304502092985
0.000373425935798
0.000408032039998
0.000420099278282
0.000419693613582
0.000410837849604
0.000398031137316
0.000384542742134
0.000370009468347
0.000321524713544
0.000142192482312
0.000199219876581
0.00011018771058
2.84326964104e-05
5.50763913971e-06
3.73794219008e-06
9.25024418978e-06
3.30394657017e-05
8.73255185066e-05
0.000166834332967
0.00025361145159
0.000321083328872
0.000358570688278
0.000372836254561
0.000372641396048
0.000362787022229
0.00034874201251
0.000334488414201
0.000320426316221
0.000281221189377
0.000141077530724
0.000238028278366
0.000137652491794
3.53273430843e-05
6.26167488532e-06
3.62047235715e-06
7.1994024123e-06
2.51172696424e-05
6.69583582574e-05
0.000128953450853
0.000198785763762
0.000258283773563
0.000297041207323
0.00031374819418
0.000314353405153
0.000304023781858
0.000289310107304
0.000274632744272
0.000261743605331
0.000233422569542
0.000140213302867
0.000264819154993
0.000156462128594
4.04420370521e-05
6.70443318547e-06
3.77107121973e-06
7.38629396523e-06
2.22392683417e-05
5.08819599617e-05
9.25135991804e-05
0.000142704652136
0.0001911590345
0.000228060818712
0.000248077330721
0.000251211832779
0.000241853114678
0.000227835815246
0.000213879896512
0.000203006764766
0.000184818825492
0.000140854248841
0.000276876979837
0.000159772398479
4.30004101437e-05
7.23291127968e-06
4.77994140298e-06
1.05118464296e-05
2.25157144554e-05
3.85807989987e-05
6.10951107987e-05
9.19774989307e-05
0.000127951370662
0.000161181215234
0.000183448738302
0.000191188816865
0.0001852614096
0.000173810882605
0.000162008437023
0.000153748191041
0.000143861791156
0.000144269826417
0.000270355139799
0.000147425701522
3.98577546107e-05
7.96476418868e-06
7.63958884523e-06
1.54027551201e-05
2.48578053532e-05
3.38465460513e-05
4.40349457368e-05
5.88243219052e-05
8.02172328219e-05
0.000105612812751
0.00012839623452
0.00014105742202
0.000140771037734
0.000133545452251
0.000124878800731
0.000119246509606
0.000116007296473
0.00015170497996
0.000241369656833
0.000121545037305
3.34056849249e-05
9.65413207133e-06
1.22454406268e-05
2.08005849765e-05
2.99468266021e-05
3.65188068348e-05
4.0346669918e-05
4.4680104886e-05
5.34862368899e-05
6.84281265494e-05
8.76112992493e-05
0.000104050565463
0.000110380353025
0.000108402591242
0.000103223988254
9.98206458404e-05
0.000102090384027
0.000163959290882
0.000194238633379
9.28817641358e-05
2.94149877052e-05
1.45483784035e-05
1.76218817445e-05
2.64289710564e-05
3.73491745924e-05
4.38979976369e-05
4.47545870167e-05
4.29264799748e-05
4.3025811854e-05
4.87802429544e-05
6.21112605868e-05
7.9739651163e-05
9.24540335561e-05
9.63658999481e-05
9.48675739367e-05
9.32834405187e-05
0.000100351927602
0.000180944710122
0.000151471934198
7.86252906111e-05
3.33067536838e-05
2.26528046395e-05
2.33519010046e-05
3.17268224037e-05
4.54581532702e-05
5.33965292172e-05
5.3288436091e-05
4.81606850311e-05
4.26913891329e-05
4.13960641813e-05
4.86256185744e-05
6.54244423432e-05
8.37843731816e-05
9.43178724453e-05
9.70105290449e-05
9.71299369592e-05
0.00010849339377
0.000201481326619
0.000133505714329
8.0476475122e-05
4.29255003424e-05
3.19720847808e-05
3.06123455535e-05
3.69020364e-05
5.20604892948e-05
6.21738030613e-05
6.30063021108e-05
5.77508969326e-05
4.98257301865e-05
4.30922100429e-05
4.35856380313e-05
5.69292194378e-05
7.98897717933e-05
9.8543710415e-05
0.000106936647381
0.00010920140222
0.000124329674736
0.000223472026424
0.000132918986996
8.84854590645e-05
5.4764305743e-05
4.21268517654e-05
3.87950460316e-05
4.45507740509e-05
5.79911284247e-05
6.80026187012e-05
7.15071393122e-05
7.01127722211e-05
6.41475563815e-05
5.44533221573e-05
4.72712623652e-05
5.19623174199e-05
7.48908618461e-05
0.000103540228549
0.000121197099228
0.000127306203701
0.000145593912606
0.000244136893012
0.000137316888215
9.904494308e-05
6.84019296289e-05
5.35095575091e-05
4.84327571023e-05
5.39064543859e-05
6.52518312055e-05
7.43766633461e-05
7.92390466062e-05
8.22555405037e-05
8.26770279242e-05
7.54075651436e-05
6.31475006474e-05
5.51734001708e-05
6.68427497094e-05
0.000101212067373
0.000133912693177
0.000148495384287
0.000169956141297
0.000261317413423
0.000144319252599
0.000112351620507
8.41580307782e-05
6.6939509491e-05
6.0193579321e-05
6.55843548549e-05
7.63339688187e-05
8.36511410554e-05
8.83400279511e-05
9.39297018769e-05
9.96787567646e-05
9.99449891179e-05
9.01808225583e-05
7.31474760898e-05
6.58081777537e-05
8.87478859965e-05
0.00013611902965
0.000168024692016
0.000195063978765
0.000274685100637
0.00015436684027
0.000128750665825
0.000103132885384
8.40231674313e-05
7.54375297307e-05
7.99553365846e-05
8.99807488813e-05
9.80073609051e-05
0.00010361619725
0.000107520778332
0.000112020617059
0.000118899458792
0.000119686704261
0.000104759185596
8.18177242822e-05
7.99233657268e-05
0.000122204456786
0.000178359487683
0.000218302141157
0.000285394924086
0.00016712754328
0.000148027289934
0.000125875404477
0.000106565207247
9.69524866645e-05
9.97493700979e-05
0.000108495205192
0.00011620685181
0.000119777391624
0.000119377791801
0.000120606325581
0.000127277963443
0.000140514837038
0.000140283869948
0.000113957126373
8.89052060505e-05
0.000105105953439
0.000172968688305
0.000236289281613
0.000292585182265
0.000182970893162
0.000171001835739
0.00015448903034
0.000138935477008
0.000131194846424
0.000132875632424
0.000137166238081
0.000135487984263
0.00012875893923
0.000120769765053
0.000117144978638
0.000123979603916
0.000146958214368
0.00016758711906
0.000153952227507
0.000113917444288
0.000102279261525
0.000158611381332
0.000247239525149
0.000299295254205
0.000203101933816
0.000200741414945
0.000195495647784
0.000191059300929
0.000188425742652
0.000181306248097
0.000163968809965
0.000143949687758
0.0001253025532
0.000111608706346
0.000106429654358
0.00011609807642
0.000144065675463
0.000180584182324
0.000191550733819
0.000147989642422
0.000113694760538
0.000151110271363
0.000255273747371
0.000307965857341
0.000237611287509
0.000248068326589
0.000257693416283
0.000260985696859
0.000246134306288
0.000208476447161
0.000167435234241
0.000133807988421
0.000110283129216
9.88664245917e-05
0.000102636469242
0.000120412060113
0.000152686773608
0.000192309441466
0.000217296080481
0.000179936756497
0.000129409273315
0.000156679104255
0.000267207671319
0.000321853147897
0.000322217437087
0.00033209151252
0.000324789311652
0.000289723196546
0.000234209690722
0.000178892767012
0.000135033953793
0.000106398202437
9.2038342142e-05
9.71935394747e-05
0.000117146537267
0.000148843593287
0.000183926351025
0.000215311390868
0.000236263031923
0.000198960389589
0.000139531402954
0.000175893118359
0.000283435242578
0.000345011155943
0.000299533796709
0.000263575883157
0.000218702843148
0.000175612345632
0.00013672939756
0.000107696624625
9.0442273539e-05
8.77426700978e-05
9.94327507906e-05
0.00012746537755
0.000167677614987
0.000203070592445
0.000222587147578
0.0002350226773
0.000242179271932
0.000195535650042
0.000141798225487
0.000211057821279
0.000284977330446
0.000380764625213
0.000105578467069
9.72646670317e-05
8.98290307498e-05
8.47006091057e-05
8.37652088982e-05
8.81679491281e-05
0.000101216518957
0.00012758879585
0.000167508727749
0.000208280226777
0.000234303571821
0.000240813684826
0.000237497893494
0.000235639429535
0.000226923306578
0.000174619119001
0.000152582348777
0.000239857520451
0.000283152796561
0.000437358536765
9.56844871956e-05
0.000103071878212
0.00011382138475
0.000129072820091
0.000149690028512
0.00017637378846
0.000207905971536
0.000236704762945
0.000253509862461
0.000255617677485
0.000249166003216
0.000238476569839
0.00022875910379
0.000220139757002
0.000201776684611
0.000163271649435
0.000176273051397
0.000259656417861
0.000293622640741
0.000516647792104
0.000210218756604
0.000227342897259
0.000247844973645
0.000268566494947
0.000284170513004
0.000290670031714
0.000287772829594
0.000277965339257
0.000264586044751
0.000250567161876
0.000236937863755
0.000223913707923
0.000212601801422
0.00020110587158
0.000183239717564
0.00016589750395
0.000209305492031
0.000270540089782
0.000321084218184
0.000613922135952
0.000337944291352
0.000346474820613
0.000350636545486
0.000347270858132
0.000335596562758
0.000317649924737
0.000296567612023
0.000275089608469
0.000255163072842
0.000237874719101
0.000222972528163
0.000209670443742
0.000197833648953
0.000246902852982
0.000131167457277
0.000172715775688
0.00015809697594
0.000166608552861
0.000170123960219
0.000163491299524
0.0001678523939
0.000161329938113
0.000162375653045
0.000160852766731
0.000156528858401
0.000161764128482
0.000151463286959
0.000163982129124
0.000147559204302
0.000167420274529
0.00014492853817
0.000171969256995
0.000143530738817
0.000177344711389
0.000143255259006
0.000183125259242
0.000143881577836
0.000188370970576
0.000145072873709
0.000191527523983
0.000146514652378
0.000189991865655
0.000147990472422
0.000178924339257
0.000149805879302
0.00015719835382
0.000155316245372
0.000130494245323
0.000167787355326
9.58224390266e-05
4.05547426986e-05
8.29828452877e-05
4.1139701713e-05
8.27908591504e-05
4.25188552421e-05
8.82021588615e-05
4.48684416904e-05
9.81294067838e-05
4.84755628032e-05
0.000115607370311
5.34303724966e-05
0.000140634804959
5.95989055513e-05
0.000172731324541
6.65117767576e-05
0.000209259911745
7.3586101325e-05
0.000245277961411
8.02769801423e-05
)
;

boundaryField
{
    inletfuel
    {
        type            calculated;
        value           nonuniform List<scalar> 3(0.000853451989716 0.000853377498506 0.000853517034945);
    }
    inletair
    {
        type            calculated;
        value           nonuniform List<scalar> 
20
(
0.000406921626439
0.000406921158393
0.000406922882978
0.000406924205461
0.000406926198175
0.000406928495792
0.000406931626069
0.0004069353543
0.000406940191405
0.000406946038166
0.000406953200174
0.000406961609962
0.000406971259698
0.00040698176392
0.000406992279285
0.000407002745466
0.000407011761562
0.000407021576307
0.000407027275967
0.000407036940488
)
;
    }
    outlet
    {
        type            calculated;
        value           nonuniform 0();
    }
    axis
    {
        type            empty;
    }
    leftside
    {
        type            compressible::alphatWallFunction;
        Prt             0.85;
        value           nonuniform List<scalar> 
33
(
0
0
6.15729193675e-06
6.46888721417e-06
6.73113545031e-06
0
0
0
0
0
0
0
0
0
0
0
0
0
0
0
0
0
0
6.24692827286e-07
1.83715907497e-06
2.98955012763e-06
4.18004735549e-06
5.52720412437e-06
7.0327063595e-06
8.69859213166e-06
1.04388481549e-05
1.21490242996e-05
1.37356331424e-05
)
;
    }
    burnerwall
    {
        type            compressible::alphatWallFunction;
        Prt             0.85;
        value           uniform 0;
    }
    front
    {
        type            wedge;
    }
    back
    {
        type            wedge;
    }
    procBoundary0to1
    {
        type            processor;
        value           nonuniform List<scalar> 
27
(
0.000382802139705
0.000382883142566
0.00038336088096
0.000383797342199
0.000186544153256
0.00017557841211
0.000185377374167
0.000240855404633
0.000278432122247
0.000364646703456
0.00071813798184
0.000384744850577
0.000383615334455
0.000376857590014
0.000362764752069
0.000341993342098
0.000317205949343
0.000291474702559
0.000267172414764
0.000245640792765
0.000227562732551
0.000212538332558
0.00019969701871
0.000186544153256
0.000188603077471
0.000275320267973
8.61945493549e-05
)
;
    }
}


// ************************************************************************* //
