/*--------------------------------*- C++ -*----------------------------------*\
  =========                 |
  \\      /  F ield         | OpenFOAM: The Open Source CFD Toolbox
   \\    /   O peration     | Website:  https://openfoam.org
    \\  /    A nd           | Version:  7
     \\/     M anipulation  |
\*---------------------------------------------------------------------------*/
FoamFile
{
    version     2.0;
    format      ascii;
    class       volScalarField;
    location    "0.03";
    object      dQ;
}
// * * * * * * * * * * * * * * * * * * * * * * * * * * * * * * * * * * * * * //

dimensions      [1 2 -3 0 0 0 0];

internalField   nonuniform List<scalar> 
814
(
3.31129994764e-10
1.00728227665e-09
1.14995791604e-09
3.18204780857e-08
1.31165350973e-07
3.83422450524e-07
1.45437110311e-06
1.04464517185e-05
0.000127763470576
6.82299720105e-05
0.00114738638915
0.0641692286433
0.000139861982321
0.00185531993255
0.038303908595
0.000196722755172
0.00197995881764
0.0192301434199
0.000220815267711
0.00166760633767
0.00899096857456
0.000209564814912
0.00119870318557
0.00408235767
0.000172834904405
0.000774166528711
0.00185275048512
0.000126099507499
0.000464241416685
0.000867476338171
8.26629119464e-05
0.00026564825216
0.000436188202271
5.00259497828e-05
0.000150962577009
0.000249849026826
2.96497646775e-05
9.1564308966e-05
0.000174341810416
1.92552305866e-05
6.5064015253e-05
0.000148413930376
1.52670953711e-05
5.6132977842e-05
0.000142043331434
1.43328873402e-05
5.39276596571e-05
0.000137530048499
1.40993818709e-05
5.2096222947e-05
0.000127397280587
1.32943700055e-05
4.76344461852e-05
0.000110118116138
1.14475313315e-05
4.01371805028e-05
8.97504763055e-05
9.58529615361e-06
3.35555648565e-05
7.51341583468e-05
8.21885916005e-06
2.88333984668e-05
6.49429815208e-05
6.92382404348e-06
2.41761927361e-05
5.37886368659e-05
5.61618499064e-06
1.9340300305e-05
4.19172359519e-05
4.32479364625e-06
1.46297966501e-05
3.06397877574e-05
3.8230753096e-06
1.28037535695e-05
2.65197761167e-05
1.7090818883e-05
5.73645142098e-05
0.000119175065041
0.000284838565616
0.000907970240652
0.00172167026551
0.00452853644429
0.0140308911062
0.0249947155199
0.0258833488067
0.0777579161987
0.130657501457
0.00609262458082
0.0180132680608
0.0290153014505
0.000841720633554
0.00247460446816
0.00396576261054
0.000139272575222
0.000410176537787
0.000656948732565
0.0277322353676
0.167030244764
0.0529035976973
0.0170804008479
0.00587456364019
0.00222375753748
0.000978428858498
0.000521087431905
0.000351750562379
0.000300588288643
0.00029199337776
0.00028922636708
0.000272116841591
0.000237913927052
0.000192310030643
0.000151839763051
0.000128219194324
0.00011126601922
9.04793544905e-05
6.81981873387e-05
4.79155992783e-05
4.13115074601e-05
0.000187834853781
0.00243788620897
0.0327704088495
0.158715923445
0.0331723214777
0.00450945804316
0.000745585583523
3.62948958734e-05
1.99270087768e-05
1.53314296505e-05
1.09795577898e-05
6.85370535053e-06
3.87256054238e-06
1.60672276501e-06
4.96421261689e-07
1.38548904055e-07
3.49650585075e-08
7.89385977268e-09
1.59945872863e-09
2.90310542038e-10
4.74684139426e-11
6.86521740461e-12
8.51026736986e-13
8.45526913105e-14
6.25458620441e-15
3.2370688647e-16
1.96491971036e-17
0.00361992457965
0.00281712173211
0.000825805677849
0.00031604166328
0.000117206796331
4.52578960719e-05
1.30626683774e-05
3.19155177459e-06
7.48927029439e-07
1.65680728692e-07
3.3839645914e-08
6.34042017122e-09
1.09334646953e-09
1.75412747245e-10
2.5831482949e-11
3.34745702513e-12
3.51827167708e-13
2.76113032827e-14
1.51957741759e-15
8.14994709069e-17
0.0302749568013
0.091229171303
0.022143992286
0.00403141248338
0.000734659029427
0.000174672803405
3.72704190307e-05
7.93006620746e-06
1.6845379207e-06
3.48853242832e-07
6.82330029407e-08
1.24493016896e-08
2.14228620792e-09
3.54556546941e-10
5.54715247942e-11
7.73804002677e-12
8.68358080091e-13
7.26738021078e-14
4.18326643047e-15
1.99324986543e-16
0.32176556784
0.694768955401
0.246224030553
0.0527979922916
0.0120637733113
0.00186136450525
0.000217015175467
3.60375899508e-05
6.50610230725e-06
1.2399846329e-06
2.33273107452e-07
4.2000784542e-08
7.34309469775e-09
1.27805053111e-09
2.14840617636e-10
3.22496639277e-11
3.84194787612e-12
3.41293650155e-13
2.0912094781e-14
1.46182632241e-15
0.426412845272
0.133248365616
0.594217033795
0.462115303582
0.0906804597289
0.0174465973537
0.00238612477563
0.000177297196941
2.42441095152e-05
4.09627838091e-06
7.44944647669e-07
1.34924029864e-07
2.45900591487e-08
4.6070996883e-09
8.40864279371e-10
1.35592501085e-10
1.70748604595e-11
1.60495357187e-12
1.06421165787e-13
1.26240419041e-14
0.121040745225
0.0221440222153
0.125769088808
0.6944538103
0.151787190035
0.0317831221532
0.0048073608743
0.000485095529451
6.03774264026e-05
1.04236311641e-05
2.0235282348e-06
3.94191518828e-07
7.85128479159e-08
1.6291953963e-08
3.25903286726e-09
5.63453267109e-10
7.48139688763e-11
7.39798655071e-12
5.34931506733e-13
9.24615915462e-14
0.0330115809112
0.0170782947518
0.125745486003
0.524313053169
0.115904681442
0.0262000848297
0.00458256979837
0.000679876331967
9.66827757441e-05
2.1425046978e-05
4.7385525154e-06
1.03898227743e-06
2.35899483706e-07
5.55121263493e-08
1.22388116358e-08
2.26466114609e-09
3.16446291508e-10
3.27018978847e-11
2.55381679145e-12
5.31700594598e-13
0.0110879720069
0.0203327300615
0.169348812058
0.49433273644
0.0939540254961
0.0220945706921
0.00431525073668
0.000814931867731
0.000172228713168
4.10052013296e-05
1.01151224871e-05
2.56754877097e-06
6.82972035074e-07
1.83430944784e-07
4.43943305508e-08
8.75918269615e-09
1.28534405044e-09
1.38083275425e-10
1.14178923837e-11
2.48100842575e-12
0.00530274142039
0.0219603264231
0.186299292244
0.589822765645
0.101237174252
0.023005921819
0.00452641446307
0.000968015135337
0.000254701919532
6.87582490843e-05
1.94212131985e-05
6.23605397209e-06
1.97360839322e-06
5.96467578273e-07
1.56318642078e-07
3.26973157446e-08
5.03074200461e-09
5.5996545501e-10
4.79867050653e-11
9.94118195562e-12
0.00346451864014
0.0207503084793
0.176491982347
0.746262443583
0.126388708479
0.0270948626102
0.00502066117423
0.0011235591302
0.000351051692604
0.000120214994531
3.94253404386e-05
1.55505014862e-05
5.81459417829e-06
1.92820429816e-06
5.378650198e-07
1.1850359616e-07
1.91084626318e-08
2.20046775265e-09
1.91885613175e-10
3.54274134504e-11
0.00258458736484
0.01720054409
0.147981457298
0.923240754095
0.155758665201
0.0296028972073
0.00513862414942
0.00130281789657
0.000509630366464
0.000229744240767
0.000102877053001
4.18082653943e-05
1.67949477528e-05
6.13642642486e-06
1.8103744625e-06
4.18746609204e-07
7.08028159099e-08
8.43161884125e-09
7.3805979218e-10
1.14308043049e-10
0.00228506074139
0.0152080825704
0.135344733217
1.07666272895
0.171857298802
0.0251951721169
0.00487004815349
0.00185319801848
0.000969076788116
0.000519325902121
0.000264739991278
0.000125099633752
4.99078250514e-05
1.77532597272e-05
5.8151465898e-06
1.42799483976e-06
2.54266963391e-07
3.13335809032e-08
2.73792076581e-09
3.37095046548e-10
0.00233185384071
0.0156823331049
0.139625813308
1.30954913909
0.162392151559
0.0202369868202
0.00674578329653
0.00395736134784
0.00239860521476
0.00134691534192
0.000695397470379
0.000330785694311
0.000145696086716
5.26380136135e-05
1.68409436192e-05
4.45084870912e-06
8.56268525446e-07
1.1024087611e-07
9.65213947484e-09
9.23132806056e-10
0.0024091399939
0.0156400987472
0.13437993252
1.43097206286
0.151217652104
0.0290804473901
0.0150666818623
0.00967048868185
0.00589813846384
0.00331563742084
0.00170486684297
0.00080933714423
0.000354321256689
0.000140898440197
4.74667421803e-05
1.28682044642e-05
2.60813582314e-06
3.53176922459e-07
3.13075642401e-08
2.38516137527e-09
0.00233128523232
0.0135748653206
0.0957463611834
0.657928687181
0.187751395029
0.0621928779375
0.0350829671975
0.0213685202625
0.0125850897175
0.00699677398306
0.00360752049118
0.00172411269797
0.000764512171047
0.000313556729625
0.000113901066868
3.34201084504e-05
7.16740197903e-06
1.01570423987e-06
9.16027140478e-08
5.89406452035e-09
0.00204437154687
0.0101714183516
0.0530277968739
0.208134669308
0.306463135016
0.124998798404
0.0684034723255
0.039842263895
0.0229474045766
0.0126880551183
0.00660180084874
0.00320056980345
0.00144463910758
0.000610333328699
0.0002343510224
7.37747833582e-05
1.70359177674e-05
2.58056988173e-06
2.41044647686e-07
1.41455717348e-08
0.00162417697877
0.00675424312928
0.026981063361
0.0850578471725
0.233634910422
0.217570429048
0.11225525866
0.0651707017736
0.0387118303083
0.0223082891268
0.0119923166794
0.0058904720431
0.00265242110828
0.00112072891124
0.000443144465322
0.000148316934139
3.70144767007e-05
6.05913760064e-06
5.96527541145e-07
3.42403073885e-08
0.00121061505888
0.004616577736
0.0171619560381
0.0541070288524
0.148926158893
0.346285382067
0.175070919685
0.107172228853
0.0716936087144
0.0464359933711
0.0270449463031
0.0136929599888
0.00603879211134
0.00240606163399
0.000912558790337
0.000311292717088
8.27776066542e-05
1.46281358415e-05
1.5349768892e-06
9.065550826e-08
0.000959913893466
0.00376350905899
0.0139792283348
0.0439666431489
0.118667969984
0.279811638562
0.285066314432
0.196374910705
0.155843216242
0.118753962788
0.0773434989
0.0416195738468
0.0189558395604
0.00722288435586
0.00248222408578
0.00080827414695
0.00022206760724
4.20188867207e-05
4.72637431199e-06
2.96055660061e-07
0.000842461642778
0.00336304873845
0.0119801674728
0.0361638369438
0.0924533428705
0.199268552657
0.404832276748
0.391640973518
0.352768254028
0.314084660066
0.223630313508
0.131611289332
0.0647462404113
0.0261043503982
0.00875472301824
0.00260559637079
0.000715920357152
0.000145302082994
1.77336176074e-05
1.20305806869e-06
0.000732203625543
0.00280179298464
0.00929321641894
0.0262282897752
0.0624264085363
0.1249684826
0.2331944807
0.43926521196
0.839032640091
0.776905357456
0.570815879327
0.357119343304
0.194880074399
0.0880494858395
0.0324117684483
0.00934482061535
0.00240342048843
0.000510636226815
6.89815427235e-05
5.15466093833e-06
0.000575340188969
0.0020331925631
0.0061689408756
0.0160708730438
0.0355666687102
0.0674498784512
0.119622224006
0.208004145667
0.35697837482
0.645063475992
1.29087603246
0.794197773265
0.458729897368
0.233217196288
0.09850046114
0.0321999887897
0.00791988716042
0.00162677006403
0.000236979177918
1.95118680409e-05
0.000411177239762
0.001324601123
0.00366717518108
0.00882261788499
0.0185178470041
0.0353454149826
0.0658702573747
0.121084503521
0.22077679034
0.396306728353
0.745278516963
1.45975700644
0.834945081485
0.460744870847
0.220931710654
0.0859228415845
0.0233885791534
0.00450041517948
0.000655939584374
5.87528763762e-05
0.00027385877612
0.000817609775888
0.00215465731452
0.00521899805238
0.0123260953623
0.0307601406105
0.0806137945821
0.177667187756
0.34734485521
0.62478144381
1.05546701533
1.75277249044
1.15586373622
0.66018844074
0.350983468838
0.15584406698
0.0508496236727
0.0100753213581
0.00139478818241
0.000133004873542
0.000240522845479
0.000795733285996
0.00257673341148
0.00854338276061
0.0291106430887
0.0928318697527
0.224371291572
0.458849692236
0.843391749478
1.44802511571
2.34888517595
1.83543565626
1.07673539764
0.684311756806
0.407663878449
0.203145848733
0.0760195429873
0.0163329765148
0.00215016155839
0.000208411445961
0.00112596656209
0.00389773959187
0.0131609325342
0.0429912797398
0.133601156552
0.315620934335
0.638656257225
1.17535206566
2.02072175801
3.35859189485
2.3429112075
1.27601032518
0.720158242017
0.473663666735
0.331481961622
0.192327040508
0.078060402259
0.0178989642844
0.00235071429928
0.000224605787148
0.012524939933
0.0346495038886
0.0964194191793
0.245458411543
0.515805243375
0.966477110743
1.7122626998
2.89080235888
3.97991434988
2.22832848951
1.20020882475
0.637374856102
0.368520401483
0.253799367142
0.197426419013
0.132734748619
0.0578558139158
0.0133943569572
0.00182748220285
0.000147288736076
0.145272798655
0.302748127608
0.569475823849
0.988119919663
1.66740248757
2.65348688339
3.51730539975
2.35807035387
1.37136433938
0.739474125667
0.383972428067
0.212169632718
0.139935319633
0.116284355747
0.10786098395
0.0794739638358
0.0338571788022
0.00765951117375
0.00123877653769
9.53732394356e-05
0.608505858845
0.942624642044
1.26448420833
1.37935613686
1.22183183094
0.981603340027
0.700828784065
0.43970341917
0.250976657463
0.13965449414
0.0807929315997
0.0553696910116
0.0509340073465
0.0563269159434
0.0589180637926
0.0433431706624
0.019108966044
0.00482623149007
0.000899573985342
6.26413351532e-05
0.109871980855
0.145147596154
0.164599782603
0.16291567311
0.142424853759
0.112465071083
0.0811137286378
0.0536331330009
0.0333190943538
0.0217888307786
0.0172316247632
0.0181174265395
0.0240790069215
0.031369312382
0.0342883792252
0.0246818519747
0.0107323887776
0.00312474977945
0.000596838335938
3.78501437858e-05
0.0149066843298
0.0194994209217
0.0219121933661
0.0211906988128
0.0178722905814
0.0137118989349
0.0100123726701
0.00725391120806
0.00553492582284
0.00502780177675
0.00596553216506
0.00868195700581
0.0134025779434
0.0185581377837
0.0203754093039
0.013640022787
0.00598841493725
0.00196800469152
0.000344973803049
2.11090288841e-05
0.00245375245876
0.00308968974303
0.00327601484871
0.00302450277278
0.00252331624345
0.00199683655669
0.00158699029264
0.00137296217379
0.0014340878634
0.00189927841781
0.00297405357783
0.00491919795224
0.00789031749596
6.62179505241e-16
2.20160946844e-15
4.66000276473e-15
7.01346319596e-15
2.49793000721e-14
2.11412504456e-14
1.09973812966e-13
6.33742031827e-14
4.0433661083e-13
1.8191974433e-13
1.28919110813e-12
5.00988787055e-13
3.66742887888e-12
1.29310179745e-12
9.51606030108e-12
3.15153358484e-12
2.28812214396e-11
7.30706196184e-12
5.18988617474e-11
1.62997130014e-11
1.13809781207e-10
3.55705514924e-11
2.4569457607e-10
7.68000023593e-11
5.32409216114e-10
1.66550412143e-10
1.2047760222e-09
3.75075882729e-10
3.04061009838e-09
9.10680241227e-10
9.11009735305e-09
2.39066900255e-09
3.16424482577e-08
6.3316008569e-09
1.15046851053e-07
1.48189967458e-08
4.43295693463e-07
8.4097137524e-08
1.35856024039e-06
1.85041553282e-07
2.90926217011e-06
3.65372513542e-07
4.40514380459e-06
5.44503205983e-07
4.43568137553e-06
5.38254690983e-07
3.35584223586e-06
4.58051967195e-07
2.40713214771e-06
3.63595463019e-07
1.70458569668e-06
2.80875939591e-07
1.13285281299e-06
2.06445197408e-07
7.06574887408e-07
1.43058580923e-07
)
;

boundaryField
{
    inletfuel
    {
        type            zeroGradient;
    }
    inletair
    {
        type            zeroGradient;
    }
    outlet
    {
        type            zeroGradient;
    }
    axis
    {
        type            empty;
    }
    leftside
    {
        type            zeroGradient;
    }
    burnerwall
    {
        type            zeroGradient;
    }
    front
    {
        type            wedge;
    }
    back
    {
        type            wedge;
    }
    procBoundary0to1
    {
        type            processor;
        value           nonuniform List<scalar> 
27
(
1.42422162848e-05
4.20903062998e-05
6.79574652753e-05
7.78591147116e-05
0.0110307635044
0.0117758988603
0.00736384193348
0.00335598981587
0.00114912370191
0.000176770907827
1.09610272416e-05
0.000261621043749
0.000338615122028
0.00037055600667
0.000359874774323
0.000329150649558
0.000305699085641
0.000314949254171
0.000391394548151
0.000595008265357
0.00102010669473
0.00179099449819
0.00302973060774
0.0110307635044
0.00475701796118
4.08689709495e-07
9.05893097458e-08
)
;
    }
}


// ************************************************************************* //
