/*--------------------------------*- C++ -*----------------------------------*\
  =========                 |
  \\      /  F ield         | OpenFOAM: The Open Source CFD Toolbox
   \\    /   O peration     | Website:  https://openfoam.org
    \\  /    A nd           | Version:  7
     \\/     M anipulation  |
\*---------------------------------------------------------------------------*/
FoamFile
{
    version     2.0;
    format      ascii;
    class       volScalarField;
    location    "0.03";
    object      ed::R_H2;
}
// * * * * * * * * * * * * * * * * * * * * * * * * * * * * * * * * * * * * * //

dimensions      [1 -3 -1 0 0 0 0];

internalField   nonuniform List<scalar> 
814
(
-3.29652383801e-08
-3.342624655e-08
-2.28965200078e-08
-5.00877781217e-06
-6.88212964789e-06
-1.20706898479e-05
-0.000361966297369
-0.000866642781728
-0.00635957255938
-0.0157831038328
-0.0884659446987
-2.96552486965
-0.0311131833089
-0.137553826793
-1.70134860105
-0.0420834457884
-0.141145221722
-0.820940125923
-0.0454228481337
-0.114293188399
-0.368901420054
-0.041449303778
-0.0789784578305
-0.160987272928
-0.03286469184
-0.0490280623988
-0.0702213421504
-0.0230478760333
-0.0282554819453
-0.0315991753658
-0.0145192637031
-0.015536296654
-0.015270279723
-0.00844182072919
-0.00848261819435
-0.00840584185032
-0.00480594152709
-0.0049425819829
-0.00563628139661
-0.00299745838977
-0.0033734601452
-0.00460969639091
-0.0022819399288
-0.00279470196766
-0.00423690256516
-0.00205580818506
-0.00257651331299
-0.00393645217102
-0.00193894432686
-0.00238627305251
-0.00349542843253
-0.00175214166245
-0.00209106163481
-0.00289555350837
-0.00144707190266
-0.00169005295065
-0.00226408169912
-0.00116348875568
-0.00135683598295
-0.00182041046212
-0.000958593555778
-0.00112031835691
-0.0015121080849
-0.000776146703472
-0.000902863828459
-0.0012038218598
-0.000605101726172
-0.000694230078393
-0.000901799748959
-0.000447866474167
-0.000504779696078
-0.000633704631786
-0.000380552439803
-0.000424677331264
-0.000527368780393
-0.00163528501348
-0.00182909875962
-0.00227872981852
-0.0261866907757
-0.0278199124885
-0.0316393019492
-0.398215369438
-0.41120315195
-0.439360943847
-2.17230933627
-2.17529276449
-2.19306031984
-0.49583580192
-0.48870455556
-0.472409085789
-0.0665239186723
-0.0651958538746
-0.0626959105622
-0.010625915714
-0.010431728421
-0.0100248997281
-1.05976886811
-6.13696663266
-1.87143039464
-0.581423787599
-0.192377382764
-0.0700401523953
-0.029635856754
-0.0151768085289
-0.00984957949818
-0.00809054659996
-0.00755203985334
-0.0071839435604
-0.00648457173933
-0.00543367448022
-0.0042096866045
-0.00318964272591
-0.00258748691975
-0.00215801666816
-0.00168698745892
-0.00122247933481
-0.000825876198061
-0.000684806720404
-0.00299469432648
-0.0373641770932
-0.480422861691
-2.22279306547
-0.450769224981
-0.0594934216517
-0.00949360695076
-0.000162031605033
-5.56902178808e-05
-2.92296256161e-05
-1.50222697694e-05
-6.95782954829e-06
-2.98660646567e-06
-9.57952570163e-07
-2.31907599823e-07
-5.12559330668e-08
-1.03318813313e-08
-1.87630128084e-09
-3.07615928615e-10
-4.54021710712e-11
-6.06224517307e-12
-7.1858300547e-13
-7.32363740979e-14
-5.99878501744e-15
-3.66716480049e-16
-1.57180516256e-17
-7.91623822542e-19
-0.0255326357501
-0.0124443685543
-0.00248919482955
-0.000683694140488
-0.000188138586569
-5.51891404658e-05
-1.2314451409e-05
-2.35747180599e-06
-4.38086963057e-07
-7.74099298916e-08
-1.27179852975e-08
-1.92811533083e-09
-2.70365139534e-10
-3.54216603608e-11
-4.27514550587e-12
-4.55488609505e-13
-3.94679035382e-14
-2.5597501516e-15
-1.16667103618e-16
-5.19168176425e-18
-0.335635264444
-0.63198493205
-0.105274155139
-0.0137817979084
-0.00186438180865
-0.000336780551668
-5.55547553749e-05
-9.2618565527e-06
-1.55804107617e-06
-2.57718042843e-07
-4.05475240366e-08
-5.98600744104e-09
-8.37621125039e-10
-1.13206269063e-10
-1.45160628547e-11
-1.66483284816e-12
-1.5402480783e-13
-1.06528468797e-14
-5.07829884298e-16
-2.00766642719e-17
-3.2562890163
-4.33958661445
-1.06367404293
-0.166456286733
-0.0283922387543
-0.00333419634946
-0.000300646681237
-3.91210762805e-05
-5.59317219053e-06
-8.51449221093e-07
-1.28847253812e-07
-1.87711274516e-08
-2.66863983952e-09
-3.79292012774e-10
-5.22559607014e-11
-6.44919557052e-12
-6.33408671016e-13
-4.65004002449e-14
-2.3596133296e-15
-1.3684542605e-16
-4.13797302303
-0.801580741291
-2.42856291468
-1.36435392446
-0.202951798993
-0.0299546332799
-0.00317661190887
-0.000185083937933
-2.00440970194e-05
-2.70508382059e-06
-3.95716718946e-07
-5.79925723101e-08
-8.59449902649e-09
-1.31493246472e-09
-1.96695996748e-10
-2.60775139852e-11
-2.70732177017e-12
-2.10300889039e-13
-1.15483876415e-14
-1.13654876886e-15
-1.13327598104
-0.128441714925
-0.494414458882
-1.96132726035
-0.324334622971
-0.0523473843392
-0.0061502011256
-0.000486918220468
-4.80050535889e-05
-6.61996686265e-06
-1.03375612672e-06
-1.62944381062e-07
-2.63906990207e-08
-4.4719630661e-09
-7.3317485046e-10
-1.04216773015e-10
-1.14081340427e-11
-9.32269290062e-13
-5.58265116619e-14
-8.00569103811e-15
-0.297952415077
-0.0954113092703
-0.475522489939
-1.4281266193
-0.238585186414
-0.0414921183874
-0.00563599507205
-0.000656148395511
-7.39241255389e-05
-1.30857890966e-05
-2.32810140964e-06
-4.13037249134e-07
-7.6258193705e-08
-1.46542080495e-08
-2.6479363867e-09
-4.02839861773e-10
-4.64067790935e-11
-3.96323933741e-12
-2.56319297612e-13
-4.42739747085e-14
-0.0964659575857
-0.109482380095
-0.616289246099
-1.29751600567
-0.18624584874
-0.033641074168
-0.0051016469574
-0.000756162991728
-0.000126628606352
-2.40850973058e-05
-4.77937747523e-06
-9.8162955256e-07
-2.12330037925e-07
-4.65689457776e-08
-9.23730321187e-09
-1.49844979947e-09
-1.81280139468e-10
-1.60941421882e-11
-1.10211461712e-12
-1.98679924927e-13
-0.0444595458396
-0.113983540578
-0.65256853255
-1.48750134905
-0.192766562649
-0.0336479261868
-0.00514247103129
-0.00086345565661
-0.00018005950508
-3.88372960539e-05
-8.82495985653e-06
-2.29288629837e-06
-5.90087431001e-07
-1.45632579266e-07
-3.12807119584e-08
-5.37946291688e-09
-6.82356132666e-10
-6.27676945326e-11
-4.45461146589e-12
-7.65610337968e-13
-0.0279837098758
-0.103815155641
-0.595033298264
-1.80689849192
-0.230825303682
-0.0380368194538
-0.00547945109835
-0.000963228409487
-0.000238590133482
-6.52911282136e-05
-1.72277810499e-05
-5.49858156204e-06
-1.67192276805e-06
-4.52761273634e-07
-1.03510545043e-07
-1.87501154869e-08
-2.49258746736e-09
-2.37211365156e-10
-1.71307627163e-11
-2.62391507757e-12
-0.020101607385
-0.0829247093748
-0.480133406642
-2.1472503691
-0.272906290072
-0.0398815116715
-0.00538545319936
-0.00107308439472
-0.000332905655928
-0.000119957890917
-4.32246122213e-05
-1.42160388159e-05
-4.64413911911e-06
-1.3857004908e-06
-3.35058094224e-07
-6.37183817366e-08
-8.88211144236e-09
-8.74122638566e-10
-6.33674712528e-11
-8.14180875744e-12
-0.0171015992176
-0.0705911481434
-0.422477781504
-2.40806121624
-0.28918003123
-0.0325593773781
-0.00489648182512
-0.00146525411616
-0.000608054751632
-0.000260586904693
-0.000106929615772
-4.08997668672e-05
-1.32708299647e-05
-3.85528636867e-06
-1.03500793447e-06
-2.08964891733e-07
-3.06753136673e-08
-3.12395428574e-09
-2.26062271233e-10
-2.30897767149e-11
-0.0167837615879
-0.0700020331235
-0.419201656416
-2.81760077972
-0.262277030964
-0.0250380985673
-0.00649255882119
-0.00299822339768
-0.0014438867334
-0.000649017745808
-0.000269895998831
-0.000103960181582
-3.72495673033e-05
-1.09919505815e-05
-2.88247242991e-06
-6.26340086485e-07
-9.93414223882e-08
-1.05695990112e-08
-7.6639089893e-10
-6.08050389465e-11
-0.0166649242517
-0.0670626542694
-0.387824162687
-2.95872711705
-0.233709889452
-0.034347359765
-0.0138421686588
-0.00700367711818
-0.00340040275316
-0.00153250427862
-0.00063539765994
-0.000244420561959
-8.7082824327e-05
-2.82896968424e-05
-7.81225167827e-06
-1.74135284513e-06
-2.90974087559e-07
-3.25620777507e-08
-2.39043655658e-09
-1.51070777531e-10
-0.0154828495777
-0.0558424553847
-0.265553088111
-1.30566461852
-0.277453138912
-0.0701044646979
-0.0307414760408
-0.0147712994081
-0.00693720667539
-0.00309807671113
-0.00128999243867
-0.000500074985102
-0.000180571312331
-6.05223258697e-05
-1.80244356566e-05
-4.34861142011e-06
-7.68893351712e-07
-9.00468342019e-08
-6.72533479316e-09
-3.58953999324e-10
-0.0130180078379
-0.0401080981676
-0.14134191842
-0.396970066914
-0.434030988749
-0.134840221296
-0.0572882809908
-0.0263085753165
-0.0120889585102
-0.00537717068538
-0.00226311453251
-0.000891058262791
-0.00032778632268
-0.000113226134271
-3.56526102073e-05
-9.22972542722e-06
-1.75720149968e-06
-2.19974137757e-07
-1.70158465858e-08
-8.28276700213e-10
-0.009909809797
-0.0255512626172
-0.0691521047028
-0.156048446795
-0.317796220881
-0.225177532917
-0.0901008708336
-0.0411888693299
-0.0195063897673
-0.0090463105817
-0.00393831611831
-0.00157314000646
-0.000577898573233
-0.000199774296335
-6.48018329883e-05
-1.7838758914e-05
-3.67068373374e-06
-4.96584811937e-07
-4.04864086474e-08
-1.92748660858e-09
-0.00708471030069
-0.0167803801791
-0.0423168053941
-0.0955077317711
-0.194850867121
-0.344292625879
-0.134875091105
-0.064927860041
-0.0345770871132
-0.0180106181536
-0.00849936585344
-0.00350435272024
-0.00126252729358
-0.000411934864927
-0.00012823901133
-3.5989824508e-05
-7.89174504465e-06
-1.15258085131e-06
-1.00156277681e-07
-4.90586001517e-09
-0.00539557389771
-0.0131540583587
-0.033165358089
-0.0746745843452
-0.149377481756
-0.267541924378
-0.210982678373
-0.114132709727
-0.0719580846872
-0.0440194758694
-0.0232145738622
-0.0101843672772
-0.00379698648089
-0.00118674626523
-0.000335075442036
-8.98098445137e-05
-2.03512701963e-05
-3.18276064632e-06
-2.96471856895e-07
-1.54004639446e-08
-0.00455138569245
-0.0113058003703
-0.0273497753419
-0.0591033638783
-0.111976269979
-0.183273742791
-0.287939508563
-0.218516826944
-0.156118147932
-0.111283881655
-0.0640282251144
-0.0307008815599
-0.0123872033127
-0.00410848175829
-0.00113424342619
-0.000278145834255
-6.30609862588e-05
-1.0580071712e-05
-1.06935344977e-06
-6.01540626124e-08
-0.00380309006064
-0.00906089554024
-0.020416504898
-0.0412517057562
-0.072756449001
-0.110579886196
-0.159503113263
-0.235459343665
-0.356305783706
-0.263744452141
-0.156184552126
-0.0793855653723
-0.0354914953299
-0.0132269408518
-0.00402248411599
-0.000957641438042
-0.000203426390877
-3.57405198333e-05
-3.99873036294e-06
-2.47731366666e-07
-0.00287361588738
-0.00632648501343
-0.0130446949336
-0.024329789314
-0.0398974919027
-0.057438830642
-0.0787277762804
-0.1072491574
-0.145744562459
-0.210334744538
-0.338676917381
-0.168870454703
-0.0796301393551
-0.0333405644093
-0.0116724039986
-0.00316282823899
-0.000643797144045
-0.000109435332148
-1.32057925859e-05
-9.01308090232e-07
-0.0019750891359
-0.00396630524442
-0.00746532418401
-0.0128599132583
-0.0200001115823
-0.0289788249732
-0.0417346419084
-0.0600935929094
-0.0867380393373
-0.124311636431
-0.187979996119
-0.297944004818
-0.138806389642
-0.0628229826504
-0.0249399410982
-0.00807050102422
-0.00182424965659
-0.000290917357666
-3.51382860488e-05
-2.60841828881e-06
-0.00126540705199
-0.0023565572997
-0.00422406524079
-0.00732757528882
-0.0128245218732
-0.0242943258318
-0.0491889036059
-0.0848854319642
-0.131332740524
-0.188577115185
-0.256148445539
-0.34412033466
-0.184648929071
-0.0862907751535
-0.037825492906
-0.0139812700795
-0.00380184950868
-0.000625671007518
-7.18261071967e-05
-5.67507809068e-06
-0.00106940850426
-0.00220856742514
-0.00486712261097
-0.0115607380289
-0.0291927566973
-0.0706450940038
-0.131835353302
-0.211000064548
-0.306832371414
-0.420521225187
-0.548624520474
-0.34701858557
-0.165610149599
-0.0860032144747
-0.0421151814161
-0.0174273868793
-0.0054474671614
-0.000974353255408
-0.000106442769391
-8.54608390845e-06
-0.0048175039363
-0.0104187581749
-0.0239555310408
-0.0560718026143
-0.129088793899
-0.231235551554
-0.361065551797
-0.519903780894
-0.707210532748
-0.93875043121
-0.527264332968
-0.232612930756
-0.106792582319
-0.0573427762391
-0.0329261816847
-0.0158233418838
-0.00536895873466
-0.00102625658091
-0.000111882747745
-8.85099027103e-06
-0.0515367979405
-0.089113929798
-0.168858887844
-0.307845099704
-0.478928192626
-0.680327071782
-0.930356253836
-1.22975621835
-1.34083260779
-0.600727613201
-0.260798319351
-0.112184411073
-0.0527232957983
-0.0296160401976
-0.0188854236019
-0.0105063299735
-0.00382836088604
-0.000738740911002
-8.36356501891e-05
-5.57760216487e-06
-0.571757656999
-0.744740020563
-0.954245365632
-1.18682461876
-1.48456322815
-1.79371742719
-1.83842837569
-0.967381131706
-0.446732182387
-0.192893455176
-0.0806740202391
-0.0360595355126
-0.0193088154653
-0.0130792660049
-0.00994425932445
-0.00606657637023
-0.00216026642461
-0.000406579839554
-5.45089457144e-05
-3.47090592119e-06
-2.29018655581
-2.22150738931
-2.03414768272
-1.59388605815
-1.0491846942
-0.64172153042
-0.355122955381
-0.175015629378
-0.079246459636
-0.0352401296978
-0.0163887354995
-0.00907432624388
-0.00677481553302
-0.00610963145978
-0.00524720567511
-0.00320207639701
-0.00117569447057
-0.000246470222337
-3.80541786229e-05
-2.19117283161e-06
-0.401496869534
-0.332366147034
-0.257444394564
-0.183122100482
-0.118952114528
-0.0714460683691
-0.0398711526988
-0.0206615092471
-0.0101604374709
-0.00530209042778
-0.00336876884877
-0.00286203559411
-0.00308932310288
-0.00328678044486
-0.00295495726032
-0.00176268553829
-0.000636267351489
-0.000153499272375
-2.42712002244e-05
-1.27273662504e-06
-0.0528676134082
-0.0433134532659
-0.0332214406027
-0.0230656606877
-0.0144365945081
-0.00841300741173
-0.00474718887479
-0.00269317936292
-0.00162608853676
-0.00117880445666
-0.00112414309131
-0.00132296017969
-0.00166043018457
-0.00187972331258
-0.00169809738612
-0.000940463055621
-0.000341874436537
-9.2981128206e-05
-1.34860067248e-05
-6.82407716624e-07
-0.00839696760505
-0.00661944575043
-0.00478812949001
-0.00317214018726
-0.00196327655655
-0.001179887562
-0.000724611832262
-0.000490945031974
-0.000405885894669
-0.000429171788924
-0.000540447556698
-0.000723376185073
-0.000944095305568
-2.71064221645e-16
-8.82961838289e-16
-1.83685943891e-15
-2.70738735628e-15
-9.47547661319e-15
-7.85322886805e-15
-4.01292559997e-14
-2.26442926972e-14
-1.41903856196e-13
-6.25143789512e-14
-4.35113825285e-13
-1.65552452995e-13
-1.1902712066e-12
-4.1087397329e-13
-2.96965017714e-12
-9.62785134648e-13
-6.86521896766e-12
-2.14607025434e-12
-1.49699231528e-11
-4.60186235876e-12
-3.15561733065e-11
-9.65277946658e-12
-6.54781347969e-11
-2.00300457164e-11
-1.36361388731e-10
-4.17415540844e-11
-2.96510681766e-10
-9.03183459044e-11
-7.18976270424e-10
-2.10654882793e-10
-2.06923658171e-09
-5.31091194371e-10
-6.90235871689e-09
-1.35053159221e-09
-2.40982963417e-08
-3.03458978037e-09
-8.91745004915e-08
-1.65331764138e-08
-2.62494908333e-07
-3.4941924747e-08
-5.39990537192e-07
-6.63087768685e-08
-7.85749931498e-07
-9.50213373257e-08
-7.60652621744e-07
-9.03637377239e-08
-5.53565943776e-07
-7.40074633935e-08
-3.82093763636e-07
-5.65485684373e-08
-2.60409620366e-07
-4.20503511278e-08
-1.66560913611e-07
-2.97487390391e-08
-9.99700203729e-08
-1.98389598551e-08
)
;

boundaryField
{
    inletfuel
    {
        type            calculated;
        value           uniform 0;
    }
    inletair
    {
        type            calculated;
        value           uniform 0;
    }
    outlet
    {
        type            calculated;
        value           nonuniform 0();
    }
    axis
    {
        type            empty;
    }
    leftside
    {
        type            calculated;
        value           uniform 0;
    }
    burnerwall
    {
        type            calculated;
        value           uniform 0;
    }
    front
    {
        type            wedge;
    }
    back
    {
        type            wedge;
    }
    procBoundary0to1
    {
        type            processor;
        value           uniform 0;
    }
}


// ************************************************************************* //
