/*--------------------------------*- C++ -*----------------------------------*\
  =========                 |
  \\      /  F ield         | OpenFOAM: The Open Source CFD Toolbox
   \\    /   O peration     | Website:  https://openfoam.org
    \\  /    A nd           | Version:  7
     \\/     M anipulation  |
\*---------------------------------------------------------------------------*/
FoamFile
{
    version     2.0;
    format      ascii;
    class       volScalarField;
    location    "0.03";
    object      ed::R_O2;
}
// * * * * * * * * * * * * * * * * * * * * * * * * * * * * * * * * * * * * * //

dimensions      [1 -3 -1 0 0 0 0];

internalField   nonuniform List<scalar> 
814
(
-2.61612513408e-07
-2.65271079581e-07
-1.81707047845e-07
-3.97497187017e-05
-5.46166605569e-05
-9.57931343697e-05
-0.00287256872624
-0.00687768714853
-0.0504696414532
-0.125254894731
-0.702066761259
-23.5344396961
-0.246914582923
-1.09162876183
-13.5019221936
-0.333974712958
-1.12013011356
-6.51499034298
-0.360476248629
-0.907032066254
-2.92760594015
-0.328942154622
-0.62677395564
-1.27759686163
-0.260814574902
-0.389087270772
-0.557277384226
-0.182908211015
-0.224235831819
-0.250771421512
-0.115225044831
-0.123296230103
-0.121185116658
-0.066994387034
-0.0673181561898
-0.0667088582347
-0.0381400075952
-0.0392243878344
-0.0447295944122
-0.0237878644814
-0.0267718187653
-0.0365826039227
-0.018109501692
-0.0221787871684
-0.0336241078058
-0.0163149175558
-0.020447239479
-0.0312397299998
-0.0153874846242
-0.0189374905695
-0.0277397605056
-0.0139050165169
-0.0165946893411
-0.022979146163
-0.0114839793716
-0.0134122797813
-0.0179677785745
-0.00923346023427
-0.0107678660682
-0.0144467985014
-0.00760740955586
-0.00889085944986
-0.0120001072668
-0.00615950922385
-0.00716513779469
-0.00955354421551
-0.00480209430389
-0.00550941793891
-0.00715669324747
-0.00355427352373
-0.00400593751168
-0.00502908729397
-0.00302006856776
-0.0033702442172
-0.00418520474631
-0.012977640798
-0.014515748931
-0.0180840262196
-0.207817881147
-0.220779147567
-0.251089866543
-3.16024178182
-3.26331297419
-3.48677353666
-17.2394720405
-17.2631485614
-17.4041520863
-3.93495866411
-3.87836501043
-3.74904397369
-0.527934588701
-0.517395051091
-0.497555472024
-0.0843273901181
-0.0827863175127
-0.0795577202958
-8.4103380058
-48.7030382417
-14.8516932766
-4.61418590927
-1.52670913668
-0.555839460232
-0.23519050228
-0.12044332818
-0.0781663769217
-0.0642066714779
-0.0599330757026
-0.0570118592606
-0.0514616363923
-0.0431217035782
-0.0334081216269
-0.0253130415978
-0.0205343261493
-0.0171260452609
-0.0133879520034
-0.00970161015313
-0.00655416306861
-0.00543463406082
-0.0237659288432
-0.29652254196
-3.81264139202
-17.6401114998
-3.5773097878
-0.472140482956
-0.0753413746644
-0.00128588469331
-0.000441958213802
-0.000231966647267
-0.000119216906796
-5.52174158429e-05
-2.37017434862e-05
-7.6023226866e-06
-1.84042139688e-06
-4.06767678184e-07
-8.19939298526e-08
-1.48903486859e-08
-2.44124357062e-09
-3.60312155221e-10
-4.81100478733e-11
-5.70268305012e-12
-5.81204712665e-13
-4.76064273436e-14
-2.91026623098e-15
-1.24738639662e-16
-6.28233581996e-18
-0.202627292893
-0.0987586529098
-0.0197542789835
-0.00542580461373
-0.00149307000101
-0.000437981657637
-9.77276289403e-05
-1.87089235437e-05
-3.47666321036e-06
-6.14326099759e-07
-1.00930078551e-07
-1.53015455864e-08
-2.14562087724e-09
-2.81106706684e-10
-3.3927604226e-11
-3.61476287802e-12
-3.13217739381e-13
-2.03142068362e-14
-9.25871484912e-16
-4.12012465828e-17
-2.66360534413
-5.01543973695
-0.835456913897
-0.109372507747
-0.0147957556166
-0.00267269435679
-0.000440883181787
-7.35022008226e-05
-1.23646320172e-05
-2.04525337149e-06
-3.21785620155e-07
-4.75050243494e-08
-6.64737094507e-09
-8.98406261822e-10
-1.15199642861e-10
-1.3212132756e-11
-1.22234265802e-12
-8.45411161608e-14
-4.0301438407e-15
-1.5932864008e-16
-25.8419473299
-34.4390096097
-8.44132951836
-1.3209990185
-0.225321135438
-0.0264602208278
-0.00238593554275
-0.000310465314249
-4.43874792537e-05
-6.75711087543e-06
-1.02253329786e-06
-1.48967884761e-07
-2.11783566601e-08
-3.01006580427e-09
-4.1470390907e-10
-5.11808907071e-11
-5.02673854587e-12
-3.69027714658e-13
-1.87259186998e-14
-1.08600688533e-15
-32.8390018142
-6.36135404242
-19.2731034053
-10.8275285391
-1.61062782629
-0.237720316481
-0.025209628883
-0.00146882827407
-0.000159070185987
-2.14675765158e-05
-3.14041246259e-06
-4.60229725206e-07
-6.82060437688e-08
-1.04353192624e-08
-1.56098170725e-09
-2.06951452874e-10
-2.14853369095e-11
-1.66895028997e-12
-9.1648138013e-14
-9.019664187e-15
-8.99369130495
-1.01931493656
-3.9236788693
-15.5651158436
-2.57392332258
-0.415429448117
-0.0488080673308
-0.00386418863447
-0.000380968661014
-5.25361336583e-05
-8.203900589e-06
-1.29312849444e-06
-2.09436892941e-07
-3.54895506625e-08
-5.81848410088e-09
-8.27065517117e-10
-9.05350838297e-11
-7.39849987839e-12
-4.43039842827e-13
-6.35332567567e-14
-2.36455381531
-0.757185254902
-3.77375198507
-11.3336293835
-1.89341480137
-0.329281931858
-0.0447273221372
-0.0052072012627
-0.000586662716063
-0.000103848973759
-1.84758397383e-05
-3.27786839067e-06
-6.05185908049e-07
-1.16295964726e-07
-2.10140538188e-08
-3.19694180653e-09
-3.68284736116e-10
-3.14523132623e-11
-2.03415291314e-12
-3.51358775827e-13
-0.765554956143
-0.868853435862
-4.89087859154
-10.2971020417
-1.47804921168
-0.266975954044
-0.0404867293134
-0.00600091825611
-0.00100492608593
-0.000191139611041
-3.79291949721e-05
-7.790223493e-06
-1.68505363902e-06
-3.69571692799e-07
-7.33073452255e-08
-1.18917149555e-08
-1.43864128542e-09
-1.2772329872e-10
-8.74639436014e-12
-1.57672618425e-12
-0.352831470471
-0.904574697565
-5.1787914288
-11.8048279262
-1.52979767276
-0.267030331745
-0.0408107096364
-0.00685239408669
-0.00142895431678
-0.000308213231086
-7.0034983584e-05
-1.81963722076e-05
-4.6829406836e-06
-1.15574183498e-06
-2.48244092224e-07
-4.26914799839e-08
-5.41518616816e-09
-4.98125150444e-10
-3.53518481623e-11
-6.07589250524e-12
-0.222079045529
-0.823878276989
-4.72219114345
-14.3395673495
-1.83183228218
-0.30186063952
-0.0434849873496
-0.00764419180855
-0.00189345406136
-0.000518151149349
-0.00013671986985
-4.36368069309e-05
-1.32683984423e-05
-3.59311870897e-06
-8.21460883753e-07
-1.48801133566e-07
-1.97812029965e-08
-1.88251213997e-09
-1.35949931232e-10
-2.08234204315e-11
-0.159526588915
-0.65809145358
-3.8103442734
-17.0406037869
-2.16578747732
-0.316500138315
-0.0427390189351
-0.00851601017913
-0.00264194313934
-0.000951987211017
-0.00034303102298
-0.000112818648616
-3.68559418123e-05
-1.09969351366e-05
-2.65902491458e-06
-5.056698151e-07
-7.04885392308e-08
-6.93704737898e-09
-5.02884985439e-10
-6.46134885531e-11
-0.135718489369
-0.560212168868
-3.35278856485
-19.1104016891
-2.29493607555
-0.258391595798
-0.0388585364485
-0.0116282736284
-0.00482552954813
-0.00206802069234
-0.000848594668645
-0.000324581023336
-0.00010531746023
-3.05955972526e-05
-8.21383494976e-06
-1.65834779989e-06
-2.43439644378e-07
-2.47917373762e-08
-1.79403280153e-09
-1.8324073531e-10
-0.13319612626
-0.55553694525
-3.32678919823
-22.3605124059
-2.081433554
-0.198702640085
-0.0515250219664
-0.023793935593
-0.0114587018315
-0.00515061234411
-0.00214189777119
-0.000825029204535
-0.000295612997341
-8.72322470634e-05
-2.28753345729e-05
-4.9706421772e-06
-7.88374678103e-07
-8.3880460112e-08
-6.08208704607e-09
-4.82549492992e-10
-0.132253031784
-0.532210000636
-3.07777704475
-23.4804926527
-1.85472438824
-0.272581044719
-0.109851610721
-0.0555812626882
-0.026985635614
-0.0121619716963
-0.00504252318499
-0.00193972440925
-0.000691090301977
-0.000224507361639
-6.19981197577e-05
-1.38193963378e-05
-2.30917372734e-06
-2.58413025986e-07
-1.89705321861e-08
-1.19889943936e-09
-0.122872073487
-0.443166372396
-2.10743238144
-10.3617695276
-2.20187132236
-0.556349843411
-0.24396470974
-0.117225203104
-0.0550537524848
-0.0245863726445
-0.010237394927
-0.00396860087091
-0.00143301602505
-0.000480305878742
-0.000143042130031
-3.45106305719e-05
-6.10194654031e-06
-7.14612718658e-07
-5.33723347746e-08
-2.84866309409e-09
-0.103311060905
-0.318298331371
-1.12169110084
-3.15035904657
-3.44447495129
-1.07009355719
-0.454640461143
-0.208785158275
-0.0959381146854
-0.0426732888082
-0.0179601031291
-0.00707144868889
-0.00260131605142
-0.000898563912346
-0.000282939527339
-7.32472078388e-05
-1.39451714437e-05
-1.74571730378e-06
-1.3503795549e-07
-6.57321348148e-09
-0.0786443652703
-0.202775115925
-0.548791903464
-1.23840228027
-2.52203448789
-1.78701150801
-0.715041553992
-0.326875343827
-0.15480293501
-0.0717916255014
-0.031254522307
-0.0124844573028
-0.00458620976725
-0.00158541112841
-0.000514268096776
-0.000141568597253
-2.91305886048e-05
-3.94090281627e-06
-3.21300607718e-07
-1.52965560394e-08
-0.0562243429627
-0.13316929136
-0.33582665749
-0.757950464985
-1.54633873717
-2.73231026469
-1.0703702844
-0.515268248926
-0.274404163613
-0.142932474168
-0.0674510658062
-0.0278105837561
-0.0100194312176
-0.00326911985684
-0.00101770627848
-0.000285615663934
-6.26289800335e-05
-9.14689497893e-06
-7.94841379138e-07
-3.89329618733e-08
-0.0428193369143
-0.104390759413
-0.263200665735
-0.592618365837
-1.18546142449
-2.12321580908
-1.67436097802
-0.905758505655
-0.571060193104
-0.349339070093
-0.184231126915
-0.0808232566115
-0.0301329286684
-0.00941803209929
-0.00265916258702
-0.000712731965748
-0.000161507915876
-2.52584253345e-05
-2.35280408844e-06
-1.22218260148e-07
-0.0361198495446
-0.0897229626211
-0.217048133729
-0.469044979951
-0.888644974852
-1.45446254447
-2.2850912733
-1.7341520683
-1.2389554293
-0.8831501731
-0.508128735734
-0.24364255147
-0.0983049888907
-0.0326049587958
-0.00900136896088
-0.00220736856062
-0.000500452716978
-8.39635715869e-05
-8.48640135678e-06
-4.77383337269e-07
-0.0301813667479
-0.0719073719012
-0.162025619223
-0.327374014434
-0.57739602154
-0.877563256987
-1.26581855335
-1.86860807713
-2.82764682428
-2.09307902544
-1.23948241375
-0.630004765805
-0.281660917807
-0.104969155722
-0.031922480511
-0.00759985353848
-0.00161439419297
-0.000283637179149
-3.17339704517e-05
-1.96599899374e-06
-0.0228050489488
-0.0502070583054
-0.103522850005
-0.193081489651
-0.316626957615
-0.455835224918
-0.624784543957
-0.8511305547
-1.15663053489
-1.6692189676
-2.68774393705
-1.34015788346
-0.631945707764
-0.264591105121
-0.092632333259
-0.0251002415193
-0.00510918158809
-0.000868480062806
-0.000104801322839
-7.15279143812e-06
-0.0156743302472
-0.0314766443359
-0.0592448991469
-0.102056420491
-0.15872111705
-0.229976290462
-0.331206601328
-0.476903449005
-0.688354084308
-0.986538585812
-1.49181142536
-2.3644870714
-1.1015691151
-0.498563917587
-0.197923661274
-0.0640475895568
-0.0144772663932
-0.00230872351826
-0.000278857844863
-2.07004377365e-05
-0.0100422850136
-0.0187016660112
-0.033522230651
-0.0581517223201
-0.10177555405
-0.192800051045
-0.390363708454
-0.673651770748
-1.04225814918
-1.49655016918
-2.03279702911
-2.73094295959
-1.46537603871
-0.684804590567
-0.300183549591
-0.110955521206
-0.0301715217131
-0.00496533235878
-0.000570012818212
-4.50374854255e-05
-0.00848683826985
-0.0175272166535
-0.0386255413852
-0.0917461508306
-0.231674055101
-0.56064028384
-1.04624689
-1.6744989549
-2.4350252516
-3.33726131126
-4.35389054566
-2.75394351236
-1.31428406441
-0.682522505691
-0.334226567266
-0.138303944023
-0.0432311624557
-0.00773247871456
-0.000844731050126
-6.78218208316e-05
-0.0382317670085
-0.0826833854892
-0.190111371662
-0.444986474665
-1.02445016279
-1.83508801405
-2.86542039895
-4.12596242386
-5.61243097494
-7.44993428957
-4.18437585034
-1.84601891134
-0.847507169571
-0.455072936064
-0.261302559021
-0.12557422437
-0.0426081186722
-0.00814438410659
-0.000887902781317
-7.02415612548e-05
-0.408996625074
-0.707209178508
-1.34006608873
-2.44306227503
-3.80077968102
-5.3990835175
-7.38331800075
-9.75935958518
-10.6408630977
-4.76738129271
-2.06969848151
-0.890296784982
-0.418412685809
-0.23503323786
-0.149874940333
-0.0833783562971
-0.0303819163108
-0.00586265642178
-0.000663733488113
-4.42639153498e-05
-4.53747538492
-5.9102654247
-7.57290226852
-9.41865391378
-11.7815109647
-14.2349622672
-14.5897888721
-7.67714786015
-3.54527177104
-1.53080469331
-0.640229958544
-0.286168891273
-0.153234983062
-0.103797206428
-0.078917757119
-0.0481444203042
-0.0171438993542
-0.00322662231349
-0.000432583624215
-2.75451495716e-05
-18.1749470194
-17.6299083589
-16.1430195585
-12.6490982092
-8.32634187911
-5.09270949434
-2.818259885
-1.38892606082
-0.628900821072
-0.279666077241
-0.130061194649
-0.0720139581208
-0.053765014499
-0.0484861059932
-0.0416418849822
-0.0254117153556
-0.00933032492892
-0.00195599053774
-0.000301998402087
-1.73891729579e-05
-3.18628380457
-2.63766159051
-2.04308169557
-1.45325910934
-0.944005357947
-0.566996825676
-0.316417929388
-0.163969976574
-0.0806333493918
-0.0420774510148
-0.0267345885826
-0.0227131476074
-0.0245169039082
-0.02608392766
-0.0234505750261
-0.0139886928377
-0.00504942506719
-0.00121817200256
-0.000192616525957
-1.01004525902e-05
-0.419557992032
-0.343736066538
-0.263645737213
-0.183049350238
-0.114568981142
-0.066765724213
-0.0376737458664
-0.0213731026019
-0.0129046574522
-0.00935500581454
-0.00892121258636
-0.0104990273013
-0.0131771931668
-0.0149175059694
-0.0134761205144
-0.00746352569673
-0.00271311948608
-0.000737899309843
-0.00010702510549
-5.41559553905e-06
-0.0666384321215
-0.0525319981057
-0.0379986510627
-0.0251741412485
-0.0155805854807
-0.00936360135107
-0.00575052788934
-0.00389614545719
-0.00322111515885
-0.00340591228523
-0.00428899806647
-0.00574072177894
-0.00749235127435
-2.15116880096e-15
-7.00719537031e-15
-1.45773377717e-14
-2.14858574016e-14
-7.51974920956e-14
-6.23233152101e-14
-3.18466240172e-13
-1.79705368988e-13
-1.12615064553e-12
-4.96114835057e-13
-3.45306835458e-12
-1.3138261835e-12
-9.44600607477e-12
-3.26070060853e-12
-2.35671781841e-11
-7.64067397429e-12
-5.44824572029e-11
-1.70312383825e-11
-1.18801483441e-10
-3.65204329528e-11
-2.50430156672e-10
-7.66045695926e-11
-5.19635235759e-10
-1.58958674684e-10
-1.08216555956e-09
-3.31261456437e-10
-2.35311220306e-09
-7.16767438672e-10
-5.70580400535e-09
-1.6717595885e-09
-1.6421485467e-08
-4.21474586673e-09
-5.47771986827e-08
-1.07178343503e-08
-1.91244358743e-07
-2.4082539627e-08
-7.07689868233e-07
-1.31207479417e-07
-2.08316263132e-06
-2.77299519299e-07
-4.28537115438e-06
-5.26227220855e-07
-6.23572055264e-06
-7.54090433035e-07
-6.03654801189e-06
-7.17127668677e-07
-4.39310573819e-06
-5.87324086242e-07
-3.03230053154e-06
-4.48770093755e-07
-2.06661376187e-06
-3.33712073348e-07
-1.32182933862e-06
-2.36086337402e-07
-7.93363238987e-07
-1.57442215076e-07
)
;

boundaryField
{
    inletfuel
    {
        type            calculated;
        value           uniform 0;
    }
    inletair
    {
        type            calculated;
        value           uniform 0;
    }
    outlet
    {
        type            calculated;
        value           nonuniform 0();
    }
    axis
    {
        type            empty;
    }
    leftside
    {
        type            calculated;
        value           uniform 0;
    }
    burnerwall
    {
        type            calculated;
        value           uniform 0;
    }
    front
    {
        type            wedge;
    }
    back
    {
        type            wedge;
    }
    procBoundary0to1
    {
        type            processor;
        value           uniform 0;
    }
}


// ************************************************************************* //
