/*--------------------------------*- C++ -*----------------------------------*\
  =========                 |
  \\      /  F ield         | OpenFOAM: The Open Source CFD Toolbox
   \\    /   O peration     | Website:  https://openfoam.org
    \\  /    A nd           | Version:  7
     \\/     M anipulation  |
\*---------------------------------------------------------------------------*/
FoamFile
{
    version     2.0;
    format      ascii;
    class       volScalarField;
    location    "0.03";
    object      ed::R_H2O;
}
// * * * * * * * * * * * * * * * * * * * * * * * * * * * * * * * * * * * * * //

dimensions      [1 -3 -1 0 0 0 0];

internalField   nonuniform List<scalar> 
814
(
2.94577751788e-07
2.98697326131e-07
2.04603567853e-07
4.47584965139e-05
6.14987902048e-05
0.000107863824218
0.00323453502361
0.00774432993025
0.0568292140125
0.141037998563
0.790532705958
26.4999645658
0.278027766232
1.22918258862
15.2032707947
0.376058158746
1.26127533528
7.3359304689
0.405899096762
1.02132525465
3.29650736021
0.3703914584
0.705752413471
1.43858413456
0.293679266742
0.438115333171
0.627498726376
0.205956087049
0.252491313764
0.282370596878
0.129744308534
0.138832526757
0.136455396381
0.0754362077631
0.0758007743842
0.0751147000851
0.0429459491223
0.0441669698173
0.0503658758088
0.0267853228712
0.0301452789105
0.0411923003136
0.0203914416208
0.024973489136
0.037861010371
0.0183707257408
0.023023752792
0.0351761821708
0.0173264289511
0.021323763622
0.0312351889381
0.0156571581794
0.0186857509759
0.0258746996713
0.0129310512742
0.015102332732
0.0202318602736
0.01039694899
0.0121247020512
0.0162672089635
0.00856600311164
0.0100111778068
0.0135122153517
0.00693565592733
0.00806800162315
0.0107573660753
0.00540719603006
0.00620364801731
0.00805849299643
0.0040021399979
0.00451071720775
0.00566279192575
0.00340062100756
0.00379492154847
0.0047125735267
0.0146129258114
0.0163448476907
0.0203627560381
0.234004571923
0.248599060056
0.282729168492
3.55845715126
3.67451612613
3.9261344805
19.4117813768
19.4384413259
19.5972124062
4.43079446603
4.36706956599
4.22145305947
0.594458507373
0.582590904966
0.560251382586
0.0949533058321
0.0932180459337
0.0895826200239
9.47010687391
54.8400048743
16.7231236712
5.19560969687
1.71908651945
0.625879612627
0.264826359034
0.135620136709
0.0880159564199
0.0722972180778
0.067485115556
0.064195802821
0.0579462081316
0.0485553780585
0.0376178082314
0.0285026843237
0.023121813069
0.019284061929
0.0150749394624
0.0109240894879
0.00738003926667
0.00611944078122
0.0267606231696
0.333886719053
4.29306425371
19.8629045653
4.02807901278
0.531633904608
0.0848349816151
0.00144791629834
0.000497648431683
0.000261196272883
0.000134239176565
6.21752453912e-05
2.66883499518e-05
8.56027525676e-06
2.07232899671e-06
4.58023611251e-07
9.23258111839e-08
1.67666499667e-08
2.74885949923e-09
4.05714326293e-10
5.41722930464e-11
6.42126605559e-12
6.54441086763e-13
5.36052123611e-14
3.27698271102e-15
1.40456691287e-16
7.07395964251e-18
0.228159928643
0.111203021464
0.0222434738131
0.00610949875422
0.00168120858758
0.000493170798102
0.000110042080349
2.10663953497e-05
3.91475017341e-06
6.91736029651e-07
1.13648063848e-07
1.72296609172e-08
2.41598601677e-09
3.16528367045e-10
3.82027497319e-11
4.07025148752e-12
3.52685642919e-13
2.28739569878e-14
1.04253858853e-15
4.63929283471e-17
2.99924060857
5.647424669
0.940731069037
0.123154305655
0.0166601374252
0.00300947490846
0.000496437937162
8.27640573753e-05
1.39226730934e-05
2.30297141433e-06
3.62333144191e-07
5.34910317905e-08
7.48499207011e-09
1.01161253088e-09
1.29715705716e-10
1.48769656042e-11
1.37636746585e-12
9.51939630405e-14
4.537973725e-15
1.79405304352e-16
29.0982363462
38.7785962241
9.50500356129
1.48745530524
0.253713374193
0.0297944171773
0.00268658222399
0.000349586390529
4.99806514442e-05
7.60856009653e-06
1.15138055167e-06
1.67739012212e-07
2.38469964996e-08
3.38935781704e-09
4.66959869771e-10
5.76300862776e-11
5.66014721688e-12
4.15528114903e-13
2.10855320294e-14
1.22285231138e-15
36.9769748372
7.16293478371
21.70166632
12.1918824635
1.81357962528
0.267674949761
0.0283862407918
0.001653912212
0.000179114283006
2.41726603364e-05
3.53612918154e-06
5.18222297517e-07
7.68005427953e-08
1.17502517271e-08
1.757677704e-09
2.33028966859e-10
2.41926586797e-11
1.87925117901e-12
1.03196525654e-13
1.01562129559e-14
10.126967286
1.14775665148
4.41809332818
17.5264431039
2.89825794555
0.467776832457
0.0549582684564
0.00435110685494
0.000428973714603
5.9156100521e-05
9.23765671572e-06
1.45607287551e-06
2.35827591962e-07
3.99615137286e-08
6.55165895134e-09
9.31282290132e-10
1.01943217872e-10
8.33076916845e-12
4.98866354489e-13
7.15389477948e-14
2.66250623038
0.852596564173
4.24927447501
12.7617560028
2.13199998779
0.370774050246
0.0503633172092
0.00586334965822
0.000660586841602
0.000116934762855
2.08039411479e-05
3.69090563981e-06
6.81444101754e-07
1.30950172776e-07
2.36619902055e-08
3.5997816683e-09
4.1469151521e-10
3.54155525997e-11
2.29047221075e-12
3.95632750535e-13
0.862020913729
0.978335815957
5.50716783764
11.5946180474
1.66429506042
0.300617028212
0.0455883762708
0.00675708124783
0.00113155469228
0.000215224708347
4.27085724474e-05
8.77185304556e-06
1.89738367695e-06
4.16140638577e-07
8.25446484373e-08
1.33901647549e-08
1.61992142488e-09
1.43817440909e-10
9.84850897726e-12
1.77540610918e-12
0.397291016311
1.01855823814
5.83135996135
13.2923292753
1.72256423541
0.300678257932
0.0459531806677
0.0077158497433
0.00160901382186
0.00034705052714
7.88599434405e-05
2.0489258506e-05
5.2730281146e-06
1.30137441425e-06
2.79524804183e-07
4.80709429008e-08
6.09754230083e-09
5.60892844976e-10
3.98064596282e-11
6.8415028432e-12
0.250062755405
0.92769343263
5.31722444172
16.1464658415
2.06265758586
0.339897458974
0.048964438448
0.00860742021804
0.00213204419485
0.000583442277562
0.0001539476509
4.9135388493e-05
1.49403212104e-05
4.04587998261e-06
9.24971428795e-07
1.67551249053e-07
2.22737904639e-08
2.11972350513e-09
1.53080693948e-10
2.3447335509e-11
0.1796281963
0.741016162955
4.29047768004
19.187854156
2.4386937674
0.356381649987
0.0481244721345
0.00958909457386
0.00297484879527
0.00107194510193
0.000386255635201
0.000127034687431
4.15000809314e-05
1.23826356274e-05
2.9940830088e-06
5.69388196837e-07
7.93706506731e-08
7.81117001754e-09
5.66252456692e-10
7.27552973105e-11
0.152820088586
0.630803317011
3.77526634635
21.5184629053
2.58411610678
0.290950973176
0.0437550182736
0.0130935277446
0.00543358429976
0.00232860759703
0.000955524284417
0.000365480790204
0.000118588290195
3.44508836213e-05
9.24884288423e-06
1.86731269162e-06
2.74114958045e-07
2.79156916619e-08
2.02009507276e-09
2.06330512024e-10
0.149979887848
0.625538978374
3.74599085464
25.1781131856
2.34371058496
0.223740738652
0.0580175807876
0.0267921589907
0.0129025885649
0.00579963008992
0.00241179377002
0.000928989386117
0.000332862564644
9.82241976448e-05
2.57578070028e-05
5.59698226368e-06
8.87716100491e-07
9.44500591231e-08
6.848477945e-09
5.43354531939e-10
0.148917956036
0.599272654906
3.46560120744
26.4392197698
2.08843427769
0.306928404484
0.12369377938
0.0625849398064
0.0303860383671
0.0136944759749
0.00567792084493
0.00218414497121
0.000778173126304
0.000252797058481
6.98103714359e-05
1.55607491829e-05
2.6001478149e-06
2.90975103737e-07
2.13609687426e-08
1.34997021689e-09
0.138354923065
0.499008827781
2.37298546955
11.6674341461
2.47932446127
0.626454308108
0.274706185781
0.131996502512
0.0619909591602
0.0276844493557
0.0115273873656
0.00446867585601
0.00161358733738
0.000540828204611
0.000161066565688
3.8859241992e-05
6.87083989203e-06
8.0465955286e-07
6.00976695678e-08
3.20761709341e-09
0.116329068743
0.358406429539
1.26303301926
3.54732911349
3.87850594004
1.20493377848
0.511928742134
0.235093733591
0.108027073196
0.0480504594936
0.0202232176616
0.00796250695168
0.0029291023741
0.00101179004662
0.000318592137547
8.2476933266e-05
1.57023729434e-05
1.96569144154e-06
1.52053802076e-07
7.40149018169e-09
0.0885541750673
0.228326378542
0.617944008167
1.39445072706
2.83983070877
2.01218904093
0.805142424826
0.368064213157
0.174309324777
0.0808379360831
0.0351928384254
0.0140575973093
0.00516410834048
0.00178518542474
0.000579069929765
0.000159407356167
3.28012723385e-05
4.43748762821e-06
3.61787016366e-07
1.72240426479e-08
0.0633090532634
0.14994967154
0.378143462885
0.853458196756
1.7411896043
3.07660289057
1.2052453755
0.580196108967
0.308981250727
0.160943092321
0.0759504316596
0.0313149364764
0.0112819585112
0.00368105472177
0.00114594528981
0.000321605488442
7.05207250781e-05
1.02994758302e-05
8.94997656819e-07
4.38388218885e-08
0.048214910812
0.117544817772
0.296366023824
0.667292950182
1.33483890625
2.39075773346
1.88534365639
1.01989121538
0.643018277791
0.393358545963
0.207445700777
0.0910076238887
0.0339299151493
0.0106047783645
0.00299423802905
0.000802541810262
0.000181859186072
2.84411859809e-05
2.64927594533e-06
1.37618724093e-07
0.0406712352371
0.101028762991
0.244397909071
0.528148343829
1.00062124483
1.63773628726
2.57303078186
1.95266889525
1.39507357723
0.994434054755
0.572156960848
0.27434343303
0.110692192203
0.0367134405541
0.0101356123871
0.00248551439487
0.000563513703237
9.45436432989e-05
9.55575480654e-06
5.37537399881e-07
0.0339844568085
0.0809682674414
0.182442124121
0.36862572019
0.650152470541
0.988143143183
1.42532166662
2.1040674208
3.18395260799
2.35682347759
1.39566696588
0.709390331178
0.317152413137
0.118196096574
0.035944964627
0.00855749497652
0.00181782058385
0.000319377698982
3.57327008147e-05
2.2137303604e-06
0.0256786648362
0.0565335433188
0.116567544939
0.217411278965
0.356524449518
0.51327405556
0.703512320238
0.9583797121
1.30237509735
1.87955371214
3.02642085443
1.50902833816
0.711575847119
0.29793166953
0.104304737258
0.0282630697583
0.00575297873213
0.000977915394953
0.000118007115425
8.05409952835e-06
0.0176494193831
0.0354429495803
0.0667102233309
0.114916333749
0.178721228632
0.258955115435
0.372941243237
0.536997041914
0.775092123645
1.11085022224
1.67979142148
2.66243107622
1.24037550474
0.561386900237
0.222863602372
0.072118090581
0.0163015160498
0.00259964087592
0.000313996130912
2.33088560253e-05
0.0113076920656
0.0210582233109
0.0377462958918
0.065479297609
0.114600075923
0.217094376877
0.43955261206
0.758537202712
1.1735908897
1.68512728436
2.28894547465
3.07506329425
1.65002496778
0.771095365721
0.338009042497
0.124936791285
0.0339733712218
0.00559100336629
0.000641838925408
5.07125635162e-05
0.00955624677411
0.0197357840787
0.0434926639961
0.10330688886
0.260866811799
0.631285377844
1.1780822433
1.88549901945
2.74185762301
3.75778253645
4.90251506613
3.10096209793
1.47989421401
0.768525720166
0.376341748682
0.155731330903
0.0486786296171
0.00870683196997
0.000951173819517
7.63679047401e-05
0.0430492709448
0.0931021436641
0.214066902703
0.501058277279
1.15353895668
2.0663235656
3.22648595075
4.64586620476
6.31964150769
8.38868472078
4.7116401833
2.07863184209
0.95429975189
0.512415712304
0.294228740706
0.141397566254
0.0479770774069
0.0091706406875
0.000999785529062
7.90925515258e-05
0.460533423014
0.796323108306
1.50892497657
2.75090737474
4.27970787364
6.07941058928
8.31367425459
10.9891158035
11.9816957054
5.36810890591
2.33049680087
1.00248119606
0.471135981608
0.264649278058
0.168760363935
0.0938846862706
0.0342102771968
0.00660139733278
0.000747369138302
4.98415175146e-05
5.10923304192
6.65500544527
8.52714763415
10.6054785325
13.2660741929
16.0286796944
16.4282172478
8.64452899186
3.99200395342
1.72369814849
0.720903978783
0.322228426786
0.172543798527
0.116876472433
0.0888620164435
0.0542109966744
0.0193041657788
0.00363320215305
0.000487092569929
3.10160554928e-05
20.4651335752
19.8514157482
18.1771672412
14.2429842673
9.37552657331
5.73443102476
3.17338284038
1.5639416902
0.708147280708
0.314906206939
0.146449930149
0.0810882843647
0.0605398300321
0.054595737453
0.0468890906573
0.0286137917527
0.0105060193995
0.00220246076007
0.00034005258071
1.95803457895e-05
3.5877806741
2.97002773755
2.30052609014
1.63638120983
1.06295747247
0.638442894045
0.356289082087
0.184631485821
0.0907937868627
0.0473795414426
0.0301033574314
0.0255751832015
0.027606227011
0.0293707081049
0.0264055322864
0.015751378376
0.00568569241868
0.00137167127494
0.000216887726182
1.13731892153e-05
0.47242560544
0.387049519804
0.296867177816
0.206115010926
0.12900557565
0.0751787316247
0.0424209347412
0.0240662819648
0.014530745989
0.0105338102712
0.0100453556777
0.011821987481
0.0148376233514
0.0167972292819
0.0151742179005
0.00840398875235
0.00305499392262
0.000830880438049
0.000120511112214
6.09800325568e-06
0.0750353997266
0.0591514438561
0.0427867805527
0.0283462814358
0.0175438620373
0.0105434889131
0.0064751397216
0.00438709048916
0.00362700105352
0.00383508407415
0.00482944562317
0.00646409796401
0.00843644657992
2.42223302261e-15
7.8901572086e-15
1.64141972106e-14
2.41932447579e-14
8.46729687087e-14
7.01765440781e-14
3.58595496172e-13
2.02349661685e-13
1.26805450172e-12
5.58629214009e-13
3.88818217987e-12
1.47937863649e-12
1.06362772814e-11
3.67157458182e-12
2.65368283613e-11
8.60345910894e-12
6.13476761705e-11
1.91773086369e-11
1.33771406594e-10
4.11222953115e-11
2.81986329979e-10
8.62573490592e-11
5.85113370556e-10
1.78988720401e-10
1.21852694829e-09
3.73003010521e-10
2.64962288483e-09
8.07085784576e-10
6.42478027577e-09
1.88241447129e-09
1.84907220488e-08
4.7458370611e-09
6.16795573996e-08
1.20683659425e-08
2.15342655084e-07
2.71171294074e-08
7.96864368725e-07
1.47740655831e-07
2.34565753965e-06
3.12241444046e-07
4.82536169157e-06
5.92535997724e-07
7.02147048414e-06
8.49111770361e-07
6.79720063364e-06
8.07491406401e-07
4.94667168196e-06
6.61331549635e-07
3.41439429518e-06
5.05318662193e-07
2.32702338224e-06
3.75762424476e-07
1.48839025223e-06
2.65835076441e-07
8.9333325936e-07
1.77281174932e-07
)
;

boundaryField
{
    inletfuel
    {
        type            calculated;
        value           uniform 0;
    }
    inletair
    {
        type            calculated;
        value           uniform 0;
    }
    outlet
    {
        type            calculated;
        value           nonuniform 0();
    }
    axis
    {
        type            empty;
    }
    leftside
    {
        type            calculated;
        value           uniform 0;
    }
    burnerwall
    {
        type            calculated;
        value           uniform 0;
    }
    front
    {
        type            wedge;
    }
    back
    {
        type            wedge;
    }
    procBoundary0to1
    {
        type            processor;
        value           uniform 0;
    }
}


// ************************************************************************* //
