/*--------------------------------*- C++ -*----------------------------------*\
  =========                 |
  \\      /  F ield         | OpenFOAM: The Open Source CFD Toolbox
   \\    /   O peration     | Website:  https://openfoam.org
    \\  /    A nd           | Version:  7
     \\/     M anipulation  |
\*---------------------------------------------------------------------------*/
FoamFile
{
    version     2.0;
    format      ascii;
    class       volScalarField;
    location    "0.03";
    object      epsilon;
}
// * * * * * * * * * * * * * * * * * * * * * * * * * * * * * * * * * * * * * //

dimensions      [0 2 -3 0 0 0 0];

internalField   nonuniform List<scalar> 
814
(
16890.8715772
21290.8105223
54307.9428221
21581.3562301
25760.4672391
47078.5585653
23510.7620136
29562.4530958
44111.265761
28708.8387047
50335.1826097
146988.720965
35818.0449487
75286.1682353
251276.963687
46218.1262705
106737.502203
312803.86186
60469.2414464
141745.960447
346894.62423
78916.5054469
176220.692471
359929.704899
101882.214843
207744.763215
362047.106041
128759.806413
233552.347261
357463.07863
156870.337961
250570.431441
346574.738559
180767.749181
255649.264496
326844.487061
193515.742954
246384.998302
295192.170912
189637.189545
222102.262648
251068.597563
166252.935537
182784.525178
195457.318544
124814.647158
130785.922109
132341.524378
77093.7674464
77850.107152
74813.9292902
41116.234616
40592.7606364
37927.7299885
22910.01598
22612.754819
21428.5220743
15907.7742814
15881.6769398
15524.1708749
13281.4968213
13367.1277986
13300.3184795
11978.7088722
12100.6247988
12139.5654017
11017.5428363
11153.5765749
11251.5355353
10152.3917749
10289.85755
10430.6868586
9350.80067798
9480.00561408
9645.68993617
8979.76558724
9116.2056603
9336.76822249
12032.1019066
12264.3039723
12716.5161157
14239.7309252
14170.9848745
13933.9726941
1918.79088779
1881.93100291
1796.87569306
214.723450126
212.432080775
207.56501593
68.3526167524
68.2012010237
68.0285187563
47.9388064642
48.1836814096
48.6878485852
3187.93723951
166992.798068
258327.679637
304945.904918
328561.407826
341966.026773
346995.298924
342096.386006
324587.151135
291943.431557
244791.647044
185518.849191
120576.971702
65210.9784593
32653.7398865
19187.9934771
14545.7918494
12736.3299902
11765.3814526
11011.3683307
10320.6548062
9658.75275083
9496.90944588
13249.6179124
13492.1060273
1686.65836625
201.107789557
67.7565013962
49.3254015332
0.84318106199
0.770079619678
0.74836688443
0.710846940142
0.617596371791
0.514341814097
0.414454572834
0.33730713075
0.275377749976
0.229397383549
0.192076747778
0.162766587133
0.13794457384
0.118265759599
0.101033621386
0.088841979188
0.0784220148003
0.0722981432855
0.0707264970496
0.234862369454
2.04762311164
3.39646455989
3.05164143831
1.93413280611
1.30273397374
0.886268701507
0.616969854233
0.446077714167
0.337075127482
0.266844071478
0.217631899957
0.180956773851
0.151527650066
0.128067781454
0.108523113857
0.0938425448722
0.0825508766041
0.0752518500237
0.0762674583019
0.244964192288
25.3750869279
17.6867736479
10.7556200433
6.24040124527
3.34157447042
1.79945728105
0.972180997997
0.590465172458
0.403222773526
0.302299063206
0.239812342065
0.196036896473
0.162299032017
0.135725591783
0.114151693607
0.0977643808693
0.0855781496843
0.0776673413489
0.0800632772999
0.253711748483
2173.55813198
365.450246937
64.9944204624
21.3896125504
9.51429426947
4.20144876539
1.89677251464
0.905528030259
0.520574777645
0.357978020989
0.272506401482
0.217572727936
0.177107128799
0.146142756372
0.121500334668
0.103082162281
0.0894486708437
0.0810788118854
0.0840063206607
0.385937260721
13862.852502
2907.24234155
651.854957044
120.88851224
28.5675229646
10.9120154527
4.02129539494
1.52014730506
0.707027416636
0.43138773754
0.311917956567
0.242417720277
0.193648352563
0.15756166758
0.129374698717
0.108859768175
0.0936873454154
0.0850813771045
0.0887024035974
0.455887581576
36746.3856249
7481.99300636
1436.52735776
266.810706332
47.8420783053
15.3749020594
5.42728193396
1.99261430462
0.889662223969
0.513645533202
0.357135385347
0.270532778758
0.212067598636
0.170024446211
0.137892203446
0.115083022512
0.0984028176375
0.0893378767121
0.0953962133593
0.556352329614
70928.3764707
13894.4794661
1984.80984711
218.609137791
43.6950808299
14.4496390156
5.33124374655
2.14447863868
1.03520737396
0.601334067082
0.408988001797
0.302855526869
0.23293662473
0.183850924274
0.147295050248
0.121935719068
0.103759663104
0.0939000719203
0.103099171577
0.655231376912
116811.128363
23764.3728195
2903.80767088
210.688760563
41.4847846348
13.7285506298
5.18067542318
2.26688223546
1.17066596977
0.695745863843
0.468850439163
0.340996740054
0.257376822054
0.199872038149
0.158281130302
0.130125063437
0.110397169899
0.0997063827094
0.110976595416
0.727165508902
166205.482511
37058.7716146
4306.70614006
267.941961838
46.2442722441
14.0406200384
5.16321971669
2.36566311686
1.29339569114
0.795104716143
0.538518254959
0.386668028566
0.286809708464
0.219194698254
0.17181634382
0.140645199949
0.119275691369
0.107920075813
0.120139258516
0.768235505793
206646.671973
52093.6760308
6095.95646771
361.722113358
55.0964889401
14.8059928525
5.16691571254
2.42949011652
1.4060702529
0.901452504147
0.620588467218
0.443115002272
0.323343146714
0.243537476871
0.189474083365
0.155044775959
0.131950710767
0.12007223825
0.132770133207
0.795649614113
228791.641941
66502.9310056
8064.20306618
459.862814656
61.9300753794
14.5541604127
4.97303149517
2.48721117476
1.54048677578
1.03543357981
0.72219058556
0.514215983252
0.370422887011
0.275486923271
0.213625568351
0.175704365878
0.150857655184
0.138522703475
0.151853619302
0.827540943563
228449.224387
74533.0543597
9578.96548811
495.303336659
59.2044490273
12.8474014015
4.88564917351
2.78400648661
1.82435972126
1.24826924627
0.86706329183
0.607702261327
0.431844506295
0.318655807418
0.247677369726
0.205946571419
0.179417085771
0.166644656567
0.181696802384
0.879107945062
208271.049518
71002.7924399
10409.0170954
520.729672955
53.6384139398
12.9349110706
6.308496782
3.92517542716
2.51712059747
1.6461624605
1.09362381968
0.740016211546
0.513794817205
0.37686343574
0.295757543575
0.250069777437
0.222042921431
0.208801888105
0.228132797761
0.965769253568
171434.887242
57613.4342622
8729.92110462
519.336250163
59.2988801426
19.9879245801
11.5064293606
7.00792862171
4.11317306121
2.42167217673
1.46933307996
0.933067444517
0.626051696306
0.455447377585
0.362853783272
0.31341900363
0.28434833198
0.270522079622
0.298363431622
1.10314221499
122609.997025
38243.9049685
5557.26373315
486.974367373
82.5457794601
37.9734566678
22.6384057984
13.2854423153
7.317654389
3.89776075013
2.12030136715
1.23105721071
0.78358067014
0.562218855895
0.455296559684
0.402962090019
0.373663478273
0.359060679029
0.401008869682
1.30571784878
72571.866148
20368.7351096
2958.33548433
404.743105123
121.593007478
64.1227082532
38.6317999919
22.826520186
12.5482461011
6.42722974068
3.23880457595
1.717908136
1.02026062626
0.711456725394
0.582620133272
0.527689366348
0.499661489294
0.483919733984
0.545980558799
1.58540603437
36666.3443253
10290.3989042
1838.90164712
415.021823249
169.907475027
88.5624377673
54.1447043493
33.9050463653
19.94642626
10.6286882485
5.30952572733
2.63585088982
1.43429283568
0.94185238765
0.761219281442
0.699201965065
0.673519259893
0.65577752841
0.742578091024
1.95057999306
19616.1272145
6766.62823557
1708.33513207
520.784116419
219.019658255
109.451640097
67.6883830102
46.5390251215
31.118277662
18.7757576309
10.1228928613
4.94016915113
2.41194107876
1.38746177646
1.03594088431
0.9329936505
0.905407269193
0.883955087492
0.996991865332
2.41076188526
13621.208186
5944.54389992
1912.75726175
669.542830365
279.843655305
135.633732865
84.1576211133
63.7532966849
50.4970233439
36.8495197316
23.2556981016
11.9845187397
5.46081784375
2.56308266369
1.56329850353
1.27152146015
1.20611870006
1.1737453109
1.30910387436
2.98225159454
11603.2980087
5911.74374227
2245.90986694
850.610515959
359.775632179
176.948980328
114.140936978
94.0440733553
84.5320643218
74.8915120224
57.0098545906
33.8775522085
15.7931972264
6.38181292568
2.93438184723
1.86852271973
1.60582499265
1.52819084362
1.67468990343
3.70101623932
10734.4950011
6083.41251809
2621.408892
1070.26319729
469.160517883
244.639778169
172.093122296
154.951667897
150.360947036
145.77609265
127.94110573
92.2177883425
49.5144112174
19.7639603311
7.27247254366
3.29092337579
2.23453775004
1.96387033374
2.09063148445
4.62643874264
10252.8515827
6354.67192635
3085.07772146
1377.02938586
643.565552946
367.944156035
289.343187295
279.805043452
276.706236168
260.669410249
234.771123949
197.469627359
134.279439838
62.8054022168
21.3668812506
7.3738146765
3.53639941856
2.56019607402
2.56683665412
5.86308162899
9880.3012421
6651.4563067
3630.71686566
1810.25176932
948.209281329
631.879121993
564.597557692
542.975624336
485.809502806
403.88453171
337.91405157
297.091976765
253.653742663
162.279951725
62.2707113181
18.8282387932
6.62405525146
3.54272324746
3.13138597279
7.59354423071
9560.68698232
7000.90862498
4324.10627695
2521.78764322
1629.32080212
1335.71271792
1191.26029587
972.537600423
733.220064509
526.356540831
381.595803751
311.057969701
303.48505427
273.264250223
145.505417717
44.5629828918
13.1541679922
5.24886056701
3.83863951729
10.1687680083
9292.69848604
7562.84273861
5529.38305984
4091.20962268
3367.38256352
2790.93977266
2023.87316291
1360.27242829
872.320214729
549.282778121
351.409272315
251.243701132
241.005134912
288.215421927
238.43139096
87.3854314835
23.6174052973
7.58530880033
4.67599534305
14.1588721929
9565.40091118
8936.3828109
8188.36734289
7483.70176851
6065.26511409
4021.68438527
2404.55297325
1383.57577007
787.275987162
454.956706341
277.407336132
188.463212254
168.159096731
221.16272785
260.542830301
125.224806543
32.5269946622
9.36638874828
5.5287303731
20.6711980334
14163.8895701
14542.7496901
13087.4680149
9698.58779939
5968.79701098
3309.26547569
1756.49254738
936.070650035
507.847731516
290.054440481
179.994584877
131.558995427
128.097371823
176.369259918
232.850969739
129.046690868
32.3771000724
9.20880206781
6.37363462783
31.099897186
12087.5139277
9055.95498186
5974.60608032
3686.97521783
2112.59401241
1191.72088106
676.577865091
389.507224159
227.57071801
143.58552776
105.33039688
95.2533379112
108.058785714
152.648359203
193.128248775
99.0295775209
22.8213829554
7.74727184854
8.38284861269
45.9189141508
1432.83015189
1099.62850574
802.436880775
569.979798517
398.778678365
271.720207511
181.871419906
123.269808015
89.9951013629
75.888589852
74.9862840883
81.8231645642
97.3417535708
128.168820754
132.990968016
55.1422490818
15.3276303974
7.29597623735
11.8292486011
65.1652611339
185.06459064
162.427036606
138.056045824
114.369616133
93.1389809937
75.6584932713
63.8246323652
58.3180493056
57.9071147929
60.4748439247
65.065478459
71.2704671576
82.0114238579
92.8972055916
77.6866502011
32.0245481062
11.0717268133
7.72134290759
17.0683149785
88.56886734
66.8565816273
64.4827518821
60.4945600688
55.8533723047
52.1786951426
50.2617588795
49.8063252461
50.1873560981
51.1396403984
52.8001861547
55.1315255362
57.696927434
60.8686492527
60.4394511956
45.2978413267
19.1514737034
8.88672018439
9.01024584122
24.042411019
114.456297139
50.5311986577
51.8174001943
52.1560364618
51.4237629664
49.9787084452
48.3512069719
46.9203319512
45.7826451169
44.9152881129
44.439428663
44.2179975817
43.7141100711
42.4719844132
2.05249364739
4.47767125621
8.45003338227
5.092569495
8.59143800814
5.2568044573
7.867693841
5.11786872988
6.89896339565
4.94867130432
6.06264382831
4.80665994116
5.40694153853
4.71746004811
4.94475202392
4.68928132546
4.67117014225
4.72661661674
4.57577494863
4.8324840311
4.64355952293
5.00882031444
4.87134148208
5.25602003202
5.26179129439
5.57275901518
5.83956420746
5.96148439963
6.67952161469
6.43311209369
7.95783196215
7.02692965583
9.94674202033
7.93053276424
13.0348979173
9.35033643663
19.4212031657
47.171071353
25.9584510479
58.3061293482
33.5903675809
70.5452268756
44.1380108651
84.9431026704
58.9717512499
103.454624096
77.9594363611
127.056486195
100.548480778
157.053335936
124.256117637
193.15473295
147.173355299
233.843300427
166.278371551
276.668761087
)
;

boundaryField
{
    inletfuel
    {
        type            turbulentMixingLengthDissipationRateInlet;
        mixingLength    0.005;
        phi             phi;
        k               k;
        value           uniform 1630.0935556;
    }
    inletair
    {
        type            turbulentMixingLengthDissipationRateInlet;
        mixingLength    0.005;
        phi             phi;
        k               k;
        value           uniform 0.0603738353925;
    }
    outlet
    {
        type            inletOutlet;
        inletValue      nonuniform 0();
        value           nonuniform 0();
    }
    axis
    {
        type            empty;
    }
    leftside
    {
        type            epsilonWallFunction;
        value           nonuniform List<scalar> 
33
(
2.05249364739
4.47767125621
0.234862369454
0.244964192288
0.253711748483
4.47767125621
5.092569495
5.2568044573
5.11786872988
4.94867130432
4.80665994116
4.71746004811
4.68928132546
4.72661661674
4.8324840311
5.00882031444
5.25602003202
5.57275901518
5.96148439963
6.43311209369
7.02692965583
7.93053276424
9.35033643663
47.171071353
58.3061293482
70.5452268756
84.9431026704
103.454624096
127.056486195
157.053335936
193.15473295
233.843300427
276.668761087
)
;
    }
    burnerwall
    {
        type            epsilonWallFunction;
        value           nonuniform List<scalar> 7(54307.9428221 47078.5585653 44111.265761 0.84318106199 2.04762311164 25.3750869279 3187.93723951);
    }
    front
    {
        type            wedge;
    }
    back
    {
        type            wedge;
    }
    procBoundary0to1
    {
        type            processor;
        value           nonuniform List<scalar> 
27
(
45.3813871665
45.7362901342
46.451747708
47.3613465328
38.0333533948
26.408453423
12.5424228886
8.01977091314
11.1200710679
32.3604271476
139.502286458
49.0824258972
50.9803248828
51.4969096725
50.4473692266
48.2865987967
45.6829510308
43.0959483367
40.7014481145
38.4825176557
36.5414636998
34.7207066815
32.4732997816
38.0333533948
29.1290347619
180.222023688
318.779523392
)
;
    }
}


// ************************************************************************* //
