/*--------------------------------*- C++ -*----------------------------------*\
  =========                 |
  \\      /  F ield         | OpenFOAM: The Open Source CFD Toolbox
   \\    /   O peration     | Website:  https://openfoam.org
    \\  /    A nd           | Version:  7
     \\/     M anipulation  |
\*---------------------------------------------------------------------------*/
FoamFile
{
    version     2.0;
    format      ascii;
    class       volScalarField;
    location    "0.03";
    object      H2;
}
// * * * * * * * * * * * * * * * * * * * * * * * * * * * * * * * * * * * * * //

dimensions      [0 0 0 0 0 0 0];

internalField   nonuniform List<scalar> 
814
(
0.999999961654
0.999999970091
0.999999988628
0.999996110518
0.999995995919
0.999996988434
0.999798876944
0.99966566702
0.999222300579
0.993533573716
0.980584045663
0.848103360657
0.983244045301
0.957820020729
0.804259204589
0.967436740691
0.928450020478
0.763633927322
0.944678763635
0.892339625811
0.726501204363
0.913697837627
0.850868314644
0.694244764572
0.87313014583
0.80519122638
0.665204944853
0.822726811433
0.756652730832
0.637932762481
0.764458109879
0.706708823631
0.610732657224
0.702499919742
0.656698805735
0.581885606227
0.641413103638
0.607458751947
0.550122825289
0.58282714787
0.558075274605
0.513538716593
0.523320052166
0.504447643841
0.468117957313
0.45650127407
0.440956783489
0.409534425685
0.382556785992
0.369385090709
0.342209304592
0.316971367611
0.306394415709
0.284545072567
0.274870919696
0.266699352699
0.249748030842
0.253325558421
0.246616705331
0.232585096235
0.24182507341
0.235836770478
0.223258050306
0.234066089233
0.228602176127
0.217139780534
0.22728677908
0.22235896791
0.212077904245
0.22128744324
0.217076575977
0.208322314219
0.216549941171
0.213266417066
0.206463885559
0.212587655984
0.21022525278
0.205337306741
0.202221811191
0.200499493183
0.196882449282
0.127798363748
0.125947615959
0.121824137066
0.0195826542775
0.0193020069918
0.0186544616864
0.00189365849089
0.00186929298408
0.00181504117673
0.000347666376792
0.000341569196753
0.000329514211524
6.80432019528e-05
6.66953963965e-05
6.39082242188e-05
0.306662823734
0.415857728316
0.478147091967
0.506764864015
0.5214114122
0.526865784944
0.526778508555
0.521539908121
0.509935527862
0.491232866871
0.463852156844
0.424199348356
0.36941612322
0.307052080724
0.256587888642
0.228054321646
0.214381843073
0.206819664899
0.202200474918
0.198766824183
0.19706638284
0.197780689886
0.199077497778
0.192097218879
0.116172332263
0.0177425016219
0.0017422761013
0.000314172766158
6.03038119118e-05
4.68610931545e-06
2.6193909798e-06
1.20749518073e-06
5.09152844295e-07
1.87255244029e-07
6.15780469446e-08
1.84556416608e-08
5.08321920255e-09
1.27021024177e-09
2.85727698636e-10
5.74625554273e-11
1.03345617103e-11
1.66439534676e-12
2.40099810262e-13
3.05851435891e-14
3.29560310353e-15
2.8330909072e-16
1.78333052315e-17
7.49228109518e-19
1.11359600581e-20
0.0011520440304
0.00024423341199
4.15946461312e-05
1.20318199718e-05
3.20981935646e-06
8.1781367895e-07
1.97049767189e-07
4.53753589449e-08
9.87644956489e-09
1.99309231833e-09
3.67364483902e-10
6.16981580824e-11
9.5072599636e-12
1.35592552611e-12
1.76775783682e-13
2.00602727136e-14
1.82895451746e-15
1.22549860638e-16
5.30264489395e-18
7.18852402506e-20
0.0103547537723
0.000617275926184
0.000164414888541
4.7831330675e-05
1.08564485153e-05
2.97057475059e-06
7.00424586486e-07
1.54767149033e-07
3.2170459296e-08
6.24493844943e-09
1.11771030284e-09
1.84378370648e-10
2.85267315826e-11
4.21997700878e-12
5.87030298136e-13
7.20298287442e-14
7.03160276402e-15
5.03066067225e-16
2.23548852535e-17
2.74419064929e-19
0.0698811676941
0.0112033738249
0.00106980490346
0.000181889263053
6.07675641461e-05
1.51542587165e-05
2.45259724369e-06
5.10634263767e-07
1.01262488387e-07
1.90517461023e-08
3.35239282635e-09
5.52001365259e-10
8.74547668694e-11
1.36890145826e-11
2.05701646772e-12
2.72769954245e-13
2.83801998687e-14
2.1555743973e-15
1.00735115112e-16
1.61288931144e-18
0.138275750648
0.085922425852
0.0241710049753
0.00175081513446
0.000204700589865
5.18592376405e-05
1.25270827185e-05
1.5792972491e-06
2.96722245042e-07
5.47462417044e-08
9.64811813516e-09
1.62191024232e-09
2.7025889155e-10
4.58303357061e-11
7.51853238153e-12
1.07513177934e-12
1.18678515789e-13
9.53105699753e-15
4.78001333912e-16
1.2275235344e-17
0.205609053171
0.126045879898
0.0406745628884
0.00321903664951
0.00027718432324
6.39941079246e-05
1.75957242819e-05
3.22606755544e-06
5.95815123155e-07
1.19906945262e-07
2.33830141148e-08
4.30189929926e-09
7.9126610614e-10
1.49661711493e-10
2.70579626439e-11
4.16398078533e-12
4.86107752116e-13
4.10731739398e-14
2.21623198876e-15
7.89678399085e-17
0.253695159938
0.143063895059
0.042232022198
0.00197499163511
0.000198327731404
5.24090823477e-05
1.59460007334e-05
3.97240873595e-06
7.99285891885e-07
2.10721347659e-07
4.82388571995e-08
1.01786846545e-08
2.1584262437e-09
4.66547074864e-10
9.34612583469e-11
1.5444733899e-11
1.90149962813e-12
1.68019617113e-13
9.65552723645e-15
4.09365558096e-16
0.295945014425
0.16458030497
0.0484432703088
0.00162389548639
0.000155701667677
4.47042374661e-05
1.4398055067e-05
4.19776003321e-06
1.20422193513e-06
3.42760401275e-07
8.94529217649e-08
2.22422853792e-08
5.59274046842e-09
1.39081176026e-09
3.07271800655e-10
5.42507923624e-11
7.01860475477e-12
6.44422076363e-13
3.8946070872e-14
1.76467618591e-15
0.332480202433
0.18904961764
0.0585170808855
0.00196219288645
0.000165432679354
4.4273589669e-05
1.39152231996e-05
4.38943060384e-06
1.51920135006e-06
4.86740203086e-07
1.46784337914e-07
4.68557594404e-08
1.41842060045e-08
4.00015864835e-09
9.60034496221e-10
1.79621266371e-10
2.43204108974e-11
2.30748997182e-12
1.44767214789e-13
6.63388784369e-15
0.362511059806
0.214501901662
0.0697594570156
0.00264231201955
0.000209107963097
4.81458339178e-05
1.40431653775e-05
4.54256148026e-06
1.80540010358e-06
7.1714726767e-07
2.5005130398e-07
9.88469565295e-08
3.57502148723e-08
1.11371895359e-08
2.8471905677e-09
5.58990249799e-10
7.88948620252e-11
7.70516278821e-12
4.96043263444e-13
2.23194395772e-14
0.383195575419
0.237397602618
0.0804617096589
0.00340936816407
0.000268325244111
5.24038724446e-05
1.40338012559e-05
4.86501500377e-06
2.27080602324e-06
1.13858121445e-06
5.35187104861e-07
2.18579855691e-07
8.56137994581e-08
2.95472580994e-08
7.96974141734e-09
1.6299415066e-09
2.38923318539e-10
2.39607057928e-11
1.56777439939e-12
6.80363347681e-14
0.391096257619
0.249878410624
0.08655051692
0.0038844591864
0.000326040233835
5.51437927652e-05
1.48280125237e-05
6.54295577501e-06
3.68265422953e-06
2.07990221048e-06
1.09455091691e-06
5.21778768351e-07
2.04387157344e-07
6.88421273088e-08
2.05082195321e-08
4.40402102114e-09
6.71125740366e-10
6.91104048065e-11
4.57421987498e-12
1.8913873897e-13
0.386684702666
0.246707614537
0.0868510139098
0.00455050296337
0.000400611079373
6.74421146779e-05
2.43193244632e-05
1.33103941872e-05
7.64706643503e-06
4.24641477399e-06
2.21782034308e-06
1.06693956932e-06
4.66210996175e-07
1.59986976958e-07
4.62211410111e-08
1.05556799007e-08
1.71504926663e-09
1.8336945233e-10
1.23218179957e-11
4.86890443092e-13
0.368730438323
0.228994905108
0.0777789570262
0.00558927008594
0.000609258488288
0.000143145282461
6.52151499e-05
3.35079858898e-05
1.68161180917e-05
8.45154656487e-06
4.18777882962e-06
1.99042078457e-06
8.70652266718e-07
3.31390319391e-07
1.00385248606e-07
2.33096809449e-08
3.95104540652e-09
4.43067086917e-10
3.06146161052e-11
1.18179610921e-12
0.334242446091
0.196918968005
0.0645557165566
0.0081411879234
0.00126618983575
0.000419500742513
0.000192030425162
8.62475401213e-05
3.70192731666e-05
1.60773603517e-05
7.21804258442e-06
3.29572902697e-06
1.45169521018e-06
5.75127129662e-07
1.88559103757e-07
4.72789832182e-08
8.44948869659e-09
9.925825588e-10
7.11692424843e-11
2.7513401322e-12
0.283916128623
0.158143858652
0.0549036818043
0.0129658482234
0.00297024433774
0.00109861458615
0.000479687803922
0.000198155155189
7.73493011737e-05
2.98729574778e-05
1.19444918514e-05
5.05235969032e-06
2.19196105088e-06
8.99957874275e-07
3.15416973398e-07
8.53322860478e-08
1.64610876958e-08
2.07436320429e-09
1.57364367262e-10
6.25440103723e-12
0.232695258642
0.130455782704
0.0531872558215
0.0191425411304
0.00659031013902
0.00231174967641
0.00096764024192
0.000394320279892
0.0001527545482
5.7452071676e-05
2.14534129812e-05
8.25376537854e-06
3.36025732829e-06
1.37946447273e-06
5.08078318785e-07
1.47977193742e-07
3.10500058088e-08
4.24722749961e-09
3.45742441416e-10
1.44192166567e-11
0.199270080239
0.119645761089
0.0575356489307
0.0261047615086
0.0116067207206
0.00410590169818
0.00174254772179
0.000754820814262
0.00032620630271
0.00013317946435
5.03138529505e-05
1.79775825699e-05
6.53569663048e-06
2.49626717221e-06
9.15857326708e-07
2.79489997548e-07
6.31844465233e-08
9.37390165723e-09
8.23122319346e-10
3.64571624348e-11
0.183864929272
0.117548940419
0.0632820879491
0.0328289500962
0.016583899327
0.00717206861433
0.00302252062583
0.00153185711609
0.000812306726252
0.000388882499724
0.000159463374489
5.57704897262e-05
1.82937387939e-05
6.14672529857e-06
2.12783333891e-06
6.5991211659e-07
1.58437808112e-07
2.53731230906e-08
2.40549284666e-09
1.13380872397e-10
0.176904087065
0.118479064347
0.0696520505001
0.039588072418
0.0220973068603
0.0114639785531
0.00557050777449
0.00320861901268
0.00203223492891
0.00122492795751
0.000553408466371
0.000205518432105
6.46486500945e-05
1.91021292122e-05
6.01401406706e-06
1.85547385654e-06
4.77171128737e-07
8.38121947478e-08
8.67575509714e-09
4.35030424359e-10
0.173355614496
0.121074723492
0.0766210811753
0.0472619121446
0.0290671644324
0.0177806638511
0.0112062820744
0.00748023178666
0.00507740325348
0.00342920869431
0.00173090604134
0.000706108945003
0.00023925042717
6.72857811056e-05
1.85499819663e-05
5.34883231943e-06
1.43570581345e-06
2.80157622607e-07
3.25434975097e-08
1.74035171219e-09
0.172086001058
0.125617458367
0.085481760148
0.0572643143217
0.0388502768756
0.0273254887621
0.0206207918894
0.0164168545269
0.0127472207138
0.00860436400522
0.00437063754985
0.00191222230677
0.000724300689191
0.000221579656333
5.73616788239e-05
1.482668721e-05
3.90580815538e-06
8.24461507689e-07
1.07216955542e-07
6.07354832415e-09
0.172219043569
0.131753521865
0.0962514992372
0.0700003851185
0.0521808575934
0.0408895405676
0.0339557369216
0.0282372807647
0.0218862449383
0.0151986592066
0.00876325346308
0.00372825772711
0.00153533964055
0.000551899154613
0.000154289487524
3.75197649816e-05
9.16312594422e-06
1.99158427275e-06
2.80638016599e-07
1.66029235713e-08
0.174599819367
0.140600056588
0.110352308883
0.0872902926022
0.0711813626578
0.0599712578383
0.0493376042636
0.0385871723913
0.028037533885
0.0183810578553
0.0104776816445
0.00485725465768
0.00213856911373
0.000874116205398
0.000293423634845
7.41503362683e-05
1.72238174446e-05
3.73141734228e-06
5.53485129239e-07
3.35702318619e-08
0.18027750706
0.15361634167
0.129253244737
0.109661553819
0.093757387339
0.0778513313521
0.0597783906901
0.042404966944
0.0274180634688
0.0158061886631
0.00789740559401
0.00372003739796
0.00185061172799
0.00089937656673
0.000369966502748
0.000107678602506
2.466960322e-05
5.2008305912e-06
7.85407693951e-07
4.62465056855e-08
0.186305644591
0.166760526095
0.147338591668
0.128360027258
0.106390838108
0.0808282290856
0.0559461543205
0.0350132023385
0.0192649077949
0.00921025713154
0.00433597358454
0.0021567262732
0.00111778233307
0.000595490884721
0.000300207812092
0.00010803774352
2.51840440517e-05
5.29009960531e-06
7.99065026239e-07
4.31705642236e-08
0.181879870441
0.164140466953
0.140926237805
0.112558090908
0.0833038680753
0.0562675626413
0.0339794875916
0.0181693988714
0.00815462025113
0.0038419916121
0.00188292439111
0.000964337542715
0.000522099797801
0.000295944784563
0.000168431832311
7.2460126656e-05
1.82579101829e-05
3.99851992972e-06
5.82048367162e-07
2.44924697846e-08
0.103695430814
0.083519477676
0.0637979550327
0.0468122405181
0.0309796817357
0.0184129716805
0.00961756771856
0.0047698914285
0.00235800223437
0.00118319504864
0.000599341248717
0.00031413132918
0.000183802861117
0.000122284481226
8.30327531637e-05
3.95356144834e-05
1.03797546952e-05
2.46684269102e-06
3.39587898688e-07
1.39494755382e-08
0.0156626669686
0.0126101650209
0.00944060916548
0.00656148453407
0.00434424204801
0.00271886534172
0.00160866182544
0.000905278234758
0.000488755845394
0.000254235850878
0.000131093633731
7.74333285625e-05
5.95877338675e-05
5.11856182667e-05
3.74814049158e-05
1.77921349096e-05
5.92282103622e-06
1.59020609077e-06
2.05551277862e-07
8.28663354463e-09
0.00158268230034
0.00135581947938
0.00110009141214
0.000833809263664
0.000589902694953
0.000393894748631
0.000245723837438
0.000139925752147
7.33422182012e-05
3.98572079029e-05
2.60177344293e-05
2.24861521959e-05
2.39346648983e-05
2.33648232125e-05
1.75931799279e-05
8.95140792661e-06
3.50126070107e-06
9.8472159827e-07
1.15291486244e-07
4.64481040836e-09
0.000282666051954
0.000237923912764
0.000190356143795
0.000139543279276
9.20599694061e-05
5.57860941124e-05
3.22837675728e-05
1.86402616147e-05
1.14183365167e-05
8.36332726594e-06
7.99035000618e-06
9.2811202665e-06
1.1166010741e-05
1.14605732265e-05
8.9300273023e-06
4.78248815426e-06
2.06152345053e-06
5.60596246775e-07
5.85835869049e-08
2.449790175e-09
5.30143249487e-05
4.16007010573e-05
3.01401809949e-05
2.01143335333e-05
1.25770795038e-05
7.63807891786e-06
4.73264972783e-06
3.22869560476e-06
2.68180678373e-06
2.8299634303e-06
3.51225657519e-06
4.55620114415e-06
5.63094826638e-06
2.64849373189e-18
4.35951365265e-18
6.49617268912e-18
1.26407562402e-17
3.03801365544e-17
3.52202474683e-17
1.29707260533e-16
1.00236538067e-16
4.82861706728e-16
2.76561873105e-16
1.58409762788e-15
7.37757226645e-16
4.6664218253e-15
1.85587881985e-15
1.25427513815e-14
4.43306264598e-15
3.11281430877e-14
1.01286115548e-14
7.24561524068e-14
2.23879232461e-14
1.62023149932e-13
4.86792146472e-14
3.54271051119e-13
1.05308062995e-13
7.71687564895e-13
2.30179764302e-13
1.73732541627e-12
5.25932503884e-13
4.2871910826e-12
1.30564013069e-12
1.213601568e-11
3.53572681728e-12
3.79949340035e-11
9.73238747109e-12
1.18617552119e-10
2.37118193472e-11
3.41651326355e-10
3.18095608528e-11
8.85537161557e-10
6.63249331058e-11
1.72859794721e-09
1.21811143421e-10
2.38584228922e-09
1.65417699487e-10
2.1600355719e-09
1.45650244766e-10
1.46543534152e-09
1.08192397086e-10
9.46545972389e-10
7.41095668871e-11
6.12894158836e-10
4.93875275441e-11
3.77771156545e-10
3.15809094987e-11
2.21548280228e-10
1.93025302477e-11
)
;

boundaryField
{
    inletfuel
    {
        type            fixedValue;
        value           uniform 1;
    }
    inletair
    {
        type            fixedValue;
        value           uniform 0;
    }
    outlet
    {
        type            zeroGradient;
    }
    axis
    {
        type            empty;
    }
    leftside
    {
        type            zeroGradient;
    }
    burnerwall
    {
        type            zeroGradient;
    }
    front
    {
        type            wedge;
    }
    back
    {
        type            wedge;
    }
    procBoundary0to1
    {
        type            processor;
        value           nonuniform List<scalar> 
27
(
7.00344696333e-06
6.87505175483e-06
6.60673471357e-06
6.25385065725e-06
5.90910507084e-06
4.79984533123e-06
2.69075286757e-06
1.17395372738e-06
2.888764464e-07
2.74582429666e-08
1.2205133464e-09
5.54323921446e-06
4.39052031632e-06
3.23232191911e-06
2.24249494334e-06
1.52457714617e-06
1.0802138112e-06
8.63453300518e-07
8.41756985998e-07
1.01106905066e-06
1.37038301083e-06
1.89113563187e-06
2.49454051458e-06
5.90910507084e-06
3.03952851828e-06
1.21609660643e-10
1.09509338753e-11
)
;
    }
}


// ************************************************************************* //
