/*--------------------------------*- C++ -*----------------------------------*\
  =========                 |
  \\      /  F ield         | OpenFOAM: The Open Source CFD Toolbox
   \\    /   O peration     | Website:  https://openfoam.org
    \\  /    A nd           | Version:  7
     \\/     M anipulation  |
\*---------------------------------------------------------------------------*/
FoamFile
{
    version     2.0;
    format      ascii;
    class       volScalarField;
    location    "0.03";
    object      H2O;
}
// * * * * * * * * * * * * * * * * * * * * * * * * * * * * * * * * * * * * * //

dimensions      [0 0 0 0 0 0 0];

internalField   nonuniform List<scalar> 
814
(
8.68955089234e-09
6.84876310319e-09
2.77036745711e-09
8.56035420479e-07
8.84697088578e-07
7.03122260162e-07
4.27602505432e-05
7.03754661832e-05
0.000165056781384
0.0013312875536
0.0038590106288
0.0280219758322
0.00374599470462
0.00942623331834
0.0436223246918
0.00769780610398
0.0170629949183
0.0568316181955
0.0135225086086
0.026527477934
0.067849295295
0.0214891516895
0.0373252896382
0.0768403367389
0.0318999002397
0.0491188633207
0.0846009018153
0.0447927038975
0.0615706415375
0.0917084984433
0.0596579895454
0.074328712337
0.0987007223141
0.0754360586082
0.0870703016981
0.10606531033
0.090974116522
0.0995963562856
0.114148776641
0.105865396413
0.112148488206
0.12344809135
0.120986086355
0.125775692527
0.134991690359
0.137967331756
0.141913351839
0.149887592058
0.156772246976
0.160119293009
0.167023962869
0.173477920296
0.176171506515
0.181736240454
0.184247121474
0.186336593675
0.190672600774
0.189821963716
0.191547361806
0.195158071158
0.192868416384
0.194418574568
0.19767701327
0.19498162718
0.196405325643
0.199394487527
0.196860900096
0.198153318766
0.200852275452
0.198549108799
0.199660666765
0.201973889303
0.199915610101
0.200787342168
0.202594894273
0.201039565772
0.201663264537
0.202952070582
0.20281643387
0.203206629179
0.204013959296
0.208651229374
0.208729717965
0.20886284453
0.176561365236
0.176261593307
0.175413352337
0.0805449457923
0.0801081112516
0.0791283277877
0.0428056362341
0.0426705368335
0.0424124003638
0.0328110863014
0.0327987003837
0.0327753780789
0.0890188633329
0.121903710029
0.124114912215
0.122389069773
0.12045202453
0.119675817537
0.119917957314
0.121334575744
0.12431629808
0.129079010335
0.136039571724
0.146121278292
0.160061034793
0.175952748601
0.188856592035
0.196224444332
0.199846234068
0.201940052695
0.203295909015
0.204352651885
0.204953674541
0.204905536303
0.204597929372
0.205052220922
0.208955840387
0.174106823877
0.0778078764817
0.0420797973967
0.032748564775
1.11528215701e-05
9.71827848235e-06
6.31411714071e-06
3.59244529513e-06
1.85543210569e-06
8.98890987945e-07
4.20859766976e-07
2.11726960624e-07
1.31232139798e-07
1.03674819814e-07
9.52123422726e-08
9.28603408319e-08
9.21734510298e-08
9.16968382269e-08
9.09492817005e-08
8.99610093332e-08
8.84577557582e-08
8.60635161439e-08
7.6381559767e-08
3.54791776373e-08
0.00166368201031
0.000767949839967
0.000236201631995
9.38919912903e-05
3.43691817252e-05
1.27929178358e-05
4.59436806821e-06
1.64794733413e-06
6.71802483709e-07
3.78721440419e-07
2.98712159159e-07
2.77911697562e-07
2.72357892582e-07
2.70101840629e-07
2.6756233951e-07
2.65223494106e-07
2.60261777165e-07
2.55000128256e-07
2.36513649903e-07
2.36369877897e-07
0.0160778765332
0.0178436514648
0.00541466470935
0.00133434943506
0.000335791727206
0.000104703599511
3.01193549846e-05
8.82459224054e-06
2.67250368736e-06
1.0218670488e-06
6.19535250397e-07
5.26331312598e-07
5.04560465948e-07
4.98032324545e-07
4.9251198414e-07
4.88401639851e-07
4.77883829677e-07
4.73029430706e-07
5.47463249409e-07
4.81083538479e-06
0.104628199632
0.147273677016
0.0646190027031
0.0174078390047
0.00481155093579
0.00108017953221
0.000194208622035
4.69735657316e-05
1.16881936761e-05
3.29263462895e-06
1.42806106028e-06
1.03091569903e-06
9.45429977754e-07
9.24587318466e-07
9.1310620081e-07
9.06798824143e-07
8.86760847951e-07
8.96068157579e-07
1.87265710793e-06
0.000138775959795
0.183200761142
0.217516673035
0.203225700538
0.110560738826
0.0270642356682
0.0072601143106
0.00169921193428
0.000225923592152
4.84195929813e-05
1.13928055629e-05
3.72428122998e-06
2.15977391686e-06
1.83123616669e-06
1.75666576788e-06
1.72905758294e-06
1.71886370352e-06
1.6815097984e-06
1.72167861913e-06
3.53913194234e-06
0.000130750472943
0.192416154188
0.219601893184
0.233654072967
0.172570916626
0.0462844780491
0.0121846258743
0.00319575374954
0.000625921227077
0.000132733282968
3.2329904125e-05
9.80834257134e-06
4.78883136781e-06
3.65885270067e-06
3.39406938239e-06
3.31695306952e-06
3.29779611685e-06
3.2306805099e-06
3.32089655453e-06
6.30081693474e-06
0.00014385742746
0.186867278905
0.21596618321
0.233934446265
0.142849904277
0.0426781197209
0.0128829819605
0.00401779858758
0.00111952952876
0.000255312827902
7.67199534447e-05
2.45803534953e-05
1.09967251762e-05
7.53118321457e-06
6.64377407389e-06
6.4075004976e-06
6.36222950233e-06
6.24815229152e-06
6.40463577226e-06
1.06945209312e-05
0.000173800046307
0.177846801243
0.210388000028
0.229978004826
0.126922648283
0.0398907864461
0.0137315261619
0.0050039539111
0.00171304286574
0.000544087662729
0.000171872756984
5.90349057989e-05
2.57732037436e-05
1.59743767112e-05
1.31707985377e-05
1.24236060626e-05
1.2291547423e-05
1.21116940649e-05
1.23555981446e-05
1.78374923086e-05
0.000206217892214
0.169028232467
0.204187480336
0.22691748399
0.136572764474
0.0439354891264
0.0163706531582
0.00659239302813
0.00258412555586
0.00098347230303
0.000346911727455
0.000131282880651
6.08917806538e-05
3.49217166429e-05
2.64894187871e-05
2.41382479984e-05
2.37074230182e-05
2.3448266631e-05
2.38300822747e-05
3.04225227991e-05
0.000243403268993
0.161552097962
0.197922018255
0.225158619384
0.155765283587
0.052795541436
0.0208202329851
0.00895691701981
0.00388011782826
0.00170055443848
0.000720923244218
0.000289499305947
0.000142001404359
7.82069802178e-05
5.41354614919e-05
4.69239509919e-05
4.54819539614e-05
4.51316683417e-05
4.57655737152e-05
5.37730274648e-05
0.00029764275511
0.156374340365
0.192440983009
0.224519138699
0.172838071566
0.0621833674659
0.0260571464512
0.0121418820728
0.00589676630807
0.00291679941926
0.00145689357414
0.000710052692015
0.000327976351481
0.00017309392234
0.000111948882537
9.10128332288e-05
8.63055524431e-05
8.5752040163e-05
8.68320989955e-05
9.73228587405e-05
0.000384393203928
0.154399272858
0.189468595964
0.224076908345
0.176633034482
0.0689974269555
0.0327159086947
0.017277734097
0.00951766112828
0.00525660268902
0.00287295917939
0.00152595850022
0.000783568844345
0.000387290893147
0.000226642013979
0.000174873173567
0.000160675627397
0.000159216465619
0.00016090890533
0.000176218959511
0.000521865054697
0.155526220222
0.190289179185
0.22427771163
0.176615263552
0.0785523710881
0.0444027275797
0.026867679602
0.01644258267
0.00979043385994
0.00563749230717
0.00310142938552
0.00163343066505
0.000857190900488
0.000465429746847
0.000327749570585
0.000290290279117
0.000285467925364
0.000287507418958
0.000311577787716
0.000732143830292
0.160092482941
0.194820709191
0.227169836672
0.189345530664
0.103848072277
0.0677631868959
0.0447235839158
0.0287839629865
0.017672751765
0.0104583803112
0.00590801499473
0.0031943926474
0.00168059815225
0.000923260557512
0.000603699446555
0.000505102131653
0.000489109492774
0.000489932590548
0.000527943869409
0.00103950999984
0.16887563518
0.20311921556
0.23251175488
0.220493703239
0.149268750611
0.105343955787
0.0727146452388
0.0479178979449
0.0299872555375
0.0179841488151
0.0103514028424
0.00574098241166
0.00308384676824
0.00168803206816
0.00106217322342
0.000842145436403
0.00079596221249
0.000791020140507
0.000848092788663
0.00146619357352
0.18171336203
0.213216644093
0.236930268758
0.236048798157
0.19953909209
0.149938563099
0.106987000627
0.0724436221549
0.046539527716
0.0284404264363
0.0166940660097
0.00947751108123
0.00522338812971
0.00289113878807
0.0017746663703
0.00133869599787
0.00122785154766
0.00120756497207
0.00128681957261
0.00202713228082
0.194820015593
0.220558604662
0.238841566005
0.242260855591
0.23058473422
0.188281077238
0.139957693896
0.0989000091532
0.0661732334691
0.041840872187
0.0252886736172
0.0147038602554
0.00829328860023
0.00466036575489
0.00282262172852
0.00203755312116
0.00180133912002
0.00174547580945
0.00184589504373
0.0027275189911
0.203449963611
0.223631771291
0.238686444978
0.243471560703
0.237639741779
0.215083102497
0.169454855937
0.126527048115
0.0900967949953
0.0601453900814
0.0379135431792
0.0225688568815
0.0128873958948
0.00728583915878
0.00434121786485
0.00299364913125
0.00252717773985
0.00239806015869
0.0025124424556
0.0035602774135
0.207536559835
0.224476422365
0.237825656812
0.24314535722
0.240001222249
0.225456657043
0.193441908098
0.157162604878
0.123012939586
0.0886314859804
0.0596404833122
0.0366662769327
0.020976477667
0.0116290212562
0.00668346654226
0.00433289097727
0.00342837343431
0.00314873122853
0.00325790141875
0.00450652302836
0.209504792326
0.224548290384
0.236730335285
0.242606983623
0.241835766993
0.233556324629
0.217359476059
0.191123079512
0.163793784322
0.134309933429
0.0978880097737
0.0642184864902
0.0371942771406
0.0198998017095
0.0107824819468
0.00638287601056
0.00459024805771
0.00398774061241
0.00404851171295
0.0055405126021
0.210627095135
0.224212138507
0.235522454083
0.241974083434
0.243508699039
0.240349131012
0.233447040878
0.224017260372
0.210964985237
0.189818492694
0.155374243217
0.112973135709
0.0704249637355
0.0373911062659
0.0188237536376
0.0099371281705
0.00624467047887
0.00494282842893
0.00485607542835
0.00664097461719
0.211171803922
0.223368288213
0.233813278879
0.240662936847
0.243960632852
0.244251717694
0.242572283153
0.239925282195
0.236221482941
0.229622333526
0.212621136032
0.175069176815
0.124298641434
0.0717969643344
0.034913236251
0.0165890031631
0.00891090887386
0.00612742825541
0.0056706491173
0.00778952191792
0.21134687941
0.222070490179
0.231483317195
0.238250629908
0.242339158943
0.244166822766
0.244406033895
0.243737912816
0.242175269076
0.239240426968
0.233213053445
0.217532362144
0.177384027198
0.121572239824
0.0637468668974
0.0286334634418
0.0133451379175
0.00773326595944
0.00650450130694
0.0090357006223
0.210913521084
0.219995529832
0.228106309773
0.234188929094
0.23807766905
0.240004437071
0.240497519198
0.239857264272
0.237850508815
0.234036833989
0.227921810246
0.218616201909
0.195659986066
0.157692433429
0.0995739290238
0.0460943024218
0.0198002325156
0.00983028632714
0.00736721492986
0.0103874415021
0.209570188985
0.216704550126
0.223177376199
0.228071364213
0.2311149084
0.232386033729
0.232557360985
0.230801779569
0.226465357263
0.218677153912
0.206673185212
0.189751964267
0.176285529665
0.161148533008
0.124052761432
0.0651083087229
0.0269752468481
0.0119513648213
0.00817763192149
0.0118571996617
0.207940213891
0.21292185875
0.217426735699
0.220750061991
0.222505478704
0.223132436126
0.221405849062
0.216221609171
0.2067266194
0.190733647461
0.166398067204
0.147805261686
0.140838342433
0.139996945959
0.125416113327
0.0767239547235
0.0314454843236
0.0131634099228
0.00879647158733
0.0134788433398
0.207187895032
0.210321789693
0.213036230773
0.214259690351
0.213531166798
0.210006610703
0.202254541993
0.189308210325
0.170890023667
0.140150680112
0.117992005109
0.108219561044
0.10957973131
0.116167939468
0.112136334107
0.0747473863457
0.030666643584
0.012793580776
0.00918949152398
0.0152946290774
0.208924389327
0.207492772859
0.203839263582
0.197862883531
0.188558239005
0.176958637574
0.159713377126
0.132253561392
0.106280678604
0.0889733150024
0.0811471058111
0.0816336132581
0.0887692481837
0.0975659657915
0.0955923204547
0.0633115610727
0.0249559748501
0.0114101986124
0.00979558981682
0.017065970381
0.170744617128
0.161916324065
0.149390148154
0.134653257985
0.117386751008
0.0995450703348
0.0833250065078
0.0708992899353
0.0634009243527
0.0608646734213
0.0626126413298
0.0678377320734
0.0753115365149
0.0808250778397
0.0723613531966
0.0431863888873
0.0194314871496
0.0107430657789
0.0106327632864
0.0185984976793
0.0748586036561
0.0704546085859
0.0652865708086
0.0598935814362
0.0549539838587
0.0508808727012
0.0480873544494
0.0471389033156
0.048085964345
0.0506096016678
0.0541752318904
0.0584031291422
0.0624010139277
0.0617994288457
0.0502055809353
0.0302127290279
0.0155721991066
0.010425868756
0.0116009471421
0.019872794407
0.0413799111011
0.0402802387985
0.0391107865881
0.0382007250074
0.0378717569049
0.0382201125239
0.0391918600531
0.0406870853005
0.0426140084558
0.0447863686237
0.0469024529803
0.0484834045572
0.0488159160769
0.0453005458052
0.0352529053718
0.0217415480324
0.0130457870361
0.0103757500124
0.0126296106902
0.0209061001227
0.0327069636637
0.0327137873985
0.032849472395
0.0331821337316
0.0337609504918
0.0345926244487
0.0356350739829
0.0368060633345
0.0379821367043
0.038944829846
0.0393960273458
0.0390004581
0.0373206029376
0.0046159340975
0.0050785349072
0.0029563316062
0.00393737396935
0.00203800703788
0.00312276598174
0.00172420003761
0.00286329730325
0.00166057785871
0.00286609261868
0.0017590771378
0.00303634340987
0.00199109774974
0.00334845530579
0.00235429678178
0.00379504757591
0.00285563294227
0.00438063127249
0.0035073048029
0.00511734344471
0.00431832987967
0.00601657790097
0.00529996196193
0.00709486857237
0.00646668092804
0.00837915074539
0.00784584892291
0.00991570629959
0.00949340560728
0.0117856472513
0.0115117786104
0.014116479409
0.0139995705518
0.017026430684
0.0169297604328
0.020526160611
0.0199675950664
0.0246893642388
0.0231188374442
0.0287862163385
0.0264028186776
0.032398129467
0.0294285057838
0.0353353357025
0.0319652801834
0.0374091011031
0.0333405030108
0.0382278386206
0.0335728459469
0.03788415487
0.0329165536114
0.0367243890216
0.0318159890881
0.0352148337046
0.0306926726978
0.0337687362616
)
;

boundaryField
{
    inletfuel
    {
        type            fixedValue;
        value           uniform 0;
    }
    inletair
    {
        type            fixedValue;
        value           uniform 0;
    }
    outlet
    {
        type            zeroGradient;
    }
    axis
    {
        type            empty;
    }
    leftside
    {
        type            zeroGradient;
    }
    burnerwall
    {
        type            zeroGradient;
    }
    front
    {
        type            wedge;
    }
    back
    {
        type            wedge;
    }
    procBoundary0to1
    {
        type            processor;
        value           nonuniform List<scalar> 
27
(
0.0303087086309
0.0303115565566
0.0303188342064
0.0303303044506
0.0330663214005
0.0253922007859
0.0165375135841
0.0115145486039
0.0105653825296
0.0136526265155
0.0217557634188
0.0303627049947
0.0304627479075
0.0306538383508
0.0309660138629
0.0314122562409
0.0319676795577
0.0325626694615
0.0330959484673
0.0334396010616
0.0334003502962
0.0327339284152
0.0312056237002
0.0330663214005
0.02862833227
0.0298453122476
0.0326421805952
)
;
    }
}


// ************************************************************************* //
