/*--------------------------------*- C++ -*----------------------------------*\
  =========                 |
  \\      /  F ield         | OpenFOAM: The Open Source CFD Toolbox
   \\    /   O peration     | Website:  https://openfoam.org
    \\  /    A nd           | Version:  7
     \\/     M anipulation  |
\*---------------------------------------------------------------------------*/
FoamFile
{
    version     2.0;
    format      ascii;
    class       volScalarField;
    location    "0.03";
    object      HE;
}
// * * * * * * * * * * * * * * * * * * * * * * * * * * * * * * * * * * * * * //

dimensions      [0 0 0 0 0 0 0];

internalField   nonuniform List<scalar> 
814
(
1.37234858402e-15
1.06889690819e-15
3.97919981705e-16
1.44894002063e-13
1.49827319362e-13
1.12781545197e-13
7.63891045728e-12
1.27471009704e-11
2.96829912241e-11
2.47353876628e-10
7.43473442822e-10
5.80282594683e-09
6.67026230136e-10
1.71661005449e-09
8.29536325985e-09
1.58260113141e-09
3.89466760125e-09
1.59327219209e-08
4.69199958872e-09
1.20655915334e-08
4.77746603876e-08
1.68319388739e-08
4.21799705373e-08
1.47000098146e-07
6.19245155453e-08
1.39545708867e-07
4.0844351914e-07
2.11888531328e-07
4.13272065892e-07
1.00638515622e-06
6.5365727489e-07
1.10016548408e-06
2.2572161911e-06
1.79255451688e-06
2.65032384657e-06
4.69897542541e-06
4.34848428127e-06
5.80064283783e-06
9.13323890418e-06
9.47531105312e-06
1.17233275593e-05
1.6833031958e-05
1.91862858864e-05
2.25640788412e-05
3.02917776682e-05
3.73632764138e-05
4.2572592023e-05
5.46127047692e-05
7.0097331023e-05
7.83218268648e-05
9.73588627534e-05
0.000122311390552
0.000134869010936
0.000163591899905
0.000194017241877
0.000211754998193
0.000251799427569
0.000282918892254
0.000306341777665
0.00035869921726
0.000388100637303
0.000417466155951
0.000482453917667
0.000505773246357
0.000539886743631
0.000614551666784
0.000634779862634
0.000671912663954
0.000752145608534
0.000768876586949
0.00080597767789
0.000885387701001
0.00090325758726
0.000936267471734
0.00100628152946
0.00104252157983
0.00106857641642
0.00112305178511
0.00115067835459
0.00116352509644
0.00118955754731
0.000932713978199
0.000930188419496
0.000923543563463
0.000450655459313
0.000450060950147
0.000448420013196
0.000303404246138
0.000303608051425
0.000304013218927
0.000263732392925
0.000264094950226
0.000264943532112
0.000243812695645
0.000244170812511
0.000244969900321
2.64371316688e-08
2.86901455217e-08
5.66517346525e-08
1.69180935791e-07
4.43893734689e-07
1.03927272751e-06
2.18630366818e-06
4.28470418892e-06
8.01428442109e-06
1.43037023376e-05
2.46572352039e-05
4.2221396771e-05
7.34669595108e-05
0.000127060988705
0.000207169254114
0.000310844618337
0.000434645921027
0.000575334905789
0.000719318738268
0.000862712581018
0.000992957821975
0.00109932094194
0.00119409258461
0.00122160906764
0.000912812253258
0.000445986940121
0.000304659147966
0.000266182322964
0.000246109894672
6.29234971959e-10
7.32331016152e-10
7.70696692286e-10
7.46998714593e-10
6.73623527177e-10
5.59072557729e-10
4.23377654622e-10
2.89097742962e-10
1.76009855014e-10
9.41487570105e-11
4.34626081619e-11
1.69462574672e-11
5.43005898968e-12
1.3867602537e-12
2.7284490349e-13
3.99504107133e-14
4.2260026846e-15
3.0792529609e-16
1.45483125192e-17
2.59842070153e-19
8.23906032775e-09
5.99704358062e-09
4.46865918989e-09
3.68323994696e-09
3.03083708926e-09
2.40391537083e-09
1.80524312402e-09
1.2500623646e-09
7.88937135119e-10
4.42325420576e-10
2.15673859703e-10
8.89006967614e-11
3.0059892961e-11
8.06531801411e-12
1.65394895158e-12
2.51176836153e-13
2.72408683767e-14
2.03093330012e-15
9.4685159789e-17
1.4688014764e-18
1.99254348063e-08
1.50162757746e-08
1.2602975768e-08
9.16580613516e-09
7.00006484739e-09
5.5710836911e-09
4.31852842915e-09
3.1636502659e-09
2.16012491232e-09
1.31765703704e-09
6.96929741978e-10
3.0830068225e-10
1.10663055085e-10
3.11862355152e-11
6.64088999193e-12
1.04116573841e-12
1.15405537103e-13
8.8360464115e-15
4.08887089448e-16
5.95429781329e-18
3.44214235602e-08
5.17770789828e-08
3.10554204158e-08
2.09746759787e-08
1.6927465911e-08
1.30957905539e-08
1.03339253698e-08
8.34493743673e-09
6.35912605161e-09
4.28095436302e-09
2.45159898006e-09
1.15262738976e-09
4.33971083509e-10
1.27142858304e-10
2.79669293639e-11
4.51771891469e-12
5.14264870751e-13
4.07178007912e-14
1.94466295876e-15
5.0645296669e-17
7.74908277949e-08
3.34233719443e-07
1.98330559032e-07
6.17554623247e-08
3.22823360923e-08
2.77947666022e-08
2.5552840853e-08
2.27714265827e-08
1.9724164372e-08
1.46611849377e-08
9.0377994139e-09
4.488315985e-09
1.7650424667e-09
5.36612872917e-10
1.22020381584e-10
2.03411667983e-11
2.3881794199e-12
1.96477405106e-13
9.96613150454e-15
2.9022955379e-16
2.26399844385e-07
1.03779347095e-06
8.46223360924e-07
2.20007529774e-07
7.36218807651e-08
5.89102633517e-08
6.09881065759e-08
6.47820365327e-08
6.21250369319e-08
4.99810847074e-08
3.27209002164e-08
1.70500288547e-08
6.99152751268e-09
2.20879237502e-09
5.20950676469e-10
8.9903008984e-11
1.09296002236e-11
9.35250144703e-13
5.07587900396e-14
1.96510806456e-15
6.69727558022e-07
2.39039928903e-06
2.60683126148e-06
4.90974151774e-07
1.65148662532e-07
1.40195376025e-07
1.60944255086e-07
1.92331673237e-07
1.98138285256e-07
1.67108424391e-07
1.13948390851e-07
6.17627412922e-08
2.63614694173e-08
8.67173687829e-09
2.12938763526e-09
3.81748866481e-10
4.81924125952e-11
4.28195763358e-12
2.46955637521e-13
1.13843492587e-14
1.53477463815e-06
4.84596855947e-06
6.5362331855e-06
1.32305614136e-06
4.49685641651e-07
4.08081611359e-07
5.03157906116e-07
6.10386656658e-07
6.35507179983e-07
5.43049025973e-07
3.78476642491e-07
2.11631150221e-07
9.37989703455e-08
3.2174343837e-08
8.25392066855e-09
1.54277772421e-09
2.02751491898e-10
1.86651139727e-11
1.1333880827e-12
5.6506432663e-14
3.09454488234e-06
9.17968692899e-06
1.43114772733e-05
4.28997337024e-06
1.57551132295e-06
1.46921262731e-06
1.76007944401e-06
2.0153556011e-06
2.02915436799e-06
1.69434385429e-06
1.17646449167e-06
6.81649695026e-07
3.13850600618e-07
1.12429962274e-07
3.02286280895e-08
5.91435576669e-09
8.11774474994e-10
7.73722915464e-11
4.90219238163e-12
2.51623066181e-13
5.64957653602e-06
1.61194628864e-05
2.8062953028e-05
1.31815952214e-05
6.31164701883e-06
5.78617293265e-06
6.33954219464e-06
6.57138625348e-06
6.17562601215e-06
5.04477723968e-06
3.39168239057e-06
2.02669887499e-06
9.81471398694e-07
3.69280090656e-07
1.04468744659e-07
2.14874416183e-08
3.09341655758e-09
3.05717430203e-10
2.00675628605e-11
1.03270216332e-12
9.76460213398e-06
2.62890953584e-05
5.03591278849e-05
3.35596135505e-05
2.19708217158e-05
2.03654546575e-05
2.05477375465e-05
1.9523342454e-05
1.69154525662e-05
1.34822684257e-05
9.50115642981e-06
5.52792959488e-06
2.77714718358e-06
1.12938176824e-06
3.3973517814e-07
7.38956216204e-08
1.12117052307e-08
1.15256179315e-09
7.7991785514e-11
3.95007667238e-12
1.65854048625e-05
4.11758188256e-05
8.32691979503e-05
7.2219450629e-05
6.2654482813e-05
6.48216247345e-05
6.04913157756e-05
5.2569923097e-05
4.23832597713e-05
3.23452021733e-05
2.28717744896e-05
1.45058486733e-05
7.40236696788e-06
3.04533214527e-06
1.02146790795e-06
2.38349742429e-07
3.8392581868e-08
4.12570242499e-09
2.87643753244e-10
1.41125317816e-11
2.73980775366e-05
6.41020717177e-05
0.000130635995016
0.000139368140923
0.000152212481469
0.000166620173335
0.000153845626092
0.000128227578882
9.86587370925e-05
7.25181477187e-05
5.0407486558e-05
3.2333134992e-05
1.84622149626e-05
7.98371352197e-06
2.72868125097e-06
6.93372613367e-07
1.21544858562e-07
1.3835232063e-08
1.00010600067e-09
4.74254735149e-11
4.44658732309e-05
9.97256261952e-05
0.000203293769514
0.000261847393404
0.000328859526261
0.00036084131675
0.000332304186234
0.000271902624757
0.000204393479781
0.000147817499588
0.000102505445735
6.68930673544e-05
3.90436989919e-05
1.90072399377e-05
6.97317917021e-06
1.86182868142e-06
3.49745268966e-07
4.2631451827e-08
3.23622991356e-09
1.50954283824e-10
7.29223142876e-05
0.000158922515636
0.000319704021209
0.000467311549697
0.000621319965112
0.000682195347396
0.00062548660099
0.000508665986571
0.000381989829437
0.000274360457913
0.000190724457794
0.000126816553122
7.65886517132e-05
3.92016126967e-05
1.57218992839e-05
4.59872117549e-06
9.28753145655e-07
1.21088135573e-07
9.74007685285e-09
4.57415269592e-10
0.000122814041121
0.000258754788377
0.000499212165393
0.000759290894343
0.00100781409046
0.00110551180261
0.00101764967451
0.000834553945873
0.000637028226271
0.000463297205731
0.00032617479907
0.000220609134374
0.000137374832191
7.36984048179e-05
3.16345379372e-05
1.00300360379e-05
2.21258220774e-06
3.14571655246e-07
2.72568594441e-08
1.32265548006e-09
0.000203826992843
0.000404074598232
0.000735065800527
0.00110594567939
0.00142058352318
0.0015365426873
0.00142810470628
0.00119858698312
0.000941218075351
0.000705141669875
0.000510960339224
0.000353779793855
0.000226406140631
0.000126611506581
5.78365341943e-05
1.99075752261e-05
4.83586219056e-06
7.58827357318e-07
7.17938181327e-08
3.67769507834e-09
0.000314909458383
0.000583165262114
0.00100105820928
0.00145472371171
0.00179618007079
0.00190139528803
0.00178588557964
0.00154040485119
0.0012558202667
0.000977131661811
0.000734352348026
0.000524138795343
0.000345444173611
0.000201192320095
9.75107952577e-05
3.65080276612e-05
9.83142780954e-06
1.71995556654e-06
1.79580476657e-07
9.84414426532e-09
0.000451374948888
0.00079171993849
0.00128410835082
0.00177652760778
0.00210438595395
0.00217956018902
0.00205253835169
0.00182970841818
0.00156414790091
0.00126377146605
0.000987545105144
0.000729093432371
0.000495943842388
0.000300283497211
0.000154292646054
6.28597377385e-05
1.88109281147e-05
3.69229595554e-06
4.28633848935e-07
2.53818424448e-08
0.000611556959366
0.00101593745812
0.00154926555761
0.00204852935522
0.00235412066794
0.00240788055459
0.00227939016698
0.00206909253959
0.00182855246632
0.00156814395477
0.00126360546979
0.000972034162042
0.000684161678543
0.000428676208019
0.000233271437987
0.000102842899864
3.42268206684e-05
7.55587782704e-06
9.77091258058e-07
6.28149782527e-08
0.000784207073428
0.00123015212885
0.00177635750797
0.00226272326979
0.00254963409995
0.00259831487485
0.00247930230966
0.00228297966148
0.00205742645232
0.00181943387371
0.00153416470338
0.00124275180198
0.000926256658266
0.000604739313546
0.000343164904531
0.000161655658086
5.90862841874e-05
1.4613137122e-05
2.11782147078e-06
1.47112309667e-07
0.000948674566377
0.00140862189382
0.00194266936003
0.00240808908446
0.00268432391321
0.00273815288942
0.00262974483621
0.00243337383538
0.0021957911242
0.00194392561551
0.00169676216206
0.00145900844133
0.00118414356199
0.000838455626691
0.000496113111837
0.000245983882995
9.71403081398e-05
2.66781365896e-05
4.32388866743e-06
3.19610385365e-07
0.00109906684075
0.00154951156057
0.00205143963603
0.0024820254007
0.002736569817
0.00278090138746
0.0026554256861
0.00242727266425
0.00214433230223
0.00188265856241
0.00166866483479
0.0015002672835
0.00133450092933
0.00107802062644
0.000699542581103
0.00036237937285
0.000150651159
4.49319545549e-05
7.97253314995e-06
6.18112831259e-07
0.00122039167496
0.00163573389313
0.00208150110247
0.00245178122206
0.00265455324103
0.00264844524878
0.00244931286112
0.00217614650717
0.00189313387276
0.00164279777012
0.00145821828194
0.00135226945255
0.00129522304611
0.00118946464534
0.000901356098502
0.000500023424519
0.000216353213457
6.79643098335e-05
1.28444247464e-05
1.02824832846e-06
0.00129535930038
0.0016408965297
0.00199585818403
0.00226142182414
0.00234099505387
0.00220736309658
0.00198884694537
0.00173801315833
0.00149588160408
0.00129654618165
0.00116464190713
0.00111496570771
0.00113896486765
0.00116044297238
0.00102427390566
0.000636496579751
0.00028136431082
8.90152174839e-05
1.71151936462e-05
1.35101552353e-06
0.00134123232933
0.00157271279996
0.00176851090046
0.00184291445716
0.00174574099293
0.0015947942588
0.00141698396903
0.00123639520137
0.00107631068253
0.000963992672052
0.000913288546548
0.000927499516386
0.000997827736221
0.00107948526317
0.00104861285523
0.000727254523354
0.000320679006768
9.85965149478e-05
1.83476255613e-05
1.35859707671e-06
0.00128350419671
0.00134666224138
0.00133842907907
0.00124075915477
0.00113043626452
0.00101686355955
0.000905491217087
0.00081700986736
0.000758889246967
0.000739874026105
0.000762623388095
0.000825627071165
0.000921591026332
0.0010179358757
0.00101458684536
0.000731874016691
0.000312696699222
8.90423775834e-05
1.50530349925e-05
9.40736411566e-07
0.000885520680546
0.000824929859549
0.000758683764857
0.000704693441735
0.000650450344483
0.000608490929744
0.000582809138232
0.000576624295879
0.000593952069134
0.00063624873858
0.000702328770119
0.00078735550745
0.000881821140877
0.000955735370196
0.000931557175814
0.00065044299752
0.000250776974022
6.46298537696e-05
1.01265459801e-05
6.53584045946e-07
0.000440278904493
0.000431008501884
0.000422342168508
0.000417522617071
0.000419289870905
0.000430278934966
0.000452909818945
0.000489956132183
0.000542734567272
0.000609374351221
0.000684505747207
0.000758033978994
0.000819722342949
0.000843768402415
0.000744365008656
0.000455147087279
0.00017975832024
4.69960962095e-05
7.13600612783e-06
4.6221383754e-07
0.000306349887555
0.00031085226087
0.000318768947108
0.000331612189379
0.000351462661225
0.000380176964143
0.000419164419175
0.000469483799441
0.000529593812073
0.000592007524462
0.000646372114637
0.000685036896032
0.0007018370129
0.000667077567301
0.000530892325584
0.00031162724129
0.000123274792185
3.27247856405e-05
4.76123620405e-06
3.10447546545e-07
0.00026911631475
0.000275882233502
0.00028672822985
0.000303029322759
0.000326539001803
0.000358674532857
0.000399547430936
0.00044700217071
0.000496420289563
0.000539155175759
0.000566263247077
0.00057196252562
0.00055434890416
0.000494278668855
0.000369190662674
0.000206203562239
8.11437388195e-05
2.12918852695e-05
2.93707907162e-06
1.98451762041e-07
0.000248758753633
0.000255027128901
0.000265156178815
0.000280443133362
0.000302177104736
0.000331042989434
0.000366164161727
0.000404119217389
0.000438802820127
0.000462318411246
0.000468204272251
0.000453726013857
0.000418559257446
7.2076552293e-16
1.16900514476e-15
8.01131690657e-16
2.11790978535e-15
1.9392682442e-15
4.34899172192e-15
7.05689607627e-15
1.08134809821e-14
2.70521855698e-14
2.93106306602e-14
9.99444701267e-14
8.3977368706e-14
3.49953730321e-13
2.42935313847e-13
1.16393334564e-12
7.00355437436e-13
3.67942858075e-12
1.99689760204e-12
1.11120219348e-11
5.62075091564e-12
3.24064445266e-11
1.56024731227e-11
9.15468362285e-11
4.23779454202e-11
2.49719782103e-10
1.11279680768e-10
6.54045473175e-10
2.78669717178e-10
1.61693803129e-09
6.51061827836e-10
3.69853990291e-09
1.39095840112e-09
7.80212265504e-09
2.71396313467e-09
1.5565710187e-08
4.87359593457e-09
3.0685205862e-08
7.44158762508e-09
5.89229263708e-08
1.20603809308e-08
9.61264442946e-08
1.81977005075e-08
1.27048964286e-07
2.31073647982e-08
1.26628056266e-07
2.30991082412e-08
1.05098758753e-07
2.06415353015e-08
8.16905253482e-08
1.70597243559e-08
6.187565601e-08
1.35640937293e-08
4.51869637818e-08
1.05313868535e-08
3.18488317651e-08
7.9368649175e-09
)
;

boundaryField
{
    inletfuel
    {
        type            fixedValue;
        value           uniform 0;
    }
    inletair
    {
        type            fixedValue;
        value           uniform 0;
    }
    outlet
    {
        type            zeroGradient;
    }
    axis
    {
        type            empty;
    }
    leftside
    {
        type            zeroGradient;
    }
    burnerwall
    {
        type            zeroGradient;
    }
    front
    {
        type            wedge;
    }
    back
    {
        type            wedge;
    }
    procBoundary0to1
    {
        type            processor;
        value           nonuniform List<scalar> 
27
(
0.000227696682325
0.000227955466495
0.00022853718396
0.000229377407517
0.000353367457512
0.000251001496212
0.000133417980527
5.1207841073e-05
1.28344125918e-05
1.69036284121e-06
1.2070464469e-07
0.000231350231383
0.0002361830883
0.000244256060679
0.000256683485057
0.000274382501417
0.000297385932976
0.000324086148739
0.000350849722134
0.000372278285625
0.000382025358705
0.000375100676693
0.000349824639037
0.000353367457512
0.000307437046955
2.12078111786e-08
5.61293011427e-09
)
;
    }
}


// ************************************************************************* //
