/*--------------------------------*- C++ -*----------------------------------*\
  =========                 |
  \\      /  F ield         | OpenFOAM: The Open Source CFD Toolbox
   \\    /   O peration     | Website:  https://openfoam.org
    \\  /    A nd           | Version:  7
     \\/     M anipulation  |
\*---------------------------------------------------------------------------*/
FoamFile
{
    version     2.0;
    format      ascii;
    class       volScalarField;
    location    "0.03";
    object      k;
}
// * * * * * * * * * * * * * * * * * * * * * * * * * * * * * * * * * * * * * //

dimensions      [0 2 -2 0 0 0 0];

internalField   nonuniform List<scalar> 
814
(
21.1705360007
18.7048154775
10.7656872748
21.9361283122
19.0818417154
9.32047235647
21.6198275891
19.4442373562
8.7275130357
21.9563480565
23.5663644567
21.4665268586
22.9532352052
27.8733348286
37.0948874005
24.7652611157
33.4635853911
50.1663771893
27.7063054457
40.3993621198
61.5131809123
32.142436563
48.4395755139
71.2187677562
38.5057847729
57.5059302996
80.2987705958
47.0925970472
67.2952646684
88.9970811269
57.6215922958
77.0532994271
96.6293319132
68.6798792593
85.3282177315
101.649958087
77.6566336694
90.1275386253
102.16760824
81.5398063769
89.4938624128
96.7496722546
77.6009689911
81.6084927393
84.3375685207
64.5547244197
65.7279330582
65.10683696
45.9372439751
45.6888116959
43.7152849271
30.0415530417
29.5707403396
27.9954773259
21.3565210805
21.1109220169
20.3072381099
17.8766428668
17.7990714385
17.4313169679
16.5615266867
16.5609708277
16.3765677757
15.9423994623
15.9879369402
15.9165569389
15.5317409858
15.6184178185
15.6500256096
15.219869529
15.3411892498
15.4714082489
15.0386138712
15.1838274122
15.3955774132
15.5753672813
15.7617283346
16.0913610322
20.8955012685
21.1854125591
21.7553491327
22.8802895166
22.7439117887
22.359581354
4.21471062414
4.15314205963
4.01040823265
0.883828131247
0.880082063876
0.871892610843
0.592254140081
0.593680721927
0.596762384762
0.597079607569
0.599617253271
0.604793746093
7.63971299732
32.1717323774
48.4744821156
60.5899609966
71.191546612
81.8215918599
91.9459076853
100.045383183
104.339128537
103.144206994
95.4609150805
80.7576047813
60.1383103438
39.1909797222
25.1589974295
18.8255716404
16.5762977564
15.7762788615
15.4949057139
15.3956162008
15.3932402012
15.491168948
16.4038306166
22.4318443085
21.7076829078
3.82131703111
0.86097102079
0.600649200552
0.611402363105
0.0156344498624
0.0362096631337
0.0435736797968
0.0458298991821
0.0444150579596
0.0417570219667
0.0384937642297
0.0356461685135
0.0329037620675
0.0305884704266
0.0283636298331
0.0263669870297
0.0243840250255
0.0225863274644
0.0207361568141
0.0192770872361
0.0178573421682
0.0169497207373
0.0162503982135
0.0159259812635
0.033338367592
0.0548857804236
0.0775440131832
0.0714769522161
0.0641861507157
0.0554580548318
0.0476449423421
0.0414410505938
0.0366819909489
0.0331657139128
0.0303467505613
0.027953656564
0.0257246223272
0.0236698820917
0.0216679253482
0.0199570451426
0.0184715100837
0.0173948740571
0.0167349266299
0.0163797626458
0.18351882113
0.0481456436433
0.0668165403238
0.0999414891506
0.0929958177098
0.076520993989
0.0591814561822
0.0476672417404
0.0402328731157
0.0354020713343
0.0319503195875
0.0291863577339
0.0267201259588
0.0244613781433
0.0223215528582
0.020453741424
0.0188911237678
0.0177332790826
0.0170383762605
0.0167674373885
2.78315544136
0.4175800887
0.0871718903757
0.0658900885901
0.0822354981477
0.0886142492566
0.0742687761243
0.0570361032126
0.0455426528276
0.0387238066483
0.0342838929906
0.0309422518568
0.0280740125821
0.0255173094403
0.0231418408557
0.0210964276957
0.019391651032
0.0181832235134
0.0173471975446
0.0218396089249
5.82991379644
2.11302280192
0.584597749775
0.13151825747
0.0635158096806
0.069122557285
0.0714253442215
0.0621160900237
0.0504907345422
0.0421887525435
0.0367663242386
0.0327844325749
0.0294527651955
0.026567657855
0.023927609636
0.0217160940126
0.0198701280365
0.018653381879
0.0177560630653
0.0236663113885
12.7588893436
4.81400666932
1.21596444924
0.257312452602
0.0656677622322
0.0589445503979
0.0658175353349
0.0620907693514
0.0530409024413
0.0449065967794
0.0390371379316
0.0345271484312
0.0307463111194
0.0275219463308
0.0246170409801
0.0222427157574
0.0202812032932
0.0190347372255
0.0183083384479
0.0263655714177
24.4832685226
8.35749213776
1.64706599229
0.217690258701
0.0624720285078
0.0564535426099
0.0620173942742
0.0598177756671
0.0535229580856
0.0466659105906
0.0409274053486
0.0360686232659
0.0318749565157
0.028305670654
0.0251438008513
0.0226092646198
0.0205593199918
0.0192469258743
0.018769677059
0.0290642342705
40.4301985033
13.4979624447
2.33051893413
0.213478082345
0.0631377491425
0.0555464903572
0.058129886182
0.0566549734045
0.0526171120162
0.0475354679536
0.0423264497004
0.0373222696379
0.0327671321319
0.0288605877486
0.0254580166799
0.0227785186741
0.0206640296877
0.0192974421927
0.0189471858463
0.0309435785398
57.9266581171
20.2202052334
3.35276790184
0.269868335771
0.068648607041
0.052820464914
0.0527167081737
0.0523802938363
0.0506803413898
0.0474960135738
0.0431006242604
0.0381253247313
0.0333016996133
0.0290946649286
0.0254849925857
0.0226953062664
0.0205428422254
0.0191677295962
0.0188539463145
0.0318492937292
73.4861508334
27.7860725603
4.6328230921
0.360313260956
0.0771013500538
0.04851765155
0.0464680724856
0.0476046019019
0.0480380084745
0.0465061086037
0.0430427792518
0.0383242113747
0.0333414355101
0.0289153394089
0.0251620784464
0.0223160683126
0.0201618460291
0.0188244837745
0.0185463361758
0.0323174178909
84.2710540747
34.9958454098
6.01986021282
0.45353024899
0.084723803289
0.0446622201713
0.0415665527334
0.0436838606522
0.0452651802514
0.0448009510621
0.0420144051266
0.0377244355823
0.0328038355219
0.0282825926902
0.024483150093
0.021658331201
0.0195527721269
0.0182917654656
0.018088525569
0.0329117769829
88.4790027167
39.3676070856
7.0729200726
0.490093944337
0.087166903361
0.0450718085103
0.041468118312
0.0427714625812
0.043605815911
0.0428940239093
0.0402933088984
0.0362880929659
0.0316415603968
0.027261067807
0.0235575000963
0.0208440099927
0.0188495297969
0.0176990360184
0.0176377624772
0.0340892903175
85.9961524216
38.6854417878
7.58678243848
0.519615331165
0.0975273253017
0.0593896782532
0.0530241385148
0.0489610380966
0.0450108204657
0.0417034347338
0.0382410164127
0.034279872295
0.0299829254745
0.0259985539947
0.0226070331247
0.0201199359535
0.0183024266284
0.0172907068378
0.0174894022401
0.0363084663624
76.7259589153
33.3308727795
6.60270435209
0.563455715762
0.145392394451
0.104322625049
0.0883372778028
0.0707224792389
0.0547217604521
0.0439005559978
0.0370253500256
0.032170276207
0.0281767718061
0.0247929342489
0.0219591138359
0.0198376471272
0.0182663368437
0.017410675758
0.0180462528344
0.0400312241273
61.0474028824
24.5363700946
4.73167077064
0.658845765754
0.255813238975
0.199695833803
0.16212963935
0.118721581771
0.0800318236423
0.0539037207395
0.0391094422337
0.0312047917563
0.0267894954633
0.0240405510598
0.0219952727181
0.0204139429252
0.0191653017796
0.0184731353274
0.0197626955744
0.0456549376157
42.0280700361
15.5682104389
3.20965762335
0.778413678914
0.428873305847
0.340041092863
0.27475197198
0.197104079639
0.12608268936
0.0759406043524
0.0473108379373
0.0331062973884
0.026785945949
0.0242497927558
0.0231091957989
0.0222575600499
0.0214433034653
0.020917946393
0.0230768579535
0.0534279956815
26.3484401814
10.1235688022
2.69323099374
1.00832207316
0.632285233631
0.484175435061
0.399206313804
0.296724471522
0.194713446733
0.11539090347
0.0663045333023
0.0406320899432
0.0295692952735
0.0261158607203
0.0256713233903
0.0257120144051
0.0254790232436
0.0251306437316
0.0283110637341
0.0633837354533
18.0666253637
8.27726463964
2.96097448238
1.3635902503
0.840626299499
0.616621060256
0.515588321151
0.411381447879
0.294718015702
0.188486713128
0.110365610252
0.0621366909645
0.0387862691208
0.0309043897965
0.0300782236793
0.0309342563434
0.0314757169067
0.031355043532
0.0355966862796
0.0753916795118
15.0033150159
8.12667235386
3.5572557153
1.79437449956
1.0812471631
0.770676376905
0.639717253963
0.548515090109
0.45068354236
0.334420404094
0.219655275975
0.123957751008
0.0670885774405
0.0428322661342
0.0372407395472
0.0379498643706
0.0393607815358
0.0396010877962
0.0447973723321
0.0891977374232
14.0692849139
8.57441477936
4.32738109962
2.29772838471
1.38223439268
0.985191816748
0.830122307305
0.754639179084
0.689514390954
0.608903312821
0.469089954199
0.295294436495
0.154026423255
0.077433279903
0.051374001146
0.0471362562637
0.0487811573648
0.049599173297
0.0555821325737
0.104741866294
13.8750440446
9.26811677897
5.20513925154
2.90282677631
1.77729548355
1.30159677636
1.14325141997
1.10348305717
1.0816699588
1.04876556281
0.9297065136
0.69511850878
0.404574497175
0.186224194439
0.089334643782
0.0620092589569
0.0597268389828
0.0608770903438
0.067539009542
0.122392003592
14.0282138532
10.1461860116
6.2737219385
3.71642405842
2.35727567873
1.79557483129
1.65708431502
1.67388558728
1.685897533
1.63506718699
1.52410219511
1.32614853407
0.955291158964
0.495954729887
0.201261629004
0.0967148910757
0.0743942113254
0.0731321590156
0.0803356926624
0.143162975996
14.3339877219
11.1357657258
7.54459988968
4.83472789898
3.28236798741
2.673044829
2.59669510857
2.59891988936
2.45721037337
2.19846352585
1.97969775935
1.84160930577
1.64390017335
1.12963145411
0.495157822647
0.186681412031
0.100940632105
0.0870594791939
0.0936571253857
0.168287742922
14.7562386295
12.2855024323
9.15208526547
6.56661311393
5.06646398854
4.55303421994
4.29297062591
3.78101100787
3.13186617099
2.5091101586
2.05146510405
1.85818492592
1.90986132117
1.77913926868
1.03944533167
0.376294962721
0.152693391795
0.104980023179
0.107614456832
0.201035845831
15.3240289285
13.8322679475
11.6703754903
9.86119828567
8.78166925582
7.70281339928
6.09334268171
4.55178158673
3.29527494538
2.38348838177
1.79185189681
1.51736165088
1.60804676166
1.91051934363
1.61982135995
0.676897759833
0.23363583302
0.127244112307
0.122277925927
0.245681425077
16.8013834025
16.6654814382
16.2371241923
15.4873332825
13.2973684649
9.71633643149
6.51832509197
4.25360029245
2.78930579644
1.90858418011
1.42435730125
1.208199131
1.26196177967
1.63170781771
1.81502137373
0.94954198637
0.305542487343
0.146522553163
0.137326213201
0.309947666275
23.6156833804
24.2342148707
22.4977873533
17.9093932889
12.2780916501
7.70745924792
4.66854353985
2.87569081977
1.85921806219
1.32540526608
1.06840112302
0.99505776474
1.09962007975
1.43867045337
1.71924806629
1.00517460263
0.314078684516
0.153045229752
0.152669894765
0.402207044434
19.8314737539
15.7749430584
11.3620969925
7.75422644186
4.97671793387
3.1752945954
2.07611250113
1.4303187176
1.06595461518
0.895401402768
0.850472780274
0.893905813955
1.03266543851
1.31607377355
1.49733247997
0.822053559462
0.250728913815
0.150574140631
0.17696508741
0.523317038383
3.38513108801
2.77374744681
2.19507458667
1.71773549206
1.35113226
1.0722089704
0.878163110879
0.764787834286
0.719746991313
0.727702138056
0.777029777269
0.849268711607
0.958821317004
1.1303608359
1.08477891064
0.508095695216
0.200204648281
0.154114136377
0.211857115335
0.67825294394
0.833216529687
0.791864281503
0.745752563622
0.700489395177
0.660142059388
0.628635640787
0.615122867088
0.623960342496
0.648939806872
0.678933936791
0.713242133104
0.751180425168
0.80971719619
0.844121167553
0.686036046195
0.335652812804
0.174185607887
0.164024998587
0.262333221009
0.869348713804
0.607786736572
0.614426891103
0.614500421027
0.609269022242
0.603687517488
0.600949986951
0.600303793321
0.59990719911
0.600436227742
0.604379036398
0.610881236725
0.61520378674
0.617850259459
0.584269593338
0.444872444191
0.239640743694
0.164242683018
0.180534476227
0.329648381829
1.08650042715
0.624177976285
0.63897780418
0.644590708979
0.637973061003
0.620929945225
0.598394651048
0.574923435207
0.552824872346
0.53308464609
0.516675992148
0.50149986638
0.482506846163
0.455891381217
0.0767127480924
0.0832355699356
0.124675592217
0.0947384879679
0.120552295586
0.0978505937913
0.113272622116
0.0952814385406
0.10510029486
0.092129268894
0.0985244320649
0.0894728670408
0.0937433376095
0.0877922356991
0.0909538129665
0.087239832663
0.0902840655099
0.0878980810799
0.0918254146056
0.0898207043841
0.0955455203357
0.0930404441142
0.10145815109
0.0975600935754
0.109443030713
0.103348764349
0.119338247956
0.11044249589
0.13093588543
0.119028895027
0.14343970598
0.129810619372
0.156066805701
0.146211669072
0.169226736112
0.171975208048
0.183177763757
0.197571780805
0.203070068096
0.227554563626
0.236762996226
0.258382590617
0.285022586676
0.29245067378
0.350338505799
0.333549594655
0.435477318741
0.382551301858
0.538819332964
0.440643696385
0.653269730719
0.505843641681
0.770050980152
0.574610877071
0.874001122122
0.642784706299
)
;

boundaryField
{
    inletfuel
    {
        type            turbulentIntensityKineticEnergyInlet;
        intensity       0.05;
        value           uniform 13.5;
    }
    inletair
    {
        type            turbulentIntensityKineticEnergyInlet;
        intensity       0.05;
        value           uniform 0.015;
    }
    outlet
    {
        type            inletOutlet;
        inletValue      nonuniform 0();
        value           nonuniform 0();
    }
    axis
    {
        type            empty;
    }
    leftside
    {
        type            kqRWallFunction;
        value           nonuniform List<scalar> 
33
(
0.0767127480924
0.0832355699356
0.0159259812635
0.0163797626458
0.0167674373885
0.0832355699356
0.0947384879679
0.0978505937913
0.0952814385406
0.092129268894
0.0894728670408
0.0877922356991
0.087239832663
0.0878980810799
0.0898207043841
0.0930404441142
0.0975600935754
0.103348764349
0.11044249589
0.119028895027
0.129810619372
0.146211669072
0.171975208048
0.197571780805
0.227554563626
0.258382590617
0.29245067378
0.333549594655
0.382551301858
0.440643696385
0.505843641681
0.574610877071
0.642784706299
)
;
    }
    burnerwall
    {
        type            kqRWallFunction;
        value           nonuniform List<scalar> 7(10.7656872748 9.32047235647 8.7275130357 0.0156344498624 0.033338367592 0.18351882113 7.63971299732);
    }
    front
    {
        type            wedge;
    }
    back
    {
        type            wedge;
    }
    procBoundary0to1
    {
        type            processor;
        value           nonuniform List<scalar> 
27
(
0.617515525233
0.620045546778
0.625064477054
0.631344839137
0.403614438284
0.302211400079
0.192460378113
0.163660236457
0.203798781618
0.412388380995
1.30543013402
0.643050038476
0.653857557904
0.651300391809
0.63331199562
0.603477497562
0.567981916318
0.531772043312
0.497420093399
0.465561113906
0.436932125017
0.409579478421
0.378873583316
0.403614438284
0.34027804507
0.95407541504
0.706445925663
)
;
    }
}


// ************************************************************************* //
