/*--------------------------------*- C++ -*----------------------------------*\
  =========                 |
  \\      /  F ield         | OpenFOAM: The Open Source CFD Toolbox
   \\    /   O peration     | Website:  https://openfoam.org
    \\  /    A nd           | Version:  7
     \\/     M anipulation  |
\*---------------------------------------------------------------------------*/
FoamFile
{
    version     2.0;
    format      ascii;
    class       volScalarField;
    location    "0.03";
    object      N2;
}
// * * * * * * * * * * * * * * * * * * * * * * * * * * * * * * * * * * * * * //

dimensions      [0 0 0 0 0 0 0];

internalField   nonuniform List<scalar> 
814
(
2.87030228474e-08
2.23816056799e-08
8.49567372008e-09
2.91356190785e-06
2.99911040602e-06
2.252461343e-06
0.000150788052506
0.000250720253615
0.000583089510527
0.00485181599774
0.0145798435568
0.114248674308
0.0125466728554
0.0315842093824
0.146580374674
0.0243470925509
0.0534841191746
0.176645451086
0.0413246765153
0.0804035689925
0.204216504572
0.0644333884379
0.11132555508
0.228216542612
0.0946946069598
0.145391827067
0.249851570949
0.132296035842
0.181598673414
0.270184416683
0.175767879179
0.218857622951
0.290470406831
0.221993266597
0.256166886831
0.311986719926
0.267567036161
0.292899951813
0.335676364135
0.311270363393
0.329735161178
0.362957541522
0.35565196288
0.369727352919
0.396820515708
0.405471539833
0.417059786832
0.440481884546
0.460576569949
0.470387714315
0.490625811717
0.509401480679
0.517267019068
0.533509438652
0.540659509973
0.546718858517
0.559281633192
0.556541918296
0.561497305374
0.571854302966
0.56489311621
0.569297671261
0.578542503497
0.570424578073
0.57442717708
0.582817200465
0.575199410631
0.578795036127
0.586290619548
0.579380194268
0.582440609281
0.588798042614
0.582618050713
0.584995299482
0.589916648127
0.585268679907
0.586974179126
0.590501802913
0.59283046565
0.594091402996
0.596742387298
0.649825001555
0.651242405297
0.654406022128
0.736548184838
0.736790146046
0.737362453738
0.758660266805
0.758715742068
0.758839989333
0.763170344918
0.763185546989
0.76321449393
0.764287774526
0.764288819092
0.764290628117
0.524833966947
0.438145922759
0.390117462718
0.368286958721
0.357204161625
0.353080520158
0.353124171026
0.357021081289
0.365668984962
0.37960999765
0.400018482565
0.429568813033
0.470379331521
0.516797559518
0.55427813327
0.575342536734
0.585273319091
0.590606866698
0.593735923704
0.595980534882
0.596960036366
0.596190377861
0.59501696298
0.600256800625
0.658753163484
0.738178299689
0.759006910315
0.763251273785
0.764292401225
0.76799543962
0.767997149696
0.767998526192
0.767999296335
0.767999692937
0.767999871889
0.767999946372
0.767999974901
0.767999984988
0.767999988284
0.767999989289
0.76799998958
0.76799998967
0.767999989729
0.767999989814
0.767999989925
0.767999990094
0.767999990362
0.767999991446
0.767999996027
0.766972343985
0.767746461778
0.767947748877
0.767982676812
0.767994567191
0.767998259844
0.767999442585
0.767999813613
0.767999925831
0.767999957869
0.767999966498
0.767999968806
0.767999969465
0.767999969741
0.767999970034
0.767999970298
0.767999970854
0.767999971443
0.767999973514
0.767999973538
0.758666476649
0.765993116265
0.767408667271
0.767848624395
0.767962787102
0.767988697312
0.767996851347
0.767999102844
0.767999727906
0.767999891545
0.767999931394
0.767999940962
0.767999943392
0.767999944188
0.767999944836
0.767999945304
0.767999946483
0.767999947027
0.767999938701
0.767999461591
0.705341040494
0.746740844568
0.76162707203
0.766365071494
0.767540040946
0.767895539899
0.767981389167
0.767995531029
0.767998880787
0.767999669605
0.767999845619
0.767999884574
0.767999893766
0.767999896306
0.767999897706
0.767999898444
0.767999900694
0.767999899654
0.767999790367
0.767984468919
0.646061388678
0.68331974039
0.731975317376
0.757156665404
0.765518004341
0.767336579621
0.767844368214
0.767979294013
0.767995528461
0.767998904686
0.767999609173
0.767999758824
0.767999793527
0.76799980264
0.7679998062
0.76799980748
0.76799981169
0.767999807199
0.767999603801
0.767985366676
0.593556852866
0.65232422231
0.716684938356
0.750700316477
0.763810981092
0.766904160053
0.767711839119
0.767943554347
0.767987933499
0.767996946214
0.767998988364
0.767999464975
0.767999584514
0.767999617265
0.767999627824
0.767999630558
0.767999638191
0.767999628111
0.767999294611
0.767983898661
0.557102448688
0.639564279906
0.715461004949
0.754208727128
0.76418094819
0.766852735502
0.767642187147
0.767900250534
0.767976904047
0.767992756014
0.767997462195
0.767998760174
0.767999133196
0.767999245395
0.767999279479
0.76799928695
0.767999300222
0.767999282779
0.767998802686
0.767980546825
0.525427815072
0.623513782538
0.71102193201
0.75584482488
0.764452273301
0.766784990028
0.767557807166
0.767848122672
0.767950782823
0.767983594936
0.767993801626
0.767997036404
0.76799812077
0.767998484856
0.767998597129
0.767998621217
0.767998643361
0.767998616352
0.767998002902
0.767976918237
0.498123228841
0.605244725302
0.703531119393
0.754749208599
0.764094653872
0.766556165784
0.767418949313
0.767770098024
0.767909774675
0.76796590217
0.767985700382
0.767992793419
0.767995767026
0.767996890425
0.767997254063
0.767997336251
0.767997372922
0.767997331337
0.76799659372
0.767972755892
0.47569645578
0.586220777838
0.695018515435
0.752558703486
0.763289735231
0.766161759559
0.767206081205
0.76764908131
0.767839225887
0.767926462666
0.767967147583
0.767982617494
0.767990187314
0.76799346155
0.767994596587
0.767994874419
0.767994941271
0.767994874679
0.767993979066
0.767966684288
0.460246857652
0.569086193409
0.686806909564
0.750459701381
0.762404945018
0.765678248157
0.766903001107
0.767448742662
0.767712067238
0.767845264558
0.767917816243
0.767958720732
0.767977505417
0.767985994767
0.767989323586
0.767990223953
0.7679903801
0.76799027494
0.767989102657
0.767956973084
0.454334400574
0.559725011653
0.682099718061
0.749688133768
0.761690722303
0.765012077207
0.76637865193
0.767068180859
0.767457377195
0.767683766439
0.767819245964
0.767900047396
0.767948246814
0.767970597517
0.76797895678
0.767981648178
0.767982111757
0.767981975885
0.767980268593
0.767941583737
0.457602934912
0.562041813444
0.681753039097
0.749038742112
0.760626962477
0.763787962638
0.76535458724
0.76631193882
0.766948791429
0.767361641981
0.767625757733
0.76778875743
0.767883162007
0.767937385217
0.767959377368
0.76796644585
0.76796784589
0.767967786017
0.767965112582
0.767918044162
0.470963805975
0.57518167999
0.688321052411
0.746893094095
0.757927041698
0.761320213594
0.763419568896
0.764939073419
0.766046285218
0.766788838873
0.767275187226
0.767581345504
0.767767180572
0.76787164451
0.767922409308
0.767940626442
0.767944688689
0.767945077114
0.767940885958
0.767883636961
0.496636591819
0.598979867443
0.697775845691
0.741829789635
0.752911749808
0.757210831363
0.760308053763
0.762763435516
0.764605035389
0.765874746196
0.766708379248
0.767236232044
0.767565443469
0.76775906954
0.767858475041
0.767898744482
0.767909427639
0.767911244687
0.767905035838
0.767835874576
0.534080166441
0.627683892989
0.704435594602
0.736179516315
0.74647676623
0.751973389895
0.756323565045
0.759890685052
0.762621127947
0.764573233765
0.765878246023
0.76671755432
0.7672510911
0.767577491484
0.767755559917
0.767834879499
0.767859059263
0.767864304552
0.767855896607
0.767773085655
0.572122778974
0.648014950449
0.705097766734
0.730177298415
0.740163299264
0.746841394424
0.752252750309
0.756701729858
0.760237790025
0.762893765955
0.764745085301
0.765985448735
0.766795728916
0.76730678025
0.767599946532
0.767741566467
0.767790733059
0.767803378708
0.767793245638
0.767694688846
0.596820256783
0.655679480584
0.701215163698
0.723994051465
0.734912217028
0.742387041418
0.748362635718
0.753323654943
0.757379453428
0.760684314353
0.763162916149
0.764938485077
0.766141283193
0.766913855699
0.767373057083
0.767609502919
0.767701688139
0.767728799216
0.767718467461
0.767601473424
0.608015533575
0.656781077677
0.696281363117
0.718178146595
0.730230654484
0.738543065654
0.74474123987
0.749467040549
0.753508913085
0.757417364164
0.760662044805
0.763252787037
0.765107846619
0.76631620802
0.767036310969
0.767421792408
0.767587231088
0.767641694563
0.767634638457
0.767495544661
0.612857408897
0.655589873831
0.690923294077
0.712453881975
0.725300147649
0.734051741206
0.740227533074
0.744727684702
0.748476925497
0.752172391517
0.756456362038
0.760230287721
0.763261166364
0.765307502828
0.766497465758
0.767142288259
0.767435646816
0.767542047118
0.767545312028
0.76737976516
0.615124121106
0.65317351876
0.685191770255
0.706153121816
0.719374827351
0.728192034943
0.734064829125
0.738130599793
0.74155459321
0.745124342328
0.749983986119
0.755034855534
0.759724589118
0.763371917851
0.765545667438
0.766691307528
0.767221252438
0.767425701424
0.767453295948
0.767256481917
0.615706242409
0.649378729098
0.678176419994
0.698265549704
0.711520630996
0.720206500234
0.725699910933
0.729540041742
0.733147317328
0.737400224391
0.742619359931
0.748240428104
0.754115662117
0.759763805711
0.763786174866
0.765915049942
0.766891503735
0.767279777074
0.767359319674
0.767127707855
0.61527131666
0.644477077129
0.669868620371
0.688523870828
0.701295526159
0.709684467259
0.715217127669
0.720108117818
0.725674680967
0.731578457398
0.737464978031
0.743027409938
0.748529105622
0.7546609462
0.760767971521
0.764594955934
0.766375581398
0.767085655371
0.767262150306
0.766987884555
0.613222813817
0.637675484603
0.659259519995
0.675649451402
0.687231574735
0.695651354152
0.704148201761
0.712987649752
0.721812653339
0.730042560406
0.736994050543
0.742315524002
0.746501909754
0.750995451226
0.757101498913
0.76274794174
0.765657975273
0.76684043334
0.767161614617
0.766836187109
0.608817689718
0.627947150018
0.645342179468
0.659386941014
0.671137499668
0.683478174396
0.69775217466
0.711723035667
0.724068055894
0.734033528571
0.741383292301
0.746128011092
0.748666431405
0.750677195461
0.754617810497
0.760765259726
0.764879780178
0.7665991027
0.767068327477
0.766671436065
0.604225288503
0.61831079247
0.63240898573
0.646511029257
0.663389677524
0.683232945999
0.702812165085
0.719665321408
0.732869989357
0.742167752605
0.748082441914
0.751305726154
0.752547953967
0.752864956573
0.754458303439
0.759541729442
0.764395219512
0.766463120823
0.766998682132
0.766490000381
0.607780617799
0.620980880371
0.638557852303
0.660396233817
0.683108739613
0.704366948054
0.722341076574
0.7357451142
0.745111187897
0.75108111383
0.754424515284
0.755826299281
0.75584507555
0.755264481317
0.755757944636
0.759711438799
0.764472724425
0.766507093863
0.766957127295
0.766287232855
0.668377503394
0.684092446228
0.699660951496
0.71330544937
0.726350257389
0.737060556948
0.745327956913
0.751402838568
0.755433124268
0.757720391594
0.758694041189
0.758690216331
0.757984009092
0.757138527247
0.75742798613
0.760890394375
0.765095657397
0.766671042747
0.766893271593
0.766089325919
0.740072018247
0.743186728541
0.746706006263
0.750182778047
0.753353732527
0.75609938057
0.758285398347
0.759803562088
0.760647442704
0.760900167987
0.760687110189
0.760132026866
0.759387552453
0.758893516334
0.759880900952
0.763060959559
0.765721102184
0.766756225941
0.766802371325
0.76591805669
0.759376868375
0.759915595951
0.760533348211
0.761166569715
0.761727646035
0.762158247623
0.76242088878
0.762470365457
0.762310095106
0.761989996952
0.761588823355
0.761161843518
0.760801328001
0.760953598306
0.762273472244
0.764491852238
0.766170628748
0.766802088829
0.766696398552
0.765775634624
0.763327249795
0.763437532874
0.763545825035
0.763621437928
0.763628423514
0.763550366901
0.763391947437
0.763170434072
0.762907977113
0.762641724898
0.762417148634
0.76228656713
0.762314825961
0.762767976246
0.76392153772
0.76544956285
0.766473707644
0.766817068235
0.766583122182
0.765660069776
0.764294011891
0.76428489817
0.764255158532
0.764195301737
0.764098138926
0.763962636771
0.763796353847
0.763616018432
0.763447007189
0.763325405857
0.76328960004
0.763372379213
0.763610113862
0.767483367849
0.767431583353
0.767669114745
0.767559305513
0.76777189359
0.767650480539
0.767807016056
0.767679520671
0.76781413632
0.76767920577
0.767803110251
0.767660147499
0.767777138619
0.767625210378
0.767736483637
0.767575220725
0.767680366639
0.76750967405
0.767607422903
0.767427212552
0.767516643934
0.767326561724
0.767406771065
0.767205871797
0.767276184441
0.767062128788
0.767121822238
0.766890153392
0.766937424119
0.766680868558
0.76671152673
0.766420005221
0.766433094704
0.766094333141
0.766105150934
0.765702660607
0.765765154089
0.765236741038
0.765412452436
0.764778246811
0.765044894349
0.764374025455
0.764706263481
0.764045327151
0.764422405263
0.763813294421
0.764268586754
0.763721749706
0.764242689886
0.763760312352
0.764316252568
0.763890231045
0.764439601174
0.764059400259
0.764565484074
0.764221403243
)
;

boundaryField
{
    inletfuel
    {
        type            fixedValue;
        value           uniform 0;
    }
    inletair
    {
        type            fixedValue;
        value           uniform 0.768;
    }
    outlet
    {
        type            zeroGradient;
    }
    axis
    {
        type            empty;
    }
    leftside
    {
        type            zeroGradient;
    }
    burnerwall
    {
        type            zeroGradient;
    }
    front
    {
        type            wedge;
    }
    back
    {
        type            wedge;
    }
    procBoundary0to1
    {
        type            processor;
        value           nonuniform List<scalar> 
27
(
0.764587203987
0.764586240835
0.764584003287
0.76458069703
0.764129658237
0.765026382907
0.766053421824
0.766664084696
0.766803631315
0.766470173597
0.765565244542
0.764572490284
0.764550809641
0.764513101267
0.764454573304
0.764372739283
0.764270831197
0.764159889488
0.764058010253
0.763988773662
0.763982441149
0.764069621729
0.764272164896
0.764129658237
0.764601615568
0.764659913025
0.764346842671
)
;
    }
}


// ************************************************************************* //
