/*--------------------------------*- C++ -*----------------------------------*\
  =========                 |
  \\      /  F ield         | OpenFOAM: The Open Source CFD Toolbox
   \\    /   O peration     | Website:  https://openfoam.org
    \\  /    A nd           | Version:  7
     \\/     M anipulation  |
\*---------------------------------------------------------------------------*/
FoamFile
{
    version     2.0;
    format      ascii;
    class       volScalarField;
    location    "0.03";
    object      nut;
}
// * * * * * * * * * * * * * * * * * * * * * * * * * * * * * * * * * * * * * //

dimensions      [0 2 -1 0 0 0 0];

internalField   nonuniform List<scalar> 
814
(
0.00238810906387
0.00147896252946
0.000192071389245
0.00200670591866
0.00127212372308
0.000166071534124
0.00178928803005
0.0011510226456
0.000155408225602
0.00151128752522
0.00099301552993
0.00028215130733
0.00132381850106
0.000928763584879
0.000492853616965
0.00119430705408
0.00094421395639
0.000724095555215
0.00114252371748
0.00103628887137
0.000981705695474
0.0011782359091
0.00119835712751
0.00126827586901
0.00130977316987
0.0014326420419
0.00160285863537
0.00155012770102
0.00174512798947
0.0019941730574
0.00190490002614
0.00213253009408
0.00242473096635
0.00234844614308
0.00256320481893
0.00284521934725
0.00280468007136
0.00296717574006
0.00318246860244
0.00315542855066
0.00324545827795
0.00335543722114
0.00325992400195
0.00327924449437
0.00327516153668
0.0030049207251
0.00297290794222
0.00288270081137
0.00246350309309
0.00241325392025
0.00229893488946
0.00197548590193
0.00193873440356
0.00185977931146
0.00179175297719
0.00177379504963
0.00173201645172
0.00180802744042
0.00179531576387
0.00176154805506
0.00185864404363
0.00184661344607
0.00181478943735
0.001909588863
0.00190116393713
0.0018781817863
0.00197059801327
0.00196835047632
0.00195911900852
0.00205350611219
0.00205850156633
0.00206532924251
0.00217675387874
0.00218875137675
0.00221157247339
0.00243138706942
0.00245265278578
0.00249592476034
0.00326592792338
0.00329361972502
0.00334970435629
0.00330874850094
0.00328528309946
0.00322919959993
0.000833202157798
0.000824883061425
0.000805566953196
0.000327415076748
0.000328147233081
0.000329620600703
0.000461852793351
0.000465110752989
0.00047114477184
0.000669298373619
0.000671569203331
0.000676139811776
0.00164773297799
0.000557819461991
0.000818649351748
0.00108348037567
0.00138829837268
0.00176195736807
0.00219272277453
0.00263322595474
0.00301860019262
0.00327969519357
0.0033504034048
0.00316388964389
0.00269948290122
0.00211979583053
0.00174460150192
0.00166229956878
0.00170012251748
0.00175876313991
0.00183659912469
0.00193729327705
0.00206630939129
0.00223609289324
0.00255006214799
0.00341797686669
0.00314332800709
0.000779186688308
0.000331734534125
0.000479218243594
0.000682065536604
2.60907686579e-05
0.000153234250547
0.000228337069622
0.000265928090337
0.000287473780173
0.000305105272829
0.000321770583201
0.000339033566881
0.000353838246722
0.000367087478378
0.000376956584258
0.000384413174437
0.000387925812451
0.000388217156895
0.000383030296418
0.00037644983389
0.000365963821654
0.000357635366575
0.00033603798831
9.71944512928e-05
4.88518650059e-05
7.98242983441e-05
0.000177339529951
0.000237732342566
0.000284622633944
0.000312324722339
0.000331140405595
0.000346492227207
0.000359270535035
0.000370991236916
0.000380841569104
0.00038863768888
0.000393050756234
0.000393726650596
0.000389363219493
0.000381975239728
0.000371985167119
0.000361882769699
0.000330484321869
9.85723503681e-05
0.000119452760986
1.1795269975e-05
3.7357261028e-05
0.000144052774412
0.000232926124175
0.000292861426857
0.000324240062988
0.000346328528254
0.000361293003987
0.000373132479247
0.000383108151007
0.000391078997774
0.000395916482153
0.000396773454089
0.000392833899904
0.000385130024931
0.000375314379515
0.000364403188526
0.000326336427692
9.97321812774e-05
0.000320734867273
4.29431417125e-05
1.05225103568e-05
1.82675276972e-05
6.39712128683e-05
0.000168209516498
0.000261721738268
0.000323325757444
0.000358588234406
0.000377000765989
0.000388191536411
0.000396042584541
0.000400511921246
0.000400991323493
0.000396698757816
0.000388576768769
0.000378353880028
0.000367009146639
0.000322395665299
0.000111228354938
0.000220655203409
0.000138219603087
4.71852016793e-05
1.28774410031e-05
1.27096503114e-05
3.94073409418e-05
0.000114177680735
0.000228436268268
0.000324511156593
0.000371336878093
0.000390034081913
0.000399037296542
0.000403163171576
0.000403179535523
0.000398283016474
0.000389886798735
0.000379282589118
0.000368063847375
0.000319889863763
0.000110572186135
0.0003987067818
0.000278765219017
9.26339885164e-05
2.23337096389e-05
8.11216743589e-06
2.03384321237e-05
7.18362010531e-05
0.000174129898934
0.000284602799849
0.000353345268977
0.00038403036506
0.000396592082422
0.000401193811868
0.000400949270555
0.000395525506393
0.000386907255404
0.000376203136462
0.000365006547191
0.000316234492363
0.000112451945873
0.000760608688146
0.000452430819756
0.000123011468742
1.9509771774e-05
8.03861406039e-06
1.98503382872e-05
6.49293417796e-05
0.000150169351147
0.000249055059195
0.000325931391121
0.000368604274718
0.000386603816669
0.000392558091134
0.000392214450324
0.00038629244375
0.000377297944769
0.000366632912341
0.000355058024165
0.00030753952176
0.000116028744829
0.00125941841033
0.000690005549012
0.000168337135449
1.9467389892e-05
8.6483221781e-06
2.02269810324e-05
5.87022936657e-05
0.000127435266161
0.000212845038088
0.000292299063192
0.00034389975462
0.00036764475509
0.00037544812529
0.000375060053231
0.000368521219703
0.000358866162563
0.000348108480491
0.000336139110209
0.000291139104721
0.000118508721469
0.00181699658937
0.000992939090207
0.000234911484886
2.44627703466e-05
9.17166152257e-06
1.78838352971e-05
4.84415989605e-05
0.000104381965739
0.00017872699893
0.000255348023177
0.000310462535871
0.000338322863706
0.000348001775381
0.000347567519035
0.00034020998782
0.000329601887615
0.000318428277941
0.000306394959042
0.00026629443732
0.000118835923757
0.00235193380153
0.00133386487274
0.000316877998141
3.23018906236e-05
9.71052142347e-06
1.43088429249e-05
3.76114822187e-05
8.39508790815e-05
0.000147708496648
0.000215933320364
0.000268682524608
0.000298313226355
0.000309419327379
0.000308982082547
0.000300736207532
0.000289081790513
0.00027726264576
0.000265610998086
0.000233162323118
0.000118139182443
0.00279356773926
0.00165742811585
0.000404439781787
4.02556397634e-05
1.04316206945e-05
1.23349095287e-05
3.12686633301e-05
6.90513025496e-05
0.000119705207333
0.000174459543295
0.000219981988978
0.000249082054568
0.000261453192125
0.000261324398198
0.000252536332047
0.000240275747994
0.00022808243151
0.000217386614548
0.000193920489278
0.000117802818742
0.00308413414337
0.00187142154694
0.000470025480037
4.36445407991e-05
1.15502504453e-05
1.42310578849e-05
3.16773533617e-05
5.91398841246e-05
9.38038942207e-05
0.000132656280956
0.000168522376803
0.000195020357404
0.000208656008534
0.000209897080363
0.000201657596033
0.00018986743728
0.000178229567622
0.00016918051511
0.000154092749574
0.000118969661097
0.00319574152221
0.0018969775968
0.000497677547429
4.66653036623e-05
1.59594973708e-05
2.45414945444e-05
4.01110347862e-05
5.49648026281e-05
7.24389830559e-05
9.50853186907e-05
0.000120346482855
0.000142915609632
0.000157471078126
0.000161419833059
0.00015552271177
0.000145691592255
0.000135775973626
0.000128864585995
0.000120671501137
0.000122852767599
0.00309049434427
0.00173545004742
0.00044944431702
5.50190958504e-05
3.20833268385e-05
4.90040326505e-05
6.10365471732e-05
6.42344179816e-05
6.55217740703e-05
7.16254227925e-05
8.39693128054e-05
9.98249386562e-05
0.000114133932819
0.000121467518978
0.000119602559603
0.000113004959842
0.000105607496772
0.000100848872557
9.82360725759e-05
0.000130740080021
0.0027355900336
0.00141677507075
0.00036258558926
8.02239285928e-05
7.1349949442e-05
9.45149232747e-05
0.000104501254067
9.54829525375e-05
7.87763839275e-05
6.70910855295e-05
6.49244322517e-05
7.11880096291e-05
8.24304867478e-05
9.25179367925e-05
9.56327937228e-05
9.30747999551e-05
8.84694202925e-05
8.55373684394e-05
8.76558473653e-05
0.000143670854892
0.00219054971057
0.00107091705729
0.000313409750257
0.000134736098791
0.000136141941593
0.00016229063492
0.000175864913129
0.000153177164563
0.000114017209938
8.07545094835e-05
6.2198375989e-05
5.74200804701e-05
6.3291495695e-05
7.43892333768e-05
8.24948212355e-05
8.44927167139e-05
8.28228202535e-05
8.13780479519e-05
8.77846707139e-05
0.00016204654168
0.00170405935331
0.000896349904632
0.000355002339428
0.000220480469131
0.000211765936104
0.000238231096664
0.000264899614111
0.000233714090658
0.000171068206706
0.000112747257827
7.45200649925e-05
5.63715521836e-05
5.4863893976e-05
6.51730962402e-05
7.79164656764e-05
8.50965738111e-05
8.67477142369e-05
8.66748713251e-05
9.71432776566e-05
0.000185367846532
0.00149755685013
0.00091126328766
0.000461890219819
0.0003213309471
0.000290379102468
0.000312648927373
0.000353455311794
0.000327276357197
0.000251211968575
0.000170296813326
0.000108294252284
7.03391204089e-05
5.61347545759e-05
6.19529267335e-05
7.85980742785e-05
9.23088161966e-05
9.84803976785e-05
0.000100098397749
0.000114385252913
0.000212194942891
0.00148730944093
0.000999883661269
0.000595405471953
0.000432803060352
0.000375990616541
0.000394111301692
0.000437648241055
0.000424733994553
0.000362009634853
0.000273146859824
0.000186722394002
0.000115390295862
7.41791727283e-05
6.44201899284e-05
7.9843063305e-05
0.000101938742349
0.000115605869532
0.000120249386819
0.000137966447617
0.000240107599854
0.00153534193516
0.00111927263448
0.000750413216102
0.000558610558861
0.000477940852819
0.000493669204867
0.000543356973401
0.000544991559022
0.000506183173489
0.000445560399192
0.000347380024103
0.000231654646472
0.000135195710206
8.45578147734e-05
8.09492192237e-05
0.00010701737624
0.000133367035155
0.000144881786317
0.00016602692293
0.000266785446502
0.00161409700688
0.00127080301617
0.000930191670577
0.000708588596073
0.000605954935228
0.000623258720563
0.000683537733895
0.000707257551069
0.000700320748547
0.000679067649005
0.000608028808921
0.000471569287162
0.000297514335252
0.000157921312389
9.87643566692e-05
0.000105156911346
0.000143679191158
0.000169839019336
0.000196369664355
0.000291408209183
0.00172743849935
0.00145799157845
0.00114822482491
0.000902713270423
0.000777088478411
0.000788619693964
0.000854119154309
0.000901235957819
0.000924455291654
0.000923046640989
0.000890483768132
0.000801542476254
0.000611652148345
0.000352476024154
0.000170617408086
0.000114166052573
0.000140850854819
0.000188012217615
0.000226287915698
0.000314613970837
0.00187157131225
0.0016778994753
0.0014109855062
0.00116211097418
0.00102261661378
0.00101770284351
0.00107484399383
0.00111956151616
0.00111856489133
0.0010770201247
0.00104384025469
0.0010274166219
0.000958853189552
0.000707703254588
0.000354361043458
0.000166584644388
0.000138436497594
0.000192547290581
0.000252108538857
0.000335662599723
0.00204976819139
0.0019403226108
0.00174335674027
0.00153892287931
0.001417900734
0.00139679051467
0.00139236044154
0.00132297607947
0.00120396693557
0.00107647002927
0.000992583809518
0.000999031177378
0.00108170507685
0.00104250844423
0.000668292599018
0.000285973022456
0.000159521641509
0.000188969103168
0.000271522870025
0.000357701839085
0.00227429391644
0.00227690140949
0.00221684582799
0.00213919394355
0.00206112439313
0.00191333404471
0.00165108877105
0.00137081687933
0.00112034011181
0.000930834787306
0.000822306104518
0.000824756096281
0.00096563625077
0.00113979873949
0.000990406131021
0.000471899620497
0.00020801240274
0.000192107639764
0.000287782623054
0.000383670575063
0.00265600823397
0.00279715461726
0.00289776669629
0.00288455833305
0.00262376012077
0.00211270865999
0.00159030415339
0.00117693618633
0.000889421785704
0.000720601360442
0.00065820694395
0.000697096590055
0.000852343291486
0.0010834661814
0.00113795966866
0.000648008176567
0.000258310339725
0.000206290527184
0.000306989829555
0.000418267001781
0.00354373315952
0.00363457712345
0.00348069918259
0.00297643056031
0.00227309424096
0.00161559825421
0.00111675787833
0.000795093609821
0.000612589646351
0.000545080159704
0.000570757650522
0.000677358440416
0.000849547396903
0.00105619052148
0.00114246143148
0.000704658428268
0.000274208863247
0.000228917485246
0.000329125974671
0.000468147708213
0.00292829955143
0.00247311240057
0.00194468926819
0.00146774040354
0.00105514590703
0.000761440563397
0.000573358811422
0.000472707656325
0.000449369464759
0.000502536234763
0.000618030097932
0.000754998050012
0.000888181475252
0.00102120007567
0.00104480008119
0.000614154744862
0.000247918758959
0.000263387099911
0.000336221960436
0.000536760624579
0.000719778350639
0.000629695153651
0.000540418480362
0.000465903125955
0.000412008624016
0.000380784660098
0.000381617631146
0.000427039188914
0.000518063929362
0.000628019788597
0.000724662855205
0.000793334764699
0.000849999569348
0.000897210453086
0.000796347881573
0.00042135588558
0.000235350867283
0.000292984100177
0.000341484864748
0.00063534518724
0.000337625260807
0.000347444703839
0.000362557245897
0.000386131271935
0.000421100575217
0.00047009195743
0.000533553449247
0.000600832610622
0.00065451471206
0.000685997903508
0.000703664857669
0.000712559982127
0.000719506766578
0.000690318386733
0.000545242856931
0.000316621266076
0.000246633283642
0.000313595451402
0.000362876165799
0.000767979187272
0.000497279755179
0.000526913560824
0.000561785539578
0.00059815164874
0.000628599001945
0.000646668173538
0.000651178697174
0.000645381243348
0.000634480991064
0.000622623974677
0.000609194636967
0.000590374816209
0.000564436788101
0.000508333308545
0.000393220377007
0.000269874361812
0.000273195200577
0.000325556348992
0.000406786365981
0.000928245004364
0.00069390463869
0.000709150535213
0.000716978300616
0.000712333448155
0.000694292845861
0.000666516024615
0.000634017809217
0.000600781813357
0.000569430424813
0.000540643028059
0.000511899942921
0.000479322513015
0.000440415626691
0.000258045190768
0.00013925417333
0.000165556777497
0.000158620181818
0.000152239594368
0.00016392591554
0.000146772592608
0.000159650387858
0.000144100848368
0.00015436511133
0.000144101444679
0.000149893161386
0.000146275522959
0.000147043725085
0.000150570472449
0.000146071627769
0.000157050396648
0.000147112955325
0.000165845483572
0.000150253637585
0.000176934348963
0.000155543048618
0.000190181304563
0.000162978349025
0.000204873182369
0.000172497507197
0.000219493359902
0.00018414525096
0.000231001355697
0.000198210288902
0.000232694714019
0.000215822812443
0.000220385358469
0.000242607495958
0.000197730120765
0.000284673446192
0.000155493372702
7.44760436972e-05
0.000142973504976
7.99280830422e-05
0.000150194976647
8.51728876375e-05
0.000165648804717
9.06190785535e-05
0.000187315722256
9.67861995156e-05
0.000218929809643
0.000103663301766
0.000259868318443
0.000111268047512
0.000309107683606
0.000119225662933
0.000362620434757
0.000127076505293
0.000413457360036
0.000134404390046
)
;

boundaryField
{
    inletfuel
    {
        type            calculated;
        value           uniform 0.0100623058987;
    }
    inletair
    {
        type            calculated;
        value           uniform 0.000335410196625;
    }
    outlet
    {
        type            calculated;
        value           nonuniform 0();
    }
    axis
    {
        type            empty;
    }
    leftside
    {
        type            nutkWallFunction;
        Cmu             0.09;
        kappa           0.41;
        E               9.8;
        value           nonuniform List<scalar> 
33
(
0
0
4.3127185579e-06
4.5309668485e-06
4.71466142047e-06
0
0
0
0
0
0
0
0
0
0
0
0
0
0
0
0
0
0
4.44992651766e-07
1.31230786518e-06
2.14069591166e-06
2.99909439823e-06
3.97120615651e-06
5.05571177247e-06
6.25196949591e-06
7.49706732595e-06
8.71665217672e-06
9.84569170354e-06
)
;
    }
    burnerwall
    {
        type            nutkWallFunction;
        Cmu             0.09;
        kappa           0.41;
        E               9.8;
        value           uniform 0;
    }
    front
    {
        type            wedge;
    }
    back
    {
        type            wedge;
    }
    procBoundary0to1
    {
        type            processor;
        value           nonuniform List<scalar> 
27
(
0.000756241496661
0.000756534539763
0.000756989904099
0.000757446106535
0.000385488368038
0.000311258504945
0.000265793122471
0.000300584716927
0.000336153868279
0.000472978179192
0.00109943219589
0.000758238840038
0.000754755361623
0.000741351243719
0.000715549058257
0.00067879409448
0.000635561199499
0.000590550539589
0.000547115851405
0.000506911833182
0.000470202056208
0.000434840844728
0.00039783660358
0.000385488368038
0.000357753815095
0.000454569253558
0.000140899658961
)
;
    }
}


// ************************************************************************* //
