/*--------------------------------*- C++ -*----------------------------------*\
  =========                 |
  \\      /  F ield         | OpenFOAM: The Open Source CFD Toolbox
   \\    /   O peration     | Website:  https://openfoam.org
    \\  /    A nd           | Version:  7
     \\/     M anipulation  |
\*---------------------------------------------------------------------------*/
FoamFile
{
    version     2.0;
    format      ascii;
    class       volScalarField;
    location    "0.03";
    object      O2;
}
// * * * * * * * * * * * * * * * * * * * * * * * * * * * * * * * * * * * * * //

dimensions      [0 0 0 0 0 0 0];

internalField   nonuniform List<scalar> 
814
(
9.53432598152e-10
6.78660345005e-10
1.06015485156e-10
1.19884989137e-07
1.20273181961e-07
5.59819799619e-08
7.57474558262e-06
1.32372475689e-05
2.95530995101e-05
0.000283322485544
0.000977099407725
0.00962598339975
0.000463286471471
0.00116953485378
0.00553808774982
0.00051835907153
0.00100286153396
0.00288898746422
0.000474046548772
0.000729315196444
0.00143294799575
0.000379605413686
0.000480798457199
0.000698209076596
0.000275285045862
0.000297943686486
0.000342173939343
0.000184236939056
0.000177540945403
0.000173316007797
0.000115367739688
0.000103740915884
9.39564146032e-05
6.89624986812e-05
6.13554115736e-05
5.76645410754e-05
4.13951942986e-05
3.91393111826e-05
4.29006969816e-05
2.76170128274e-05
2.93526839997e-05
3.88175024147e-05
2.27123138154e-05
2.67466327907e-05
3.95448428089e-05
2.24910648894e-05
2.75052477721e-05
4.14850065581e-05
2.42997526259e-05
2.95801406393e-05
4.35619590969e-05
2.692002374e-05
3.2189697538e-05
4.56564263442e-05
2.84316145739e-05
3.34401104835e-05
4.59357647653e-05
2.76406749438e-05
3.2285712256e-05
4.38304231168e-05
2.52933584796e-05
2.95175364055e-05
3.99790087029e-05
2.19322684903e-05
2.5434406661e-05
3.39798066073e-05
1.81303302947e-05
2.07645339236e-05
2.70551466307e-05
1.4377106478e-05
1.61702998135e-05
2.03661624189e-05
1.3140428298e-05
1.46738121372e-05
1.82905119887e-05
6.15767565545e-05
6.87271412005e-05
8.57679782592e-05
0.000980610934727
0.00103894954577
0.00117164657662
0.0127926913445
0.0131500723593
0.0139834527125
0.0668571401885
0.0671961927057
0.0681213122254
0.158597724666
0.159003245645
0.159912628484
0.193412620078
0.19353825203
0.193778647962
0.202589283275
0.202601614315
0.20262511568
0.0794843195486
0.0240926102055
0.00762047644825
0.00255893830961
0.00093195775127
0.000376838088736
0.00017717680199
0.000100150141966
7.11748122918e-05
6.38214417895e-05
6.51316306601e-05
6.83389221962e-05
7.00435075839e-05
7.05501687674e-05
7.02167986555e-05
6.78526697107e-05
6.39578474078e-05
5.80808018258e-05
4.8373624806e-05
3.72764698793e-05
2.69484317735e-05
2.40750072274e-05
0.000113517286225
0.00137215050697
0.0152058516122
0.0695263878715
0.161138277954
0.194088573729
0.202652620293
0.231988720819
0.231990511902
0.231993951425
0.23199660132
0.231998263702
0.231999167083
0.231999613889
0.231999807999
0.231999882334
0.231999907662
0.231999915398
0.231999917533
0.231999918149
0.231999918572
0.231999919236
0.231999920114
0.231999921448
0.231999923575
0.231999932172
0.231999968494
0.230211921735
0.231241348973
0.231774450376
0.231911395693
0.231967850777
0.231988127021
0.231995764191
0.231998491815
0.231999391702
0.231999660974
0.231999734207
0.231999753131
0.231999758137
0.231999760147
0.231999762402
0.231999764478
0.231999768884
0.231999773557
0.231999789972
0.231999790092
0.21490087312
0.215545941328
0.227012240528
0.230769185673
0.231690557722
0.231903622943
0.231972324555
0.231991914633
0.23199756526
0.231999079026
0.231999447256
0.231999532214
0.231999551908
0.231999557744
0.231999562645
0.231999566293
0.231999575633
0.231999579943
0.231999513836
0.231995727574
0.120149557758
0.0947820528141
0.172684089308
0.216045179263
0.227587623627
0.231009113214
0.23182193928
0.231956976426
0.231989323398
0.231997014428
0.231998720516
0.231999082805
0.231999160283
0.231999178966
0.231999189158
0.231999194752
0.231999212545
0.231999204278
0.231998336976
0.231876755121
0.0324620220419
0.0132408264893
0.04062777878
0.13053171888
0.207213027119
0.225351419036
0.230443867216
0.231793180326
0.231955735499
0.231989633101
0.23199664786
0.231998075292
0.231998373201
0.231998440112
0.231998464613
0.231998473635
0.231998506798
0.231998471123
0.231996857067
0.231883882852
0.00841771337573
0.00202696681555
0.00898557956559
0.0735095102396
0.189627282914
0.220847161054
0.229074750419
0.231427233577
0.231878675278
0.231970553994
0.23199114719
0.231995724841
0.231996748851
0.231996986307
0.231997054674
0.231997071552
0.231997131117
0.231997050991
0.231994404573
0.231872243911
0.00233444274219
0.00140325142563
0.00836991975681
0.100965885986
0.192942439209
0.220211733259
0.22832390732
0.230976055197
0.231766785701
0.231930146203
0.231977795264
0.231990171159
0.231993307101
0.231994101693
0.231994310797
0.231994350423
0.231994451576
0.231994312581
0.231990502793
0.231845653129
0.00077883448515
0.00151306649572
0.0105502566214
0.115607308295
0.1955007889
0.219438371491
0.227423337709
0.230434026316
0.231503289785
0.231843646497
0.231946695538
0.231976956519
0.231985805462
0.23198831078
0.231988970704
0.231989085639
0.231989244736
0.23198902803
0.231984159605
0.231816863871
0.000365241714389
0.00150899703595
0.0110200042543
0.106711544067
0.191802848811
0.217027438256
0.225972982356
0.229639371634
0.231103204666
0.231685005019
0.231881693488
0.231945586295
0.231968983222
0.231976503726
0.2319785765
0.231978950232
0.231979177976
0.231978838501
0.231972983752
0.231783840839
0.000234736876124
0.00133918278173
0.0100353452127
0.0890205193127
0.183699303723
0.21296407545
0.223816619068
0.228459686914
0.230452238649
0.231346852165
0.231739711378
0.231873255556
0.231930588484
0.231952022571
0.231958372146
0.231959621581
0.231959923888
0.231959359434
0.231952247886
0.231735672956
0.000173461962122
0.00104893186843
0.00816188294965
0.0732592992754
0.17512139145
0.208191836064
0.220920535281
0.226630102673
0.229351947084
0.230683221018
0.231362094722
0.231707556407
0.231846537899
0.231900897421
0.231919315876
0.231923394969
0.231923856409
0.231922891785
0.231913574405
0.231658633708
0.000153483544071
0.000886805939673
0.00718958747648
0.0697221531128
0.168923156025
0.202152048681
0.216268294644
0.223355045134
0.227239954202
0.229408849278
0.23063082921
0.231301356133
0.231656855539
0.231799646294
0.23184512807
0.231857433441
0.231858632713
0.231857111015
0.231843512155
0.231536551194
0.000158744122827
0.000897290762611
0.00698759936812
0.0696561232322
0.160267842874
0.191575247494
0.207599568208
0.217103940537
0.223154468908
0.226924101149
0.229220187575
0.230544411831
0.231240718666
0.231589041335
0.231710098159
0.231742559943
0.231746562925
0.231744692545
0.231723308618
0.231349811959
0.000168806888518
0.000902980084283
0.00652686012141
0.0579102577615
0.13728676801
0.170412612911
0.191459327852
0.205971552984
0.216059753419
0.22259651177
0.226710104555
0.22915537836
0.230512306925
0.231185756303
0.231466817681
0.231552386288
0.231565848122
0.231564947221
0.231531166906
0.231076852887
0.000172404595276
0.000823026476084
0.00483697885096
0.0290680076537
0.0959319897804
0.13634351676
0.166159783972
0.188723753012
0.204988699971
0.215850667171
0.222742275409
0.226892673262
0.229272669416
0.230513121652
0.231063441277
0.231254464081
0.231293672946
0.231297613092
0.231246861562
0.230697931391
0.000167528864161
0.000696849477235
0.00323124267046
0.0140465464108
0.0500060832514
0.0958839206173
0.135192096849
0.166632983692
0.190124966809
0.206493169636
0.217089568676
0.223579273104
0.227385953977
0.229456771365
0.230437823758
0.230816309135
0.230910860146
0.23092781383
0.230857256406
0.230199780735
0.000158119798164
0.000566587586598
0.00213834563906
0.00731335918401
0.0212410728535
0.0610292359743
0.105393810847
0.142805353726
0.172495003883
0.194502768117
0.20943382733
0.218948657451
0.224681216086
0.227904863025
0.229519087127
0.230200824859
0.230403060909
0.230450382408
0.230360787179
0.229577788471
0.000144789908975
0.000459821774099
0.00156168418393
0.00497490261103
0.0140451404014
0.0365225590987
0.0786540750445
0.117854071276
0.150941725007
0.178059984439
0.19813887447
0.211950541664
0.220619341042
0.225596616555
0.228187298399
0.229360060432
0.229761239509
0.229871411296
0.22976890968
0.228838239282
0.000131602368655
0.000401839600111
0.00132678377036
0.00407101848067
0.0110798379854
0.0266486484993
0.0567417930548
0.0900087890386
0.121101692702
0.152298495889
0.178550463404
0.199296072108
0.213401438133
0.221748340502
0.226123802009
0.228181796965
0.228965426112
0.229205856539
0.229107029085
0.227997906816
0.000122154752293
0.000366833979872
0.00114505457979
0.00330253262863
0.00841265783057
0.0185200750571
0.0345630929261
0.0588715242337
0.0838685027858
0.110724603142
0.143838614252
0.174373673195
0.198795746167
0.214344917126
0.222480766843
0.226370137357
0.227939401135
0.22846257258
0.228405190492
0.227079658988
0.000108962190468
0.000309467112275
0.000888336978042
0.00234815933559
0.00549967507829
0.0110798553188
0.0188025456128
0.028088928387
0.0403455918467
0.0598085224092
0.0913766999195
0.130043148011
0.168684940061
0.198564950789
0.215268864037
0.223204559812
0.226473555093
0.227616576852
0.227688478258
0.226102394613
8.72780444752e-05
0.000226902428666
0.000585871619044
0.00139911004273
0.00298413536373
0.00547814042101
0.00847726918843
0.0116844477007
0.0156881878932
0.0224291524621
0.0386921043251
0.0733191643329
0.119677252198
0.167379194672
0.200747114092
0.217235136324
0.224096541275
0.226565292073
0.226965600103
0.225082444543
6.36935202798e-05
0.000149399266759
0.00034512356118
0.000743088745071
0.001447887487
0.00247826802066
0.00376567582844
0.00548941593779
0.00811947271671
0.0120997978654
0.0188900502265
0.0342117029068
0.0712170266104
0.122136894195
0.174631329513
0.206371681486
0.220119466399
0.225134155131
0.226225095216
0.223975780107
4.34540569123e-05
9.3195083014e-05
0.000200360246505
0.000419545679855
0.000854840316803
0.00172450569005
0.00356736191634
0.00639176707774
0.0104061700875
0.0158967499797
0.0231482392839
0.0328587499785
0.0544043120197
0.0892485344939
0.14212979233
0.190583582077
0.214308215181
0.223257584606
0.225457772543
0.222775309571
3.92549368658e-05
9.10616559475e-05
0.000231341412049
0.000618719128927
0.00164920953922
0.00407709742591
0.00792322671971
0.013332204661
0.0205526417701
0.030186582672
0.0428814749852
0.0592850215345
0.0720584623342
0.0861144519912
0.119935187662
0.173382256368
0.20783893906
0.22135531643
0.22473614
0.221469967011
0.000187620685592
0.000434109885518
0.0010571760021
0.00253596703639
0.00596826467178
0.0112115945306
0.0184188475637
0.0278634718808
0.0400621727654
0.0569243501303
0.0802702287518
0.0978047863703
0.104498093531
0.105463121321
0.118776762567
0.162899023568
0.203813433114
0.22026958264
0.22418569959
0.220029754511
0.00186811253096
0.00321020074223
0.00614125003931
0.0115452257698
0.0189257892493
0.0283420150416
0.040519402624
0.055960266736
0.0750852789378
0.10418634042
0.124937931828
0.134164175061
0.133131502316
0.127253698555
0.130922702579
0.164736840712
0.204529677381
0.220606284463
0.223837746098
0.218417172838
0.0181171557843
0.0240703733779
0.0319431461243
0.0413147331396
0.053461371526
0.0669593428674
0.0847582891036
0.110997084316
0.135334242825
0.151486849616
0.158857182981
0.158574683575
0.152181118723
0.14421748711
0.145965103486
0.17510806594
0.209687211025
0.221851661944
0.223300672456
0.216844036166
0.0730804187522
0.0818557738706
0.0940408942485
0.108184956817
0.124495984546
0.141206404819
0.156328023501
0.16790191361
0.174920142531
0.17737154839
0.1758846491
0.171194773753
0.164421600956
0.159386451805
0.166975899438
0.193279712332
0.214661729525
0.222452121978
0.222557523832
0.21548297513
0.163875495781
0.167963123722
0.172761220621
0.177774427396
0.18237700475
0.186186807963
0.188826868514
0.189781321676
0.189001004519
0.186768536648
0.183563554906
0.179727504291
0.176071886393
0.176556530458
0.186972461315
0.204974840085
0.218130396092
0.222738332907
0.221697777779
0.214351255877
0.194741056737
0.195768422181
0.196866304004
0.197735264463
0.19808122061
0.197815059948
0.196984361311
0.195676838195
0.193970175805
0.192024387975
0.190106144789
0.188648784667
0.188303743047
0.191425738707
0.200447436218
0.212597903067
0.220397300058
0.222785329271
0.220784271466
0.2134336292
0.202697251367
0.202704686602
0.202600072713
0.202322007064
0.201826156397
0.201106057712
0.200197675359
0.19917057032
0.198129371479
0.197264615923
0.196842656086
0.197168880472
0.198645092995
0.227900698053
0.22748988174
0.229374553648
0.228503320518
0.230190099372
0.22922675348
0.230468783907
0.229457182026
0.230525285821
0.229454701611
0.230437812611
0.229303509091
0.230231763631
0.229026334316
0.22990921958
0.228629731698
0.229464000415
0.228109694675
0.228885272283
0.227455443997
0.228165026154
0.226656860359
0.227293266881
0.225699259589
0.226257134381
0.224558720355
0.225032328184
0.223194140029
0.223569168653
0.221533483539
0.221776690949
0.219463513975
0.219567326904
0.216879233451
0.216965072949
0.213771173885
0.214267219818
0.210073887249
0.211468650312
0.206435524724
0.208552189118
0.203227826759
0.205865101301
0.200619313873
0.203612185766
0.198777581232
0.202390803671
0.198050390923
0.20218438153
0.198355515644
0.202767131333
0.199385366319
0.203744364173
0.200725755473
0.204741811158
0.202009852539
)
;

boundaryField
{
    inletfuel
    {
        type            fixedValue;
        value           uniform 0;
    }
    inletair
    {
        type            fixedValue;
        value           uniform 0.232;
    }
    outlet
    {
        type            zeroGradient;
    }
    axis
    {
        type            empty;
    }
    leftside
    {
        type            zeroGradient;
    }
    burnerwall
    {
        type            zeroGradient;
    }
    front
    {
        type            wedge;
    }
    back
    {
        type            wedge;
    }
    procBoundary0to1
    {
        type            processor;
        value           nonuniform List<scalar> 
27
(
0.204869387253
0.20486737209
0.204862018588
0.204853367261
0.2024447438
0.209325614966
0.217272955859
0.221768984905
0.222617862866
0.219875482066
0.212678870114
0.204827911251
0.204745868843
0.204585571999
0.204320486854
0.203939097397
0.203463023098
0.202952491449
0.2024943498
0.202198335922
0.202233812813
0.202819458043
0.204169892224
0.2024447438
0.206459575586
0.205494753398
0.20301097111
)
;
    }
}


// ************************************************************************* //
