/*--------------------------------*- C++ -*----------------------------------*\
  =========                 |
  \\      /  F ield         | OpenFOAM: The Open Source CFD Toolbox
   \\    /   O peration     | Website:  https://openfoam.org
    \\  /    A nd           | Version:  7
     \\/     M anipulation  |
\*---------------------------------------------------------------------------*/
FoamFile
{
    version     2.0;
    format      ascii;
    class       volScalarField;
    location    "0.03";
    object      one_over_tauStar;
}
// * * * * * * * * * * * * * * * * * * * * * * * * * * * * * * * * * * * * * //

dimensions      [0 0 -1 0 0 0 0];

internalField   nonuniform List<scalar> 
814
(
797.889703267
1138.32878905
5045.06111349
983.886212074
1350.09854785
5051.64325893
1087.5473533
1520.53670203
5054.85463786
1307.82221694
2136.57724712
6845.72560174
1560.67397512
2701.00754583
6770.97448597
1866.36331843
3189.21793107
6232.83477107
2182.57984229
3507.94449244
5637.2634801
2455.31441132
3637.30670123
5052.1044644
2646.09691272
3612.09497519
4507.36579985
2734.51176695
3470.28227718
4015.74129084
2722.87617908
3251.90629291
3586.53345096
2632.6303817
2996.38775313
3215.90468667
2492.69073757
2734.33916402
2890.15751299
2326.50119365
2482.46593696
2595.89523526
2142.90557965
2240.15518707
2317.86898868
1933.05210911
1989.1988466
2031.72412667
1676.24403572
1701.65688185
1708.60684892
1365.31090044
1369.22303197
1351.02579374
1070.31951075
1068.79399997
1053.12053096
889.455224267
891.991250086
890.551763969
802.568165557
807.836583682
812.954126736
752.244401926
757.768615274
763.656311225
710.196807873
714.995114831
719.837792362
667.775239869
671.478410605
674.953003072
622.380278377
624.954970862
627.141400953
576.994812862
578.840954965
580.70625545
576.199196769
579.287674228
584.923546139
622.705829097
623.413732362
623.516699798
455.804752483
453.677227376
448.591008462
243.454078358
241.877246583
238.553396152
115.588826037
115.052486496
114.16493333
80.332084433
80.3996686979
80.5438375627
417.643802461
5187.38884981
5326.98325761
5031.37471654
4613.99355099
4178.68499473
3773.84924935
3420.16530218
3112.14306215
2831.8324331
2565.44235286
2297.46791107
2003.59416608
1660.56484669
1294.08159791
1017.58006208
877.712465487
808.166008592
760.258599917
716.101585464
671.214185959
624.109212501
579.408904938
591.078040779
621.857326111
441.912322833
234.062648891
112.967864453
80.7143619594
53.9343594777
21.2736544075
17.1780953235
15.5133368759
13.9080325704
12.3201807617
10.769260824
9.46486489635
8.37116184053
7.50119889552
6.77342627429
6.17437361498
5.65819959034
5.23697919549
4.87295735886
4.60911601881
4.3918734407
4.26561465987
4.3524753595
14.7469603276
61.4306642269
61.9487232826
39.3629105679
27.0594174204
20.2966071221
15.9815108286
12.9499004743
10.7645816704
9.18947047093
8.04605582837
7.17174245875
6.47364520876
5.89053067409
5.41068947487
5.00856136086
4.70227249749
4.4691464472
4.32611844757
4.55759110786
14.9549857495
138.295649564
369.09388578
161.394191761
62.5047880361
35.9426386939
23.5169600563
16.4273201345
12.3875647301
10.0227049002
8.53947343844
7.5061798216
6.71704875078
6.07429123487
5.54875711905
5.11411550935
4.77987982073
4.53015748355
4.379813003
4.69919683479
15.1308982535
781.712656013
878.16160305
748.955799766
325.871714645
115.836687228
47.4258058342
25.5372507767
15.874871159
11.4303903503
9.24479683519
7.94898563455
7.0319740171
6.30890184816
5.72745431991
5.2504406392
4.8863902336
4.61286114051
4.45909681641
4.84279245772
17.6715586348
2376.51252368
1378.71201739
1118.53158025
922.698506251
451.446193575
158.137513797
56.3160009687
24.468907256
14.0014603227
10.2251954737
8.48418406207
7.39468727088
6.57520932579
5.93084927272
5.40713351099
5.01303653206
4.7151263392
4.56131060079
4.99566117462
19.2620400736
2880.27887961
1556.74455504
1184.22410398
1039.46767412
730.053348803
260.985356338
82.4293169726
32.0755575673
16.7687636449
11.4375575523
9.14890393405
7.83575964957
6.89769060191
6.17807479774
5.6017434124
5.17418022954
4.85210846219
4.69358243351
5.21059414148
21.1013855078
2898.5756119
1664.78758746
1207.43748077
1006.575375
700.137634595
255.753438881
85.8707911911
35.8242112378
19.3357747008
12.8850966682
9.99325420231
8.39708107086
7.30824543228
6.49556635775
5.85843593265
5.39347876719
5.04712443952
4.87897105411
5.49296048428
22.5444478694
2891.45548267
1762.95446613
1248.09951947
989.059771376
657.672614335
246.987358661
89.033317432
39.9881017624
22.2432672055
14.6353306515
11.0772346824
9.13707204245
7.8552665721
6.92593422015
6.21781723445
5.71308990318
5.34293759987
5.16727938172
5.85739508309
23.4996739245
2871.76859825
1835.05533751
1286.43484879
994.765818574
674.37122116
265.706401598
97.862251502
45.1405322244
25.5149063346
16.7393080655
12.494738405
10.1427176975
8.61321073158
7.53456950374
6.74258591553
6.19784462698
5.80694188682
5.63107940524
6.3726505364
24.1209492523
2814.53538711
1877.08009591
1317.61826595
1005.6408013
715.39918471
305.05289197
111.099137542
51.0087994618
29.2635588881
19.3824274486
14.4185621559
11.5632806385
9.69900837199
8.42350982567
7.53125649102
6.94884465642
6.54578973644
6.37978830031
7.15989761808
24.6201651042
2717.09633934
1902.78271112
1341.30947307
1015.53606599
731.621879456
325.643804377
119.519237402
56.9077821711
34.0265909383
23.1115584881
17.190351354
13.6324429426
11.2936373111
9.74211648408
8.7271138702
8.11437451881
7.71732736311
7.57496723774
8.3968624416
25.1449885284
2583.82402875
1895.05576654
1356.20098965
1011.93746772
679.205496515
284.592799772
117.69424075
65.0690536192
41.8353727728
29.1029179058
21.5212176254
16.7490015351
13.6503245736
11.6913822919
10.516252154
9.88309130027
9.52126479525
9.41847940341
10.3044643419
25.7895993118
2423.21505659
1836.38560463
1373.2830186
1002.45968484
548.553727898
217.289447994
118.897568225
80.1617706053
55.9261294401
39.4778711724
28.6024280185
21.59104752
17.1394189238
14.4987790638
13.086038028
12.4327357083
12.1358820516
12.0801140754
13.0481007768
26.6005982372
2234.85523534
1728.41775385
1322.04961068
919.808405829
405.587794796
191.261323867
130.214035958
99.0861883749
75.1697682442
55.1690410453
39.6904492339
29.008747239
22.2227527614
18.3740649006
16.52843871
15.8039327622
15.5717513148
15.5428055945
16.5381603616
27.5589112265
2007.39700234
1556.6984949
1171.81911717
734.670463942
321.158143342
189.995002035
139.598969886
111.896943528
91.4365466423
72.3149005026
54.220297006
39.4559329896
29.2538732067
23.3905798738
20.7044906359
19.7446850237
19.5021926526
19.4423145926
20.2962521438
28.6017336217
1723.75185706
1304.50512072
917.57384911
517.062501113
283.050877159
188.520474358
140.588117216
115.804749082
99.5278412353
84.6410531614
68.4636603876
51.894958355
38.0928498467
29.3422349135
25.2158578817
23.7130517734
23.3064167929
23.1391454135
23.6637423975
29.6757911622
1387.32323312
1012.68851157
680.282999858
410.73566588
268.61902183
182.900051866
135.63606383
114.275629596
102.452262761
92.1220231834
80.087344486
64.8765342282
48.508111322
36.0660833318
29.6553537993
27.1972823906
26.438260349
26.0988257236
26.2329856259
30.7762816127
1082.88581155
816.07531937
576.341483039
381.773121526
260.573760775
177.531598029
131.305432565
113.151306838
105.606928817
99.6314669335
91.7365811219
79.5150777952
62.1882094202
44.8945690816
34.4423073397
30.162870998
28.7682637872
28.1950342821
28.011050104
31.9787184305
907.374217502
731.527327126
537.80434471
373.245232917
258.922393072
176.050108004
131.58743335
116.256220446
112.068527058
110.208541953
105.89097827
96.6967524549
81.4046650058
59.8377605559
41.9755486569
33.5057051755
30.6446496448
29.6417768496
29.2253653672
33.4365767062
825.301281366
689.950014768
519.245487869
370.362441697
260.42446905
179.684642089
137.537126669
124.649461246
122.620499022
123.012938897
121.546521135
114.737638332
102.546944419
82.4169903167
57.1108314645
39.637375063
32.9194033393
30.8127159148
30.1322599864
35.3373559296
774.502627458
656.936735691
503.915705958
368.907547136
264.142854695
188.04762459
150.576961399
140.448640017
139.026793325
139.011627757
137.626798506
132.676742694
122.396384315
106.135690196
81.3980442292
53.0599623348
37.409396224
32.2604168945
30.9563568959
37.8032530886
731.718222353
626.854210735
492.066187444
370.762097136
273.194425408
205.020972598
174.669425342
167.177885515
164.128989179
159.422046312
154.043664923
148.914705201
140.572339974
126.643980166
106.161615128
76.2273027202
47.524949879
35.0060142693
31.9528006808
40.9571619424
690.054589985
597.813788144
481.568805936
374.685018485
289.072141588
236.508772982
217.479068346
208.914093937
197.688170243
183.698157477
170.686900156
161.333417354
154.313585805
143.665128931
125.760908556
100.845735081
65.6040416661
40.685743985
33.434863041
45.1262787832
648.568493407
570.318195065
472.808373626
384.289139878
321.780189128
293.517237362
277.515796382
257.208379776
234.099601849
209.761370649
186.001035053
167.40659722
158.92444792
153.605639796
139.991113759
118.422333181
86.1300907599
49.9842609509
35.6687048546
50.5862217138
606.964533825
547.185114576
474.121089314
415.125469936
383.656435652
362.408668931
332.187309935
298.865303603
264.725114662
230.450677704
196.109289196
165.583069974
149.902642772
150.889217464
147.212550822
129.10070767
101.073284725
59.5922533078
38.2372054607
57.6353904908
569.746981631
536.566532965
504.604291855
483.471431005
456.264271713
413.996310453
368.965545653
325.333021744
282.291674938
238.402291038
194.771360156
155.989523512
133.271022583
135.581003496
143.578401235
131.893698212
106.449244879
63.9032024296
40.2561911125
66.6959361022
600.206592467
600.485886853
581.972252542
541.670207582
486.222375133
429.456538961
376.349869896
325.615699483
273.229025213
218.897737879
168.500282094
132.229244592
116.517085272
122.631757276
135.472617989
128.40024484
103.077661249
60.1510483942
41.7472183336
77.324764228
609.758573114
574.241722162
526.04083932
475.714090424
424.741346621
375.568957621
326.126806968
272.504787493
213.607442978
160.418060201
123.876060225
106.579735788
104.667713558
116.024283019
129.015677381
120.480930478
91.0094402747
51.4412791775
47.3684596769
87.7458141476
423.790526754
396.955945301
366.065028716
332.277995634
295.553565897
253.766607497
207.3544475
161.32527904
125.103145648
104.318011337
96.5277878638
96.3683183325
101.546487144
113.415577094
122.626032656
108.541324832
76.5525122523
47.3368666131
55.8312529712
96.0765198894
222.556209673
205.520416103
185.466501211
163.546212442
141.287901413
120.478206269
103.827472326
93.5016429747
89.2583965443
89.0947716013
91.2456836067
94.8981741501
101.302218095
110.074359172
113.268729678
95.4211134423
63.5586962008
47.0690033832
65.0567744739
101.877376942
110.146529072
105.067198149
98.5324720471
91.7299726056
86.4695302634
83.662459915
82.9891578434
83.6775914648
85.1895307389
87.3813283076
90.2677389496
93.802974254
98.5340205224
103.465566699
101.849055047
79.9257101274
54.1036189067
49.9005362928
72.9258065299
105.341842997
80.9904245628
81.1216457402
80.9352284893
80.6229036715
80.5061648308
80.8170128415
81.6270777348
82.8320308584
84.2721818258
86.0272067831
88.1885675324
90.6148423933
93.1798344086
26.7577405702
53.799539739
67.7776319675
53.7583420872
71.2686423412
53.7271375291
69.4580484789
53.7175765599
65.6417936527
53.7188690244
61.5349703597
53.7264670834
57.6787160867
53.7389041959
54.3661585999
53.7562123158
51.7393144155
53.778504844
49.8321401744
53.8061967625
48.6016019111
53.8397042676
48.0146388471
53.8796227455
48.0795374738
53.9269120686
48.9350599647
53.9833330993
51.016958268
54.0519380899
55.4845019146
54.1376152633
63.7450341087
54.2456822824
77.0467178859
54.3759213724
106.021175781
238.824550736
127.836956961
256.304281317
141.8831733
273.103508197
154.869805565
290.529769923
168.336986106
310.235414419
179.027976026
332.195189191
186.614133781
356.475974076
190.211759316
381.89863905
191.1279175
407.009452273
190.256691133
430.474139631
)
;

boundaryField
{
    inletfuel
    {
        type            calculated;
        value           uniform 120.747670785;
    }
    inletair
    {
        type            calculated;
        value           uniform 4.0249223595;
    }
    outlet
    {
        type            calculated;
        value           nonuniform 0();
    }
    axis
    {
        type            empty;
    }
    leftside
    {
        type            calculated;
        value           nonuniform List<scalar> 
33
(
26.7577405702
53.799539739
14.7469603276
14.9549857495
15.1308982535
53.799539739
53.7583420872
53.7271375291
53.7175765599
53.7188690244
53.7264670834
53.7389041959
53.7562123158
53.778504844
53.8061967625
53.8397042676
53.8796227455
53.9269120686
53.9833330993
54.0519380899
54.1376152633
54.2456822824
54.3759213724
238.824550736
256.304281317
273.103508197
290.529769923
310.235414419
332.195189191
356.475974076
381.89863905
407.009452273
430.474139631
)
;
    }
    burnerwall
    {
        type            calculated;
        value           nonuniform List<scalar> 7(5045.06111349 5051.64325893 5054.85463786 53.9343594777 61.4306642269 138.295649564 417.643802461);
    }
    front
    {
        type            wedge;
    }
    back
    {
        type            wedge;
    }
    procBoundary0to1
    {
        type            processor;
        value           nonuniform List<scalar> 
27
(
73.5036803015
73.7760749886
74.3283799788
75.0299224987
94.2532401736
87.407706634
65.1735308085
48.996996372
54.5531981584
78.4633547325
106.862312106
76.3407356433
77.9813302401
79.0804072755
79.6691230977
80.0270398938
80.4440413855
81.0566337512
81.8403317976
82.674032652
83.6477037036
84.7876161688
85.7265658083
94.2532401736
85.621306452
188.90747958
451.30210936
)
;
    }
}


// ************************************************************************* //
