/*--------------------------------*- C++ -*----------------------------------*\
  =========                 |
  \\      /  F ield         | OpenFOAM: The Open Source CFD Toolbox
   \\    /   O peration     | Website:  https://openfoam.org
    \\  /    A nd           | Version:  7
     \\/     M anipulation  |
\*---------------------------------------------------------------------------*/
FoamFile
{
    version     2.0;
    format      ascii;
    class       volScalarField;
    location    "0.03";
    object      p;
}
// * * * * * * * * * * * * * * * * * * * * * * * * * * * * * * * * * * * * * //

dimensions      [1 -1 -2 0 0 0 0];

internalField   nonuniform List<scalar> 
814
(
102845.669769
102836.692228
102853.50611
102828.904599
102824.288218
102827.491004
102810.990657
102808.270158
102811.556413
102807.364327
102805.617165
102810.764362
102815.042611
102813.69197
102812.223537
102808.929401
102808.438958
102808.739164
102808.828397
102808.748033
102809.028164
102810.198823
102810.047641
102809.966213
102810.766605
102810.647891
102810.439452
102811.09619
102810.987102
102810.696363
102811.447893
102811.283828
102810.984601
102812.114791
102811.875306
102811.634717
102813.107347
102812.832847
102812.652983
102814.45798
102814.214854
102814.07645
102815.863529
102815.687054
102815.587716
102817.710593
102817.588366
102817.552525
102818.922679
102818.850199
102818.835704
102819.136396
102819.094081
102819.083453
102818.709612
102818.696679
102818.685084
102818.110482
102818.108792
102818.101889
102817.509422
102817.510026
102817.508816
102816.77765
102816.781323
102816.77357
102815.911242
102815.91284
102815.911722
102814.887294
102814.880649
102814.872652
102813.922834
102813.912976
102813.894658
102813.335535
102813.299904
102813.268902
102814.187713
102814.091931
102814.054506
102816.275103
102816.18496
102816.116515
102815.071589
102815.017527
102814.97384
102813.469059
102813.458463
102813.458047
102809.947739
102809.938471
102809.921626
102807.432282
102807.423882
102807.41498
102799.722878
102812.623729
102808.901241
102808.953852
102809.664968
102810.128979
102810.380711
102810.689926
102811.404298
102812.481639
102813.95667
102815.494667
102817.497036
102818.78747
102819.040982
102818.65626
102818.091644
102817.507188
102816.768333
102815.912502
102814.860239
102813.872382
102813.218446
102814.003546
102816.016133
102814.902517
102813.454978
102809.897406
102807.40487
102805.578752
102805.460762
102805.896133
102806.23028
102806.733455
102807.313948
102808.104762
102809.046688
102810.268708
102811.745917
102813.555266
102815.679958
102818.117835
102820.771641
102823.428244
102826.072457
102828.350328
102830.829937
102832.269904
102834.711548
102807.67497
102807.293722
102807.526799
102806.79407
102807.526748
102807.890501
102808.711357
102809.578305
102810.763482
102812.238702
102814.05291
102816.158135
102818.53536
102821.071528
102823.580332
102826.114519
102828.398504
102830.886923
102832.404193
102834.741463
102808.96413
102807.691724
102809.489484
102808.258059
102808.951423
102808.64878
102809.318565
102810.051394
102811.241958
102812.711506
102814.507072
102816.572199
102818.886988
102821.347273
102823.764982
102826.226756
102828.497258
102831.015049
102832.582147
102834.856813
102810.359439
102807.314918
102808.354717
102806.864153
102808.167913
102808.231356
102809.761012
102810.34039
102811.62799
102813.106272
102814.883779
102816.906285
102819.160773
102821.560539
102823.912912
102826.319067
102828.572321
102831.110853
102832.662319
102834.920857
102810.558186
102808.061198
102810.412604
102808.030138
102809.875263
102808.760635
102810.173132
102810.580734
102812.03846
102813.503965
102815.264789
102817.236032
102819.423643
102821.762649
102824.057639
102826.411206
102828.644787
102831.18522
102832.766852
102834.729652
102808.745505
102808.092607
102808.532882
102807.587079
102808.567846
102808.25137
102810.2006
102810.80921
102812.469128
102813.922726
102815.655185
102817.570674
102819.697344
102821.979599
102824.223674
102826.527343
102828.738019
102831.258846
102832.919264
102834.759631
102809.211098
102808.922281
102809.29064
102808.896027
102809.28981
102809.516483
102810.597711
102811.39074
102812.960188
102814.368545
102816.047037
102817.900997
102819.981376
102822.217638
102824.415441
102826.667482
102828.847172
102831.323777
102833.046922
102834.835539
102809.328843
102809.099115
102809.201385
102809.22672
102809.492016
102810.111053
102811.090203
102812.001299
102813.465173
102814.816275
102816.431117
102818.218828
102820.267407
102822.473586
102824.633536
102826.830183
102828.965767
102831.368549
102833.13567
102834.856435
102809.557331
102809.561732
102809.737195
102809.974933
102810.005325
102810.852841
102811.5722
102812.60367
102813.962865
102815.273351
102816.817251
102818.526845
102820.543442
102822.729193
102824.865055
102827.00733
102829.085245
102831.388159
102833.170071
102834.808712
102809.791559
102809.988183
102810.177447
102810.73963
102810.592525
102811.474258
102812.009789
102813.297334
102814.477071
102815.786929
102817.241891
102818.845016
102820.804352
102822.958301
102825.078705
102827.176197
102829.191688
102831.384139
102833.156026
102834.732072
102810.135477
102810.593628
102810.662449
102811.506464
102811.191519
102812.506964
102812.540396
102814.13305
102814.964525
102816.366019
102817.622489
102819.197896
102821.058211
102823.145238
102825.239591
102827.303647
102829.267384
102831.36191
102833.110826
102834.623231
102810.984533
102811.432265
102811.243767
102812.603467
102811.946463
102813.497162
102813.244704
102815.108005
102815.504672
102816.943798
102818.080096
102819.586586
102821.352017
102823.313909
102825.34593
102827.367112
102829.297642
102831.322853
102833.030451
102834.465305
102812.21502
102812.668429
102812.2946
102813.783999
102812.91731
102814.883917
102814.248621
102815.840641
102816.211983
102817.477138
102818.464613
102819.994667
102821.609831
102823.477331
102825.400821
102827.362554
102829.265998
102831.245841
102832.881069
102834.199952
102813.852524
102814.077159
102814.140419
102815.699698
102814.821045
102816.286388
102815.742952
102816.794292
102817.194348
102818.095018
102818.764156
102820.278371
102821.837146
102823.612037
102825.446181
102827.308125
102829.167629
102831.087314
102832.62085
102833.769302
102815.446513
102815.36734
102815.577838
102815.71237
102816.224309
102816.804182
102817.092691
102817.119865
102817.447426
102818.595466
102819.199641
102820.387723
102821.875317
102823.65876
102825.394255
102827.174263
102828.943653
102830.77079
102832.181203
102833.168482
102817.45333
102817.238937
102817.267674
102817.264789
102817.355353
102817.277527
102817.372263
102818.020293
102818.142327
102818.254624
102819.484879
102820.625247
102821.78871
102823.431657
102825.214464
102826.904053
102828.576388
102830.274219
102831.58402
102832.434607
102818.658692
102818.362006
102818.167126
102817.921139
102817.771921
102817.767422
102817.798332
102817.813002
102818.229516
102818.675771
102819.057159
102820.132762
102821.808575
102823.085724
102824.703348
102826.43058
102827.972952
102829.58133
102830.835332
102831.57018
102818.911988
102818.652634
102818.447264
102818.196215
102818.052428
102817.902369
102817.897558
102817.95329
102818.044018
102818.557327
102819.342553
102819.664739
102820.518282
102822.425613
102823.93737
102825.647873
102827.173178
102828.716254
102829.97263
102830.595508
102818.57192
102818.442401
102818.318981
102818.118185
102817.967394
102817.909763
102817.909431
102817.899905
102818.005619
102818.246051
102818.353227
102820.252974
102820.697921
102820.641235
102823.177165
102824.661814
102826.146414
102827.698857
102828.948498
102829.565458
102818.056917
102817.989771
102817.889382
102817.76461
102817.639169
102817.564842
102817.540649
102817.53395
102817.740432
102817.795101
102818.585654
102818.043397
102819.939855
102820.567774
102821.079818
102823.628378
102824.77983
102826.581755
102827.840147
102828.518339
102817.501349
102817.449584
102817.408872
102817.349217
102817.302775
102817.298486
102817.336963
102817.419509
102817.567451
102817.724809
102818.031189
102818.664135
102818.45412
102819.620341
102820.041431
102822.437283
102823.623054
102825.245959
102826.665807
102827.365769
102816.752676
102816.709122
102816.680607
102816.631117
102816.596905
102816.587803
102816.599723
102816.776557
102816.965349
102817.188291
102817.49971
102817.744641
102817.864309
102819.106266
102818.678734
102820.559241
102821.949872
102823.839074
102825.156512
102826.084866
102815.911687
102815.877646
102815.871237
102815.855514
102815.884147
102815.933584
102816.088902
102816.2086
102816.50865
102816.714039
102817.065176
102817.371855
102817.562404
102818.043758
102818.309596
102819.397305
102820.445213
102822.260492
102823.648715
102824.722201
102814.844051
102814.794913
102814.772713
102814.760652
102814.780143
102814.79078
102814.990255
102815.281166
102815.607518
102815.930092
102816.254554
102816.40954
102816.690404
102817.196489
102817.490514
102818.271682
102819.130657
102820.922881
102821.922721
102823.248672
102813.822625
102813.738652
102813.671526
102813.597662
102813.604596
102813.781777
102814.036742
102814.280071
102814.567188
102814.877288
102815.223089
102815.54734
102815.707557
102816.009322
102815.790961
102816.844315
102817.206103
102819.083132
102820.348462
102821.621253
102813.106451
102812.939047
102812.776605
102812.691105
102812.637701
102812.793766
102813.011741
102813.375893
102813.830655
102814.12141
102814.361499
102814.492277
102814.655275
102814.556422
102814.723931
102815.704807
102816.50109
102818.160576
102818.961179
102820.218258
102813.921871
102813.792819
102813.627333
102813.132904
102813.015811
102813.095369
102813.279501
102813.374824
102813.272181
102813.363777
102813.337915
102813.339026
102813.217451
102813.12425
102812.80731
102813.646075
102814.158857
102815.955889
102817.564339
102819.037607
102815.782859
102815.255808
102814.699373
102814.432015
102814.105916
102813.855565
102813.389737
102812.927711
102812.884061
102812.534817
102812.458489
102812.091312
102811.899959
102811.754932
102811.893934
102812.22901
102813.364611
102814.77291
102816.519658
102817.080077
102814.733653
102814.321097
102813.678288
102812.901858
102812.777727
102812.504626
102812.292899
102812.102303
102811.827733
102811.61734
102811.224206
102811.043478
102810.68916
102810.870986
102810.36117
102811.710674
102812.613618
102813.922214
102815.022721
102815.353899
102813.434555
102813.401187
102813.391303
102813.319722
102812.916612
102812.25204
102811.66689
102811.12141
102810.59815
102810.073301
102809.788757
102809.767694
102809.64995
102809.558286
102809.979998
102810.579603
102811.5567
102812.491414
102813.169398
102813.722163
102809.841887
102809.701832
102809.428389
102809.081337
102808.835918
102808.627284
102808.479111
102808.327181
102808.421649
102808.526405
102808.589005
102808.711647
102808.675642
102808.914163
102809.050129
102809.807783
102810.053041
102810.877227
102811.021952
102811.461358
102807.379534
102807.337766
102807.281656
102807.201286
102807.103402
102807.003454
102806.959323
102806.920372
102806.91244
102806.895443
102806.898772
102807.008713
102807.133669
102833.767997
102834.114986
102833.664543
102833.956237
102834.390243
102834.54855
102834.665194
102834.787575
102834.893253
102835.025729
102834.995517
102835.084775
102835.00284
102835.092037
102834.932261
102834.976777
102834.748594
102834.774703
102834.424683
102834.460045
102833.944548
102833.980157
102833.294333
102833.313323
102832.510129
102832.517952
102831.587976
102831.588256
102830.588303
102830.578588
102829.647177
102829.688476
102828.343455
102828.390951
102827.08879
102826.997087
102825.869485
102825.869694
102824.627385
102824.66146
102822.781921
102822.979891
102821.631028
102821.720959
102820.330593
102820.365678
102819.099334
102819.10035
102817.285608
102817.262042
102815.493811
102815.47185
102813.594831
102813.57651
102811.289208
102811.27067
)
;

boundaryField
{
    inletfuel
    {
        type            zeroGradient;
    }
    inletair
    {
        type            zeroGradient;
    }
    outlet
    {
        type            fixedValue;
        value           nonuniform 0();
    }
    axis
    {
        type            empty;
    }
    leftside
    {
        type            zeroGradient;
    }
    burnerwall
    {
        type            zeroGradient;
    }
    front
    {
        type            wedge;
    }
    back
    {
        type            wedge;
    }
    procBoundary0to1
    {
        type            processor;
        value           nonuniform List<scalar> 
27
(
102804.177992
102804.182047
102804.181461
102804.181126
102807.330984
102807.450221
102807.884664
102807.872915
102808.471621
102808.224386
102808.747352
102804.176457
102804.154745
102804.123321
102804.085854
102804.054022
102804.036762
102804.051283
102804.099436
102804.196431
102804.309244
102804.503316
102804.664177
102807.330984
102804.741071
102808.544954
102808.576933
)
;
    }
}


// ************************************************************************* //
