/*--------------------------------*- C++ -*----------------------------------*\
  =========                 |
  \\      /  F ield         | OpenFOAM: The Open Source CFD Toolbox
   \\    /   O peration     | Website:  https://openfoam.org
    \\  /    A nd           | Version:  7
     \\/     M anipulation  |
\*---------------------------------------------------------------------------*/
FoamFile
{
    version     2.0;
    format      ascii;
    class       volScalarField;
    location    "0.03";
    object      PaSR<psiReactionThermo>:kappa;
}
// * * * * * * * * * * * * * * * * * * * * * * * * * * * * * * * * * * * * * //

dimensions      [0 0 0 0 0 0 0];

internalField   nonuniform List<scalar> 
814
(
5.66002582269e-12
7.87953748902e-12
2.56745988437e-11
6.91969380387e-12
9.23881535814e-12
2.47022212833e-11
7.61796948268e-12
1.03397732587e-11
2.42357069992e-11
9.05583332437e-12
1.43227357482e-11
3.8012241535e-11
1.07169695328e-11
1.80233360728e-11
4.14867519186e-11
1.27243395373e-11
2.13095948504e-11
4.01086906007e-11
1.48278748785e-11
2.36158891926e-11
3.7372375452e-11
1.67168974092e-11
2.47460267495e-11
3.41724856588e-11
1.81447334697e-11
2.48494202354e-11
3.0953185475e-11
1.8936565214e-11
2.41220399805e-11
2.79064771985e-11
1.90424467679e-11
2.28018063578e-11
2.51488185384e-11
1.85578881739e-11
2.11479858374e-11
2.26902446384e-11
1.76623792289e-11
1.9378319653e-11
2.04636093753e-11
1.6522065593e-11
1.76200566381e-11
1.83935961947e-11
1.51983939882e-11
1.58699969444e-11
1.63738294768e-11
1.36142643364e-11
1.39824810545e-11
1.42145969789e-11
1.16162668222e-11
1.17561432946e-11
1.17178271437e-11
9.24700688418e-12
9.23874911235e-12
9.03782892094e-12
7.14237695344e-12
7.10900278687e-12
6.95397362842e-12
5.91665557136e-12
5.9173396173e-12
5.86963527675e-12
5.34069020237e-12
5.36166141608e-12
5.36328842015e-12
5.00943598494e-12
5.03496933806e-12
5.04774092092e-12
4.73622198623e-12
4.75936657315e-12
4.77178922404e-12
4.46114857794e-12
4.48055615602e-12
4.49117656408e-12
4.17404130819e-12
4.18805969011e-12
4.19656040748e-12
3.8984938592e-12
3.9111871037e-12
3.92321425984e-12
3.97345564581e-12
3.99507383898e-12
4.03556803558e-12
4.27832432997e-12
4.28089925115e-12
4.27515442091e-12
2.7071303029e-12
2.68989264978e-12
2.65083260239e-12
1.42931411533e-12
1.42260643672e-12
1.40794833092e-12
7.77312698178e-13
7.74433550928e-13
7.69806371977e-13
5.63864555228e-13
5.64467755714e-13
5.65727219799e-13
2.89279453038e-12
3.08262126609e-11
3.34995791968e-11
3.2776531157e-11
3.0836939692e-11
2.84858954229e-11
2.61114087063e-11
2.39106536549e-11
2.18989599151e-11
1.99904654215e-11
1.81086083268e-11
1.61423177842e-11
1.39014106303e-11
1.12492458185e-11
8.54234890943e-12
6.6441261609e-12
5.72725054121e-12
5.28291734265e-12
4.98675502736e-12
4.71888504907e-12
4.4487223554e-12
4.16775356237e-12
3.91395451777e-12
4.07955763269e-12
4.25434092256e-12
2.59903376488e-12
1.38804074759e-12
7.63444141181e-13
5.6724152045e-13
3.17481936874e-13
1.50207384794e-13
1.23126196493e-13
1.11686287415e-13
1.00332116378e-13
8.90062133621e-14
7.78971157745e-14
6.85404788417e-14
6.06745979132e-14
5.44093399944e-14
4.91559710324e-14
4.48253110246e-14
4.10849736173e-14
3.80269543644e-14
3.53746958708e-14
3.34482352816e-14
3.18540495601e-14
3.09239808886e-14
3.15125520417e-14
1.01525799664e-13
3.90922147774e-13
4.18539458911e-13
2.79525994588e-13
1.94183718155e-13
1.46390370066e-13
1.15528528766e-13
9.37365577792e-14
7.79935675462e-14
6.66306122758e-14
5.83770709482e-14
5.20598762969e-14
4.70103098905e-14
4.27848104526e-14
3.93008040729e-14
3.63723940734e-14
3.4135786059e-14
3.24268713001e-14
3.13720273781e-14
3.29879066519e-14
1.03077554803e-13
8.89594580197e-13
1.29340258746e-12
9.49554526836e-13
4.38209019956e-13
2.57670514609e-13
1.69731591207e-13
1.1885639587e-13
8.97563809353e-14
7.26842322566e-14
6.19671458871e-14
5.44964386034e-14
4.878592366e-14
4.41275331775e-14
4.03112862534e-14
3.7146821259e-14
3.47062492384e-14
3.28768580429e-14
3.17674181928e-14
3.40053330238e-14
1.04386685673e-13
4.32400195184e-12
1.92404119612e-12
1.4720880582e-12
1.34911366849e-12
7.43695699993e-13
3.35212147511e-13
1.83746596529e-13
1.14850972173e-13
8.28811747992e-14
6.70999692226e-14
5.77267220413e-14
5.10860847658e-14
4.5842405535e-14
4.16182989942e-14
3.81446160485e-14
3.54862165507e-14
3.3482915895e-14
3.23476863284e-14
3.50357782941e-14
1.22661647686e-13
1.00487416092e-11
4.09461961371e-12
2.09094104452e-12
1.4266735805e-12
1.38588074441e-12
9.14119335147e-13
3.8862611897e-13
1.75334309092e-13
1.01303652323e-13
7.41930941987e-14
6.16184526281e-14
5.37282482959e-14
4.77829437084e-14
4.31002910611e-14
3.92856669033e-14
3.64080588718e-14
3.42266533508e-14
3.30908742278e-14
3.61351841162e-14
1.33665388151e-13
1.43427297774e-11
6.08527675278e-12
2.83061351771e-12
1.61839391384e-12
1.46343103422e-12
1.19331691503e-12
5.42144866006e-13
2.27332564345e-13
1.20929025018e-13
8.29044236824e-14
6.64257409596e-14
5.6925910579e-14
5.01214641672e-14
4.48919180729e-14
4.06939857487e-14
3.75725835244e-14
3.52150770708e-14
3.40444485642e-14
3.76794908535e-14
1.46568473913e-13
1.67903852806e-11
7.73909546461e-12
3.29233921556e-12
1.69655119508e-12
1.474415736e-12
1.15406160706e-12
5.55212864343e-13
2.51782033715e-13
1.3890201754e-13
9.32293328491e-14
7.24971138762e-14
6.09742380128e-14
5.30830556073e-14
4.71794411583e-14
4.25396750607e-14
3.91459692125e-14
3.66116798257e-14
3.53691448227e-14
3.96953064231e-14
1.56858293454e-13
1.82876393047e-11
9.35987504585e-12
3.92311713267e-12
1.81293415075e-12
1.4938775461e-12
1.11098399755e-12
5.64011845182e-13
2.77908360381e-13
1.58887523462e-13
1.0560539484e-13
8.02435490207e-14
6.62820467245e-14
5.70075547113e-14
5.02622742038e-14
4.51079337823e-14
4.14244168124e-14
3.8716412232e-14
3.74158935175e-14
4.22726964719e-14
1.63681917971e-13
1.90538204302e-11
1.06877996595e-11
4.64337815352e-12
1.94872151899e-12
1.51364811443e-12
1.10652149347e-12
5.94055957086e-13
3.08326730874e-13
1.80834541022e-13
1.20312338688e-13
9.02962625774e-14
7.34477613486e-14
6.24112830882e-14
5.45945855912e-14
4.88341011697e-14
4.48580805035e-14
4.1996606219e-14
4.06885874644e-14
4.58847198502e-14
1.68011999758e-13
1.91788933621e-11
1.16148599175e-11
5.3170466298e-12
2.07195567361e-12
1.51517047174e-12
1.10123735702e-12
6.28169645883e-13
3.39580647771e-13
2.05076148761e-13
1.38458698937e-13
1.03789694019e-13
8.34828019012e-14
7.00918494967e-14
6.0874467467e-14
5.43921521089e-14
5.01375628033e-14
4.7179476756e-14
4.59308790903e-14
5.13545769275e-14
1.71395148157e-13
1.87909015762e-11
1.22197670851e-11
5.8688863031e-12
2.17620749939e-12
1.48289675898e-12
1.03505434985e-12
6.2470438928e-13
3.6580347491e-13
2.34300431456e-13
1.63379224805e-13
1.22873839042e-13
9.79112002847e-14
8.12514804981e-14
7.00967178022e-14
6.27361175511e-14
5.82476171206e-14
5.53097432083e-14
5.42061814558e-14
5.98507660317e-14
1.74958436203e-13
1.80019221799e-11
1.23921940197e-11
6.21569095097e-12
2.23410294547e-12
1.37982063912e-12
8.84837681693e-13
5.80093048979e-13
3.97067732968e-13
2.78884456996e-13
2.01690495765e-13
1.518438426e-13
1.19172441812e-13
9.74706396806e-14
8.35346509561e-14
7.50440727164e-14
7.0374577942e-14
6.76340983591e-14
6.67628302512e-14
7.27462797061e-14
1.79444765136e-13
1.69240896995e-11
1.20321400126e-11
6.4157089769e-12
2.29988074855e-12
1.21507308247e-12
7.40389301249e-13
5.61810348535e-13
4.51817901124e-13
3.50005583883e-13
2.62627828236e-13
1.96696675982e-13
1.51019838102e-13
1.20822232227e-13
1.02463369045e-13
9.23691083462e-14
8.75024098238e-14
8.5117189188e-14
8.449437012e-14
9.09282875573e-14
1.85270405967e-13
1.55690638697e-11
1.11824446275e-11
6.00142793699e-12
2.17539271013e-12
1.04674654896e-12
7.0132952277e-13
5.9446172376e-13
5.17203216996e-13
4.32442045771e-13
3.42348575935e-13
2.60119839351e-13
1.96603124572e-13
1.53337295071e-13
1.27734607573e-13
1.14966212377e-13
1.09603636527e-13
1.07542495331e-13
1.07015924291e-13
1.13647667856e-13
1.92379404769e-13
1.38445734888e-11
9.74040352314e-12
4.98022457094e-12
1.82830244341e-12
9.42686156806e-13
7.22400829911e-13
6.31958447993e-13
5.64357184692e-13
4.95665342803e-13
4.16681366868e-13
3.31712278754e-13
2.54058193524e-13
1.95124483139e-13
1.58976514719e-13
1.41583021187e-13
1.34915061404e-13
1.32782416258e-13
1.32030625135e-13
1.38055401931e-13
2.00343652458e-13
1.1621654424e-11
7.70922036179e-12
3.70376008563e-12
1.52037133317e-12
9.1332348735e-13
7.38907316674e-13
6.47211110141e-13
5.85782293071e-13
5.30846831445e-13
4.68007558206e-13
3.93722262321e-13
3.1399274141e-13
2.42832345541e-13
1.94063331905e-13
1.69680028142e-13
1.60326092951e-13
1.57418144687e-13
1.56075257634e-13
1.60546399851e-13
2.08710037859e-13
9.04280236599e-12
5.72370566851e-12
2.86412121385e-12
1.4492308816e-12
9.46890609473e-13
7.40029340435e-13
6.41056275408e-13
5.88666111653e-13
5.50966864204e-13
5.06156134402e-13
4.47331275692e-13
3.73512355952e-13
2.94948711541e-13
2.31957184547e-13
1.97146335611e-13
1.83183608167e-13
1.78607447412e-13
1.76357446798e-13
1.7879226789e-13
2.1731251342e-13
6.89648229229e-12
4.61223929617e-12
2.64574575472e-12
1.5402080917e-12
1.01887791916e-12
7.44482121436e-13
6.3225619626e-13
5.91219645651e-13
5.73822897886e-13
5.52180589249e-13
5.13268100077e-13
4.49494539949e-13
3.64513392545e-13
2.80841530575e-13
2.26834941711e-13
2.03383213593e-13
1.95501031781e-13
1.91974325217e-13
1.92490741746e-13
2.26564282806e-13
5.75123623087e-12
4.21178343024e-12
2.66449706237e-12
1.66326705703e-12
1.10562190206e-12
7.85000100077e-13
6.45347793688e-13
6.08470302977e-13
6.08859423903e-13
6.15201683703e-13
6.01198175094e-13
5.53030341389e-13
4.71468068381e-13
3.63500598008e-13
2.72576570035e-13
2.26095505194e-13
2.09770192446e-13
2.03724589991e-13
2.02590043693e-13
2.37470310799e-13
5.24305869804e-12
4.06165808051e-12
2.74020384764e-12
1.78674383639e-12
1.2014103461e-12
8.51642799397e-13
6.9073767586e-13
6.55807914214e-13
6.64670445915e-13
6.8452670988e-13
6.96113667364e-13
6.6829693077e-13
6.02688535892e-13
4.92593488169e-13
3.61135603546e-13
2.6561569503e-13
2.26370593673e-13
2.13539967015e-13
2.10456606363e-13
2.51339642431e-13
4.94702502098e-12
3.95955335941e-12
2.80402659642e-12
1.9049270113e-12
1.30737798789e-12
9.46210941453e-13
7.87187039639e-13
7.52226345799e-13
7.57212947851e-13
7.73521644543e-13
7.875171046e-13
7.7861780563e-13
7.3082484952e-13
6.39509147157e-13
5.01916072007e-13
3.47916460651e-13
2.56709662015e-13
2.24831837413e-13
2.17493206936e-13
2.69074129709e-13
4.71138759539e-12
3.86957744077e-12
2.86930874631e-12
2.03792415851e-12
1.44630992522e-12
1.093041944e-12
9.54498973418e-13
9.29967066765e-13
9.23027443201e-13
9.02663752931e-13
8.81717519755e-13
8.73197619136e-13
8.45251394097e-13
7.73743641467e-13
6.53655765909e-13
4.8552950633e-13
3.21785474438e-13
2.44324880163e-13
2.25446229719e-13
2.91608976348e-13
4.48507142291e-12
3.77439257097e-12
2.92477866643e-12
2.18139337746e-12
1.63553741446e-12
1.33807698079e-12
1.24785950378e-12
1.2121153947e-12
1.15033782401e-12
1.06470654174e-12
9.88349542446e-13
9.44492535447e-13
9.30532726951e-13
8.86940981376e-13
7.83694257232e-13
6.35058207538e-13
4.34145163256e-13
2.82772694706e-13
2.36493631296e-13
3.21216161832e-13
4.26036676583e-12
3.67900099507e-12
2.97898897935e-12
2.36271202162e-12
1.94730567534e-12
1.77231197248e-12
1.67805350265e-12
1.54553481829e-12
1.38792806657e-12
1.22368314693e-12
1.07513986019e-12
9.76716702281e-13
9.60235196742e-13
9.58335425407e-13
8.85860559991e-13
7.51432920162e-13
5.60880668343e-13
3.44369512867e-13
2.52538222446e-13
3.5995884977e-13
4.0350398957e-12
3.60712566551e-12
3.09533651429e-12
2.68809297451e-12
2.46957684616e-12
2.31187204755e-12
2.07901413409e-12
1.82261946918e-12
1.5672027493e-12
1.32891731972e-12
1.11883318636e-12
9.64077651142e-13
9.09484349369e-13
9.5045816174e-13
9.46546735109e-13
8.31254360834e-13
6.57739351811e-13
4.07771706011e-13
2.70854932694e-13
4.10069485021e-13
3.84677897215e-12
3.62018934199e-12
3.40196045774e-12
3.25160389156e-12
3.04026146003e-12
2.69623246331e-12
2.32112507279e-12
1.96289513977e-12
1.63504715755e-12
1.34964667449e-12
1.11898380679e-12
9.30043020093e-13
8.27283914515e-13
8.67576028534e-13
9.36128374904e-13
8.6154801437e-13
6.98128020124e-13
4.37579937085e-13
2.85522333293e-13
4.7475334161e-13
4.14474856863e-12
4.14410181741e-12
3.9975359716e-12
3.6736863817e-12
3.21713955529e-12
2.73600395851e-12
2.28428600217e-12
1.88476489475e-12
1.53633838973e-12
1.26036530857e-12
1.01529309293e-12
8.30601294856e-13
7.51218493598e-13
8.01882432666e-13
8.95138478082e-13
8.48545916196e-13
6.82063425353e-13
4.15401455124e-13
2.96696386384e-13
5.51169139015e-13
4.14670760751e-12
3.84949299328e-12
3.44769568579e-12
3.02436621494e-12
2.59242353977e-12
2.19151972349e-12
1.840096798e-12
1.54529566384e-12
1.26022251904e-12
9.9700536911e-13
8.01921615952e-13
7.04021495791e-13
6.94866143368e-13
7.70683660921e-13
8.59702283371e-13
8.00423913578e-13
6.07821979776e-13
3.59762821491e-13
3.36555519193e-13
6.27001008208e-13
2.46562382381e-12
2.27683038846e-12
2.07397811378e-12
1.87074086229e-12
1.67575627802e-12
1.47115477383e-12
1.24797988178e-12
1.01601414773e-12
8.19141455533e-13
6.98927449362e-13
6.52442981649e-13
6.50781001937e-13
6.82057194927e-13
7.58767386352e-13
8.21067682942e-13
7.24516217342e-13
5.18510116253e-13
3.3346425044e-13
3.96317409115e-13
6.89113138365e-13
1.33501764479e-12
1.25335111208e-12
1.15401532294e-12
1.04064547358e-12
9.19414689187e-13
8.00360859561e-13
7.01502001591e-13
6.38547804195e-13
6.12118662602e-13
6.10294963904e-13
6.22404186329e-13
6.43377689549e-13
6.82663295377e-13
7.39406560329e-13
7.61105563943e-13
6.41339634484e-13
4.37434877303e-13
3.32898698954e-13
4.62128330661e-13
7.33840519913e-13
7.4791113571e-13
7.18409819795e-13
6.78511279352e-13
6.3542236698e-13
6.01190441746e-13
5.82313645887e-13
5.76917650596e-13
5.79907898497e-13
5.87763484731e-13
5.99744320983e-13
6.16085583428e-13
6.36644476569e-13
6.65693032333e-13
6.97543032149e-13
6.87365976578e-13
5.43333945866e-13
3.77509017661e-13
3.53583827374e-13
5.19423721324e-13
7.61784849252e-13
5.69790197384e-13
5.71453007204e-13
5.70478781648e-13
5.67968319178e-13
5.660668279e-13
5.66423640533e-13
5.69626682077e-13
5.75067043498e-13
5.81811109436e-13
5.90655843076e-13
6.02399107714e-13
6.16208263588e-13
6.31594507029e-13
1.89738473432e-13
3.68042474552e-13
4.74181129531e-13
3.73444565203e-13
4.98700961686e-13
3.75489709199e-13
4.85924820423e-13
3.75366599426e-13
4.59004053692e-13
3.74698763369e-13
4.30161629164e-13
3.73842356928e-13
4.03158598192e-13
3.72953232256e-13
3.80023301652e-13
3.7211095034e-13
3.61721564004e-13
3.71357528103e-13
3.48464514929e-13
3.70707404314e-13
3.39916771983e-13
3.70160559557e-13
3.35806479502e-13
3.69689585896e-13
3.36105553704e-13
3.69236639388e-13
3.4162847772e-13
3.68740382455e-13
3.55079784207e-13
3.6815268843e-13
3.83569479089e-13
3.67534065142e-13
4.35050920682e-13
3.6760348291e-13
5.15327045774e-13
3.69039261993e-13
6.82736813496e-13
1.30772766899e-12
8.03525690082e-13
1.39596527656e-12
8.87079217008e-13
1.49198878713e-12
9.73780078018e-13
1.60490679326e-12
1.07225542037e-12
1.74601864761e-12
1.164219189e-12
1.9150028131e-12
1.24105469131e-12
2.10845406262e-12
1.29059099899e-12
2.31339000335e-12
1.31725938056e-12
2.51558088068e-12
1.32572231414e-12
2.70309844665e-12
)
;

boundaryField
{
    inletfuel
    {
        type            calculated;
        value           uniform 0;
    }
    inletair
    {
        type            calculated;
        value           uniform 0;
    }
    outlet
    {
        type            calculated;
        value           nonuniform 0();
    }
    axis
    {
        type            empty;
    }
    leftside
    {
        type            calculated;
        value           uniform 0;
    }
    burnerwall
    {
        type            calculated;
        value           uniform 0;
    }
    front
    {
        type            wedge;
    }
    back
    {
        type            wedge;
    }
    procBoundary0to1
    {
        type            processor;
        value           uniform 0;
    }
}


// ************************************************************************* //
