/*--------------------------------*- C++ -*----------------------------------*\
  =========                 |
  \\      /  F ield         | OpenFOAM: The Open Source CFD Toolbox
   \\    /   O peration     | Website:  https://openfoam.org
    \\  /    A nd           | Version:  7
     \\/     M anipulation  |
\*---------------------------------------------------------------------------*/
FoamFile
{
    version     2.0;
    format      ascii;
    class       surfaceScalarField;
    location    "0.03";
    object      phi;
}
// * * * * * * * * * * * * * * * * * * * * * * * * * * * * * * * * * * * * * //

dimensions      [1 0 -1 0 0 0 0];

internalField   nonuniform List<scalar> 
1567
(
-3.84057821346e-09
9.02358917636e-08
-1.38088872577e-08
2.69131203083e-07
4.18199382235e-07
1.55691512452e-09
8.85261607222e-08
4.63598334265e-10
2.69767085789e-07
4.17902484569e-07
-3.96651021432e-10
8.88222814711e-08
-7.55407810801e-09
2.76625818667e-07
4.09856080088e-07
-3.77589369381e-09
9.24898922858e-08
-4.9573721079e-09
2.77488633271e-07
3.85417645212e-07
1.88444177961e-08
3.28956002684e-10
9.20478281821e-08
1.3697560257e-08
2.63780978113e-07
3.64893384349e-07
3.37000811604e-08
1.05165758973e-09
9.08769737608e-08
7.72525238328e-09
2.56740808707e-07
3.48460568995e-07
2.35984976416e-08
1.19430107175e-10
9.06313406908e-08
3.97341193145e-09
2.52474736527e-07
3.38107174163e-07
1.36551708638e-08
8.46712643108e-10
8.96504431666e-08
5.23195961491e-09
2.47623143014e-07
3.28549150667e-07
1.39707521504e-08
1.71403931589e-09
8.77922805908e-08
8.40904257431e-09
2.40401286633e-07
3.18558112336e-07
1.74437757303e-08
2.86794858477e-09
8.47640532615e-08
1.29399647233e-08
2.29743680725e-07
3.07433079751e-07
2.30554665733e-08
4.46350526471e-09
8.01184696286e-08
1.72734267849e-08
2.16322091714e-07
2.94223316191e-07
2.95585775725e-08
6.0170491979e-09
7.39086095218e-08
2.07978412797e-08
2.00980451282e-07
2.78330401041e-07
3.59961043598e-08
7.26591521861e-09
6.6481569796e-08
2.43757248817e-08
1.83478464767e-07
2.58462066294e-07
4.3910772412e-08
8.37332488354e-09
5.80382668224e-08
2.92758421091e-08
1.62473494749e-07
2.32609474264e-07
5.52383498219e-08
9.37050545025e-09
4.87195959089e-08
3.45052154262e-08
1.37553772885e-07
1.99504442132e-07
6.80681075399e-08
9.61025198335e-09
3.92224360709e-08
3.60571759235e-08
1.11415747136e-07
1.63206008857e-07
7.26959777023e-08
8.20991280405e-09
3.10632091544e-08
3.09693432479e-08
8.87021825119e-08
1.31702773766e-07
6.21808854681e-08
5.38607202244e-09
2.56270825885e-08
2.00605099516e-08
7.37702921809e-08
1.11294751435e-07
3.97158770764e-08
2.46794719316e-09
2.3067422723e-08
9.32233529353e-09
6.65668514523e-08
1.01900516073e-07
1.79021246909e-08
6.654959455e-10
2.23193939214e-08
2.50114149862e-09
6.44136626467e-08
9.96412052822e-08
4.00203960266e-09
-2.80203816694e-10
2.25390092331e-08
-1.34388113432e-09
6.52208581142e-08
1.01493977779e-07
-3.86865473245e-09
-6.11361773601e-10
2.31020334523e-08
-2.49661161984e-09
6.68833620296e-08
1.04973902873e-07
-6.58972702759e-09
-8.28619309593e-10
2.38752541942e-08
-3.5787391162e-09
6.93966747169e-08
1.09560867593e-07
-8.79360277362e-09
-4.14868738388e-10
2.4205176375e-08
-2.1273800185e-09
7.07924132324e-08
1.12240745013e-07
-5.52332715549e-09
6.61482885514e-10
2.34066221482e-08
2.48094493561e-09
6.85211325521e-08
1.09365851494e-07
4.46434938953e-09
3.06660845401e-09
2.01374283922e-08
1.18206250021e-08
5.91325251468e-08
9.42629498133e-08
2.57939386378e-08
7.75558223062e-09
1.21217483979e-08
2.95970581014e-08
3.65145525323e-08
5.71913476679e-08
6.53745602328e-08
1.4552511607e-08
-1.90208781677e-09
5.8770866904e-08
-6.08933926181e-09
-1.20681493443e-08
1.308759632e-07
1.38703991516e-08
-1.68329444833e-08
5.47273863237e-08
-5.01076145434e-08
-8.4469312028e-08
1.21941364094e-07
9.560675207e-09
-3.58762781543e-08
3.83025824943e-08
-1.06928942816e-07
-1.79037010069e-07
8.6253327169e-08
7.32601305437e-09
-5.14618833248e-08
3.07196437505e-08
-1.54740941374e-07
-2.57412996165e-07
6.92091779652e-08
1.39290172924e-09
4.90025149635e-09
9.79998340885e-09
2.16756142991e-07
-2.03633971704e-07
2.36281008494e-07
1.40733745925e-08
2.48554187157e-07
1.15705714557e-08
2.64245825752e-07
-2.16437169875e-09
2.73880556382e-07
3.75678010164e-09
2.77995188759e-07
1.24903324876e-08
2.77826324427e-07
2.23665336281e-08
2.73462008999e-07
3.32140748095e-08
2.64806957537e-07
4.42275711457e-08
2.5070583029e-07
5.79671012721e-08
2.28882759596e-07
7.73878530582e-08
1.98026417837e-07
9.93754889438e-08
1.6357460668e-07
1.07129695514e-07
1.34339438908e-07
9.05525299085e-08
1.16418717391e-07
5.63919997255e-08
1.08717461324e-07
2.4363750924e-08
1.07474544743e-07
4.0305373574e-09
1.10484741033e-07
-8.01678192938e-09
1.15227583469e-07
-1.23983193853e-08
1.21284195086e-07
-1.59069086945e-08
1.25775479148e-07
-1.11218238213e-08
1.23189226267e-07
5.81206615148e-09
1.06146916334e-07
4.13863765422e-08
6.23641939011e-08
1.07646259944e-07
-1.79277029863e-08
2.14835653898e-07
-1.03156792969e-07
2.01104093722e-07
-2.16145652859e-07
1.43454273857e-07
-3.08000335769e-07
1.14539307047e-07
1.57899532302e-08
1.56378861734e-07
7.07786890679e-07
2.55344181777e-07
1.28153978112e-06
3.63467509578e-07
1.91552162518e-06
5.25979732803e-07
2.6577854417e-06
7.13146197439e-07
3.61463163962e-06
8.45689333307e-07
4.87321317296e-06
9.68122264386e-07
6.3542676577e-06
1.05120006066e-06
8.18544272232e-06
1.12581625259e-06
1.03703273147e-05
1.17821204514e-06
1.30293884808e-05
1.2257756376e-06
1.62227872094e-05
1.25239071025e-06
2.00933309845e-05
1.25463134236e-06
2.47559090571e-05
1.23351845861e-06
3.03583919062e-05
1.13829903473e-06
3.71344571551e-05
1.05017030451e-06
4.51673542858e-05
7.94224733591e-07
5.49766030462e-05
6.03795887215e-07
6.6460303864e-05
-5.53501795724e-08
8.07527325196e-05
9.65469859326e-05
3.25765808167e-07
3.16341541402e-07
6.43829632285e-07
9.14244226331e-07
1.19339808762e-06
1.30174424536e-06
1.32858092613e-06
2.4310577899e-06
1.51725272663e-06
3.29671318197e-06
1.6261131071e-06
4.59337720583e-06
1.74834978782e-06
6.01045625703e-06
1.84021117118e-06
7.81142599838e-06
1.93152365079e-06
9.92495243366e-06
2.00568372352e-06
1.25152552424e-05
2.06409336454e-06
1.5621636101e-05
2.08996943168e-06
1.94024578546e-05
2.07908426558e-06
2.39564377217e-05
2.02519621125e-06
2.94290336918e-05
1.8953575335e-06
3.60795280702e-05
1.73624019258e-06
4.39082136489e-05
1.40952604446e-06
5.36141403453e-05
1.08521604949e-06
6.47799008008e-05
-1.52194727953e-08
7.94873371996e-05
9.37262001289e-05
-1.69448428799e-07
4.42396901934e-07
-1.0514320417e-07
6.05460129527e-07
6.61262252121e-08
9.35575540305e-07
5.82902897634e-07
1.80769071503e-06
1.07080745446e-06
2.75436184848e-06
1.20696822448e-06
4.35373304365e-06
1.34231786249e-06
5.73729342841e-06
1.39674762716e-06
7.57974113756e-06
1.44856570539e-06
9.6505825615e-06
1.48373523588e-06
1.22038747051e-05
1.50481689929e-06
1.52600257764e-05
1.50555237676e-06
1.89845214408e-05
1.48364461479e-06
2.34701912193e-05
1.43319318349e-06
2.88630143409e-05
1.34291239921e-06
3.54276769857e-05
1.22888604927e-06
4.31360265783e-05
1.02746540152e-06
5.27637206154e-05
7.98901867582e-07
6.3762749638e-05
-1.23873204355e-07
7.89428795446e-05
9.18643986419e-05
-1.79838151666e-07
3.36534126881e-07
7.28777263208e-08
1.20938780306e-07
3.30794067403e-07
3.70799800131e-07
9.05383896986e-07
9.7547704099e-07
1.14050616702e-06
2.43767935388e-06
1.54968374001e-06
3.9000237317e-06
1.65186544439e-06
5.50107319883e-06
1.66673941939e-06
7.36871027601e-06
1.67337979049e-06
9.39358500532e-06
1.66525468779e-06
1.19005773042e-05
1.65203134417e-06
1.48891447341e-05
1.62481955862e-06
1.85410920901e-05
1.5807778508e-06
2.29412143422e-05
1.51320563932e-06
2.82357229798e-05
1.41851299655e-06
3.46860015106e-05
1.30331333181e-06
4.22531645463e-05
1.13752370153e-06
5.1746432849e-05
9.2327601057e-07
6.25765642948e-05
4.97589484054e-07
7.77179844728e-05
9.21609800364e-05
-1.78151332985e-06
-1.4766056534e-08
3.54835918188e-07
-2.31200345286e-08
8.89711254706e-08
7.59131669673e-08
1.44944206604e-07
3.51941490454e-07
3.39069543485e-07
1.0336353382e-06
1.37084232684e-06
1.64746644976e-06
3.07680890705e-06
1.86827724984e-06
5.21900134614e-06
1.91464144924e-06
7.1356009312e-06
1.86595330942e-06
9.17707750069e-06
1.81904737014e-06
1.16125583898e-05
1.76989500465e-06
1.45240125738e-05
1.71568703268e-06
1.80873492239e-05
1.65289074309e-06
2.23857091547e-05
1.57263479971e-06
2.75667979439e-05
1.47899188729e-06
3.38781542677e-05
1.36948960264e-06
4.12876217742e-05
1.26307681886e-06
5.05795857426e-05
1.16229409991e-06
6.11715045256e-05
1.28459923357e-06
7.58170503165e-05
8.9240512273e-05
2.28820945643e-06
-1.65010379782e-08
3.78135113443e-07
-1.17267253351e-08
7.05322754711e-08
9.24021640781e-08
4.22369860698e-08
2.94436349652e-07
2.74247458292e-07
8.29760291294e-07
1.16193947986e-06
1.60763357252e-06
2.66746150002e-06
2.05508614718e-06
4.89767126904e-06
2.17392368246e-06
6.91915185782e-06
2.12634028957e-06
8.96255345533e-06
2.05868353619e-06
1.13290563006e-05
1.9889677068e-06
1.41566262541e-05
1.91561863675e-06
1.76244768121e-05
1.83868456996e-06
2.18102278105e-05
1.74695848197e-06
2.68688187822e-05
1.65033672022e-06
3.30251794814e-05
1.53974926011e-06
4.0266835552e-05
1.48182728391e-06
4.9298867356e-05
1.46284365978e-06
5.96095045166e-05
2.05082684193e-06
7.33583992809e-05
8.47351858448e-05
4.38213134348e-06
-4.07871536386e-08
4.12393148699e-07
-7.65256948281e-08
9.29850571869e-08
1.02118488582e-08
-1.80082472135e-08
3.17290122939e-07
2.23803560751e-07
1.0299613883e-06
1.10519371432e-06
1.75335311745e-06
2.734955606e-06
2.24180058573e-06
4.70869478928e-06
2.4303174457e-06
6.68732728238e-06
2.42438323974e-06
8.69026084208e-06
2.36521157997e-06
1.10221414896e-05
2.29437436001e-06
1.37706130094e-05
2.2096288485e-06
1.71486131026e-05
2.12183395811e-06
2.12164795984e-05
2.01776292226e-06
2.6148559449e-05
1.91272008998e-06
3.21394869134e-05
1.79142709757e-06
3.92084882136e-05
1.75834376888e-06
4.79373656482e-05
1.75134710815e-06
5.79715625154e-05
2.72359828464e-06
7.04405797312e-05
8.05337568276e-05
4.57206137907e-06
-4.08629776009e-08
4.53441351407e-07
-8.94323344158e-08
1.30555577253e-07
-4.64025286776e-08
-4.9489314148e-08
2.75105219506e-07
1.39323347065e-07
9.26530017768e-07
9.57295679322e-07
1.75082706086e-06
2.46411751528e-06
2.32327523631e-06
4.37348647751e-06
2.63135370093e-06
6.30752744233e-06
2.71877738145e-06
8.33403948885e-06
2.71524487624e-06
1.06486199524e-05
2.66045728865e-06
1.33470583546e-05
2.57152596546e-06
1.6650284748e-05
2.47137913389e-06
2.06036836082e-05
2.35263551863e-06
2.54054379543e-05
2.23368328253e-06
3.12222914788e-05
2.09250340206e-06
3.81156114013e-05
2.05462051665e-06
4.65164263738e-05
2.01296867496e-06
5.62934176346e-05
2.94767298639e-06
6.74745947832e-05
7.69682708841e-05
4.05975560743e-06
-3.73563418849e-08
5.01177338314e-07
-9.37414915502e-08
1.78127100736e-07
-8.00932436304e-08
-6.37120882323e-08
2.47706789805e-07
3.98792765214e-08
8.42654609258e-07
7.23412697631e-07
1.64911322491e-06
2.02897182178e-06
2.32880244967e-06
3.85575537043e-06
2.80841616873e-06
5.75225423542e-06
3.03250785945e-06
7.84252637601e-06
3.11866290151e-06
1.01908133277e-05
3.09285644702e-06
1.2857629878e-05
3.00748607897e-06
1.61148530012e-05
2.88891495232e-06
1.997185402e-05
2.75102626845e-06
2.46373164629e-05
2.61130415598e-06
3.02719470923e-05
2.4404857686e-06
3.69863466626e-05
2.36858011229e-06
4.50497958596e-05
2.25390398188e-06
5.45931139081e-05
2.92033268725e-06
6.46655330792e-05
7.38095833803e-05
3.5103774874e-06
-2.36667544096e-08
5.4641450854e-07
-8.24214378811e-08
2.30702546058e-07
-9.07858003341e-08
-5.88023707739e-08
2.46851197953e-07
-3.64561150408e-08
8.1949876227e-07
4.96517690275e-07
1.61999941396e-06
1.57491242661e-06
2.40162771451e-06
3.24586319066e-06
3.03419153116e-06
5.06781858866e-06
3.401899237e-06
7.20369426608e-06
3.59188002094e-06
9.57980240983e-06
3.62304620289e-06
1.2310251104e-05
3.53729173098e-06
1.55266381163e-05
3.41100740807e-06
1.93009066406e-05
3.24079857479e-06
2.38490112652e-05
3.06888663167e-06
2.92905691443e-05
2.85658585215e-06
3.58203777377e-05
2.72223644264e-06
4.35493715989e-05
2.50148794921e-06
5.28813163571e-05
2.81504882189e-06
6.20683234751e-05
7.09926022778e-05
2.89978615352e-06
4.20188893719e-09
5.75007863539e-07
-5.2953516482e-08
2.8436538992e-07
-7.34547779031e-08
-3.82032382484e-08
2.54605445881e-07
-7.23521543621e-08
8.0535787175e-07
3.35957086293e-07
1.59088122046e-06
1.17410414266e-06
2.47667509011e-06
2.5512049733e-06
3.26216620581e-06
4.22979855375e-06
3.80180963097e-06
6.38206361723e-06
4.12061649104e-06
8.78405570109e-06
4.21394915157e-06
1.16026929867e-05
4.19676072005e-06
1.4849470775e-05
4.05639421584e-06
1.85751057137e-05
3.8542665794e-06
2.30270516402e-05
3.63613710816e-06
2.82798280794e-05
3.36786123153e-06
3.46176858038e-05
3.14364874303e-06
4.20234273918e-05
2.78352089568e-06
5.11656799019e-05
2.73381538744e-06
5.96602792345e-05
6.84294374604e-05
2.35711329172e-06
3.62605893316e-08
5.83216396721e-07
-1.07206794632e-08
3.28364703634e-07
-3.16851154361e-08
-3.71221210861e-09
2.9887643292e-07
-6.70327226797e-08
8.4364138828e-07
2.36102184048e-07
1.57017598484e-06
7.9439030686e-07
2.46263898541e-06
1.77531861962e-06
3.35444905474e-06
3.21414379026e-06
4.11465091086e-06
5.27600636377e-06
4.65293104959e-06
7.72169231298e-06
4.89751082546e-06
1.06875792469e-05
4.94340074692e-06
1.39943653271e-05
4.84255078296e-06
1.77718441889e-05
4.61581216868e-06
2.21395688159e-05
4.33897594547e-06
2.72329116255e-05
3.99815644905e-06
3.33741292525e-05
3.65438088994e-06
4.04763010428e-05
3.12376449956e-06
4.94458059919e-05
2.7081298846e-06
5.74056928592e-05
6.60414950821e-05
1.90990336438e-06
7.27711987665e-08
5.69276279156e-07
4.89022041286e-08
3.49038061368e-07
2.98038810938e-08
4.70846827828e-08
3.890620528e-07
8.10662250536e-09
9.38150800628e-07
1.37276573e-07
1.51852560239e-06
4.49671106715e-07
2.29292867812e-06
1.02845304622e-06
3.20689441357e-06
2.12111704398e-06
4.16716971343e-06
3.93685486142e-06
4.98064382353e-06
6.35764833286e-06
5.49204775316e-06
9.47539059126e-06
5.74664206304e-06
1.28950884773e-05
5.71520542746e-06
1.67757483497e-05
5.52205440299e-06
2.11419869744e-05
5.21607051847e-06
2.61037615641e-05
4.7653065378e-06
3.21008808503e-05
4.26993312027e-06
3.89090302722e-05
3.53273211787e-06
4.77221697851e-05
2.70267935836e-06
5.53113549152e-05
6.37217645826e-05
1.5509250995e-06
1.18901863048e-07
5.28495658579e-07
1.18575161928e-07
3.45066614684e-07
1.04835951379e-07
1.07788339465e-07
4.7128586562e-07
1.09800527192e-07
9.03265898301e-07
4.81405478226e-08
1.3348030885e-06
1.67371664978e-07
1.98070930502e-06
4.40851493555e-07
2.82189232914e-06
1.2280490166e-06
3.90787184849e-06
2.63242539607e-06
4.96273463152e-06
4.88010206563e-06
5.87865853514e-06
7.91482228564e-06
6.45235227401e-06
1.14806696085e-05
6.66646772409e-06
1.55218413276e-05
6.57593674385e-06
1.9940694358e-05
6.25694962599e-06
2.48614895383e-05
5.70058778123e-06
3.07716389589e-05
5.01326157419e-06
3.73327112521e-05
4.02981250882e-06
4.60012620123e-05
2.79356244063e-06
5.3328465315e-05
6.14126864411e-05
1.30608929789e-06
1.67206819451e-07
4.59710827896e-07
1.91774447407e-07
3.16673229774e-07
2.12049647954e-07
1.51036916975e-07
4.17317169858e-07
1.01421939133e-07
6.77135520852e-07
-1.10130513954e-09
1.01385991744e-06
-2.58565249771e-08
1.51568937828e-06
8.34202962872e-08
2.28616716166e-06
5.65738571024e-07
3.36953032772e-06
1.56923800319e-06
4.64334849832e-06
3.44150219421e-06
5.91649611214e-06
6.22202987406e-06
6.94223988949e-06
9.75094783261e-06
7.54685303402e-06
1.39246382981e-05
7.69542430269e-06
1.84850862286e-05
7.4245900261e-06
2.3467412585e-05
6.78113784694e-06
2.9362457148e-05
5.87438619592e-06
3.57586780438e-05
4.61997341381e-06
4.42860615119e-05
2.99023929822e-06
5.14156839716e-05
5.91222866736e-05
1.13035213875e-06
1.73230790631e-07
3.89691406554e-07
1.94231921777e-07
2.96492668046e-07
2.13945240676e-07
1.81169039249e-07
2.84222450019e-07
9.4606211442e-08
4.08798574965e-07
-1.70743945547e-08
6.62412283187e-07
-1.38080570892e-07
1.07455321004e-06
-1.35371833004e-07
1.67959845589e-06
1.517808891e-07
2.60957955365e-06
8.05784443317e-07
3.9133304075e-06
2.18214718554e-06
5.51756678971e-06
4.44353768194e-06
7.03670524497e-06
7.77532510842e-06
8.21146208754e-06
1.19321863679e-05
8.7997792016e-06
1.66666175459e-05
8.72708861525e-06
2.18415827685e-05
8.0599293026e-06
2.78432521461e-05
6.93948401242e-06
3.41896744498e-05
5.33226256868e-06
4.26570640701e-05
3.28257823224e-06
4.95959313108e-05
5.69039050819e-05
9.98188571653e-07
1.34111552448e-07
3.40939821371e-07
1.41336913033e-07
2.90861297473e-07
1.48051631239e-07
1.98285237166e-07
1.76522645852e-07
8.88844035726e-08
2.25025397873e-07
-2.92519419687e-08
3.17031480387e-07
-1.47649707422e-07
5.25648470705e-07
-2.25317498351e-07
9.43555676431e-07
-1.2974092575e-07
1.63037746976e-06
2.2722732513e-07
2.82095771505e-06
1.02831284975e-06
4.56744738799e-06
2.61395959248e-06
6.63612518354e-06
5.43324703578e-06
8.50770465515e-06
9.48884617858e-06
9.78228723205e-06
1.43607857319e-05
1.01008009904e-05
1.99030612498e-05
9.48076579033e-06
2.62149324883e-05
8.15470398583e-06
3.26563867065e-05
6.14490283322e-06
4.11888319557e-05
3.63370170951e-06
4.794116434e-05
5.48485329933e-05
8.67619134855e-07
7.65494262247e-08
3.15650923333e-07
7.22334459305e-08
2.92183605125e-07
6.37404321767e-08
2.13092617882e-07
5.61378446848e-08
1.02400197347e-07
5.75953771027e-08
-1.97857465075e-08
7.83041811472e-08
-1.23470148752e-07
1.26831323417e-07
-2.29603379112e-07
3.44214424138e-07
-2.79504738403e-07
8.63104289351e-07
-2.14750386601e-07
1.7472728887e-06
1.38837042986e-07
3.32479828145e-06
9.44428949737e-07
5.69475976855e-06
2.86649023119e-06
8.30643170296e-06
6.52623376367e-06
1.04594235029e-05
1.14658959515e-05
1.14743116927e-05
1.74895448782e-05
1.11379880909e-05
2.43643295609e-05
9.61805669262e-06
3.12287006999e-05
7.13727041347e-06
4.00039270301e-05
4.07759227661e-06
4.65965731461e-05
5.31024669582e-05
7.33640370115e-07
2.45860134478e-08
3.09896782696e-07
5.76065750893e-09
3.04609829496e-07
-2.43855905916e-08
2.39626530477e-07
-6.66368768166e-08
1.38700140109e-07
-1.18221455137e-07
2.3648291135e-08
-1.69176746325e-07
-7.39884621424e-08
-2.38797672324e-07
-1.6190744627e-07
-2.1498096131e-07
-2.93337972518e-07
1.2361019319e-07
-4.56756262562e-07
9.51543651222e-07
-5.20128812683e-07
2.38978260727e-06
-3.53563067674e-07
4.56833909402e-06
6.87569787294e-07
7.67262077103e-06
3.34115518944e-06
1.08183799389e-05
8.03512748704e-06
1.29234986564e-05
1.44301290918e-05
1.29401110131e-05
2.2437412243e-05
1.13039804715e-05
2.99666840855e-05
8.28561870204e-06
3.92555225168e-05
4.564673415e-06
4.5750549379e-05
5.18396158928e-05
5.15568583311e-07
-8.55200178744e-09
3.16649783945e-07
-4.10861089591e-08
3.28540419199e-07
-9.44449239675e-08
2.8364271518e-07
-1.70663145574e-07
2.01083474433e-07
-2.71696302855e-07
1.02925547957e-07
-3.73226002571e-07
2.25196167461e-09
-4.55866472161e-07
-8.7892444052e-08
-5.05984358117e-07
-2.32143513773e-07
-3.71735525461e-07
-4.98867698203e-07
2.03420854364e-07
-8.14956345947e-07
1.53836839727e-06
-1.1192763692e-06
3.82284262011e-06
-8.43499424386e-07
6.91779640958e-06
7.92959072718e-07
1.06491913747e-05
4.88547017157e-06
1.39960667287e-05
1.09783646714e-05
1.50390759359e-05
2.01331149144e-05
1.33389849745e-05
2.90733294437e-05
9.71861812754e-06
3.91376906656e-05
5.21262767755e-06
4.56010825118e-05
5.11878125878e-05
3.62669739009e-07
-3.16356497265e-08
3.34541146924e-07
-8.07051746599e-08
3.6764614949e-07
-1.5882710633e-07
3.48351197096e-07
-2.6679265825e-07
2.88608611831e-07
-4.01344916856e-07
2.06982541812e-07
-5.46612871062e-07
1.12771661017e-07
-6.4425341868e-07
-1.73747380092e-08
-6.40332855336e-07
-2.22648292625e-07
-4.3958809347e-07
-5.65738843501e-07
4.17024278326e-08
-1.03014454781e-06
8.90323323785e-07
-1.46793922991e-06
2.67487044295e-06
-1.63545485096e-06
5.79111597348e-06
-9.30572471451e-07
1.01773229903e-05
1.96794576015e-06
1.47547924876e-05
7.94815332453e-06
1.70357348381e-05
1.80438857465e-05
1.55973343853e-05
2.87306550947e-05
1.1613194406e-05
3.96339824834e-05
5.89502190487e-06
4.66553999893e-05
5.13991221719e-05
2.21433252321e-08
-4.23364703693e-08
3.58797962467e-07
-9.8832677535e-08
4.13475407107e-07
-1.86269515717e-07
4.19919946174e-07
-3.0299067971e-07
3.81464437746e-07
-4.36090165671e-07
3.06917674634e-07
-5.52765622462e-07
1.92742966942e-07
-5.91706321861e-07
-9.23199690068e-09
-4.76535400843e-07
-3.47086547168e-07
-1.64310047633e-07
-8.50662468202e-07
3.30206493231e-07
-1.43739535606e-06
1.11661555228e-06
-1.94593747711e-06
2.40064954775e-06
-2.25592586222e-06
4.94125524753e-06
-2.02410255183e-06
8.6873859131e-06
1.48189142195e-07
1.38558826729e-05
5.72005095033e-06
1.82584046662e-05
1.58190039343e-05
1.79818855451e-05
2.88667912754e-05
1.36844233086e-05
4.11412074218e-05
6.76587812452e-06
4.90098252397e-05
5.23581468988e-05
-6.32702633799e-08
-4.86702914446e-08
3.85900779816e-07
-1.10187464189e-07
4.64077849611e-07
-2.03178289161e-07
4.95814502096e-07
-3.20538626102e-07
4.73340410687e-07
-4.33332501764e-07
3.85841318124e-07
-4.66959866313e-07
1.89155201222e-07
-3.27575289168e-07
-1.78199271985e-07
1.81427373623e-08
-7.15033015205e-07
5.07935986912e-07
-1.36917319381e-06
1.06627249426e-06
-2.02461720588e-06
1.69821630376e-06
-2.5846213303e-06
2.60956729369e-06
-2.97658667329e-06
4.23298273914e-06
-3.01162588414e-06
7.35585848985e-06
-1.30802317969e-06
1.25450802775e-05
3.36554524065e-06
1.79687656254e-05
1.4548587805e-05
1.98198677577e-05
2.92737163856e-05
1.55392350835e-05
4.40599171289e-05
7.28460681435e-06
5.30135269014e-05
5.34917569196e-05
-4.79486810475e-08
-3.77895029236e-08
4.06941297073e-07
-8.95741927042e-08
5.05171526833e-07
-1.60203489045e-07
5.49638118123e-07
-2.24772720497e-07
5.13399934853e-07
-2.11251546873e-07
3.40825332842e-07
-4.19224811361e-08
-1.36890379151e-08
3.11947928757e-07
-5.64760357794e-07
8.12369500337e-07
-1.25810905786e-06
1.43128584052e-06
-2.05019002311e-06
2.1930153638e-06
-2.87519041783e-06
3.10302065767e-06
-3.61296144526e-06
4.03022350456e-06
-4.05122257082e-06
4.93063605465e-06
-3.91140653645e-06
6.86043060629e-06
-2.53440621723e-06
1.04123452872e-05
1.73349629011e-06
1.59937738175e-05
1.29443558944e-05
1.97536193419e-05
2.95506247612e-05
1.64214309799e-05
4.79008446713e-05
7.43087563682e-06
5.82916886363e-05
5.46235874768e-05
-1.22991588639e-07
2.31580569955e-09
4.04784018683e-07
-1.21079873373e-08
5.09446825506e-07
-1.79711475043e-08
5.39305357316e-07
3.35530701013e-08
4.38708843272e-07
2.32773708794e-07
1.13706266605e-07
6.09109011414e-07
-4.21022563448e-07
1.1220273315e-06
-1.115787158e-06
1.75853074264e-06
-1.94631383287e-06
2.50113648679e-06
-2.86263207495e-06
3.34281558051e-06
-3.81148641987e-06
4.37121157431e-06
-4.79232207689e-06
5.67666399988e-06
-5.73359237154e-06
6.7849400509e-06
-5.56346905568e-06
7.60983168863e-06
-3.5855590306e-06
9.57230502839e-06
7.43819687948e-07
1.3879831256e-05
1.17844516811e-05
1.7756197974e-05
3.09397390072e-05
1.54149866531e-05
5.24661106503e-05
6.25631582946e-06
6.42488625559e-05
5.4865102108e-05
-4.10726618368e-07
9.2940867015e-08
3.47270636268e-07
1.74284486662e-07
4.18154820603e-07
3.28970829672e-07
3.70456446309e-07
6.3697664803e-07
1.16085950309e-07
1.06403988581e-06
-3.28096547627e-07
1.56210833093e-06
-9.4040962746e-07
2.1433261741e-06
-1.72390545458e-06
2.83622754854e-06
-2.67316648387e-06
3.79070688709e-06
-3.85876564846e-06
5.10147257885e-06
-5.19545533806e-06
6.51608808571e-06
-6.52013103433e-06
7.48856443464e-06
-7.3005043417e-06
7.93742786128e-06
-6.90537969177e-06
8.07649501625e-06
-4.65571467261e-06
8.56945399099e-06
2.46922969904e-07
1.0648077208e-05
1.17997463015e-05
1.40661228877e-05
3.28683017933e-05
1.23702860505e-05
5.70581136878e-05
4.36721377586e-06
6.90933036038e-05
5.38125990765e-05
-8.67997778915e-07
2.68477731875e-07
1.81317468097e-07
5.45453123772e-07
1.36420370914e-07
9.7704233673e-07
-5.6338387071e-08
1.44983871956e-06
-3.4543029935e-07
1.94894860203e-06
-8.20727180466e-07
2.53983108943e-06
-1.52696782896e-06
3.34246643159e-06
-2.52230753182e-06
4.34083322792e-06
-3.68164914623e-06
5.52148083373e-06
-5.11988341261e-06
6.80929012781e-06
-6.76867050005e-06
7.83969083849e-06
-8.13346752279e-06
8.18601910691e-06
-8.57248786993e-06
7.78323064851e-06
-7.79636137186e-06
7.26455802508e-06
-5.57995571046e-06
6.9079878625e-06
1.44243109757e-08
7.60242598704e-06
1.31192144084e-05
8.61448775203e-06
3.75585245444e-05
5.70071547514e-06
6.22382153299e-05
4.93929228411e-07
7.03715470904e-05
4.96682081035e-05
-1.29355407227e-06
5.10114061653e-07
-9.82318472016e-08
9.17564802332e-07
-2.45508169132e-07
1.37162863339e-06
-4.98216310584e-07
1.90956789508e-06
-8.77683582343e-07
2.61020522566e-06
-1.51124567219e-06
3.49356338155e-06
-2.43067630513e-06
4.50461412804e-06
-3.54583690571e-06
5.55036362097e-06
-4.9891033184e-06
6.6167458636e-06
-6.6536982152e-06
7.31368868843e-06
-8.14326898856e-06
7.26206799992e-06
-8.99884754739e-06
6.50933024543e-06
-9.06147044053e-06
5.43712392813e-06
-8.32103744e-06
4.31921256212e-06
-6.18702389815e-06
3.07060124495e-06
4.15819878804e-07
1.98233855885e-06
1.61434709472e-05
5.6456766704e-07
4.37843446616e-05
-1.80732471308e-06
6.4229334984e-05
-3.93424998484e-06
6.8081809418e-05
4.18064616518e-05
-1.70462886892e-06
4.82363434322e-07
-4.01172621881e-07
9.00481859246e-07
-6.94075627531e-07
1.46858230503e-06
-1.11589722695e-06
2.15181517197e-06
-1.70984828055e-06
2.87330799911e-06
-2.5885708457e-06
3.62046569773e-06
-3.76208724482e-06
4.4128093276e-06
-5.08421561722e-06
5.09693907123e-06
-6.4969405736e-06
5.35781180721e-06
-7.75734079064e-06
4.97373995503e-06
-8.69950488144e-06
4.08639732754e-06
-9.28704846706e-06
2.91581687029e-06
-9.36850300698e-06
1.52361664393e-06
-8.6971352221e-06
-5.45951826704e-07
-6.02940740197e-06
-3.53927776349e-06
1.50792804392e-06
-7.81217326683e-06
2.16949461755e-05
-7.45688655787e-06
4.56235052915e-05
-8.16357092687e-06
6.2666820636e-05
-6.75102958391e-06
6.232140005e-05
3.13348511819e-05
-1.67839360412e-06
3.54017483413e-07
-8.16274360353e-07
6.69361899074e-07
-1.32924260003e-06
1.1104130379e-06
-2.00943640481e-06
1.69417850386e-06
-2.87770985602e-06
2.30518600256e-06
-3.87371738285e-06
2.78986458547e-06
-4.94149213391e-06
3.04404222138e-06
-6.00858025614e-06
2.87284716502e-06
-7.03367234304e-06
2.31883872122e-06
-8.05382978625e-06
1.50721156065e-06
-8.96279882102e-06
4.24630469975e-07
-9.54747270292e-06
-9.73963856909e-07
-9.57138464163e-06
-3.1075155847e-06
-8.54541463468e-06
-6.49753816024e-06
-5.40620789296e-06
-1.23195152879e-05
3.38411041024e-06
-1.49590973524e-05
2.41443736119e-05
-1.49949740639e-05
4.56125454505e-05
-1.32114347415e-05
5.80168574955e-05
-8.94758428603e-06
5.39313998273e-05
1.84204307718e-05
-1.39546155756e-06
2.76194348707e-07
-1.1400303867e-06
5.03120589336e-07
-1.7835087574e-06
7.45826872154e-07
-2.52780207616e-06
9.22727336781e-07
-3.36901569059e-06
9.7599683734e-07
-4.29406158715e-06
8.73049648046e-07
-5.28719998492e-06
6.3108274405e-07
-6.33220740087e-06
2.50572660312e-07
-7.37480626249e-06
-3.69487980985e-07
-8.34975208377e-06
-1.32708750604e-06
-9.16458536395e-06
-2.75472664101e-06
-9.59272920145e-06
-4.71741241944e-06
-9.45485135015e-06
-7.59112595622e-06
-8.12335491537e-06
-1.22897800588e-05
-1.94186232348e-05
-2.22821578448e-05
-2.14948899965e-05
-1.72349861166e-05
-1.06649134136e-05
-1.20199098284e-06
3.03033875753e-08
3.88260117822e-08
2.76266152141e-08
-2.33592242052e-08
-1.39857766219e-07
-3.60853624818e-07
-7.46446051315e-07
-1.36039325759e-06
-2.26769760268e-06
-3.56860181332e-06
-5.35111046018e-06
-7.89568181729e-06
-3.71620897438e-06
1.4258931585e-06
-4.39571267286e-06
-6.77028934477e-08
3.26167508218e-06
-5.13917324556e-06
2.38849732486e-06
4.65235788449e-06
-3.43092576251e-06
2.69907238746e-06
5.8847067358e-06
-1.44729376251e-06
2.51609603909e-06
6.77923018605e-06
3.15532608953e-07
2.23687151223e-06
7.36830053227e-06
1.77164643802e-06
1.85558136118e-06
7.68452619279e-06
2.8093405975e-06
1.50979951186e-06
7.75228376192e-06
3.45761171631e-06
1.21426158963e-06
7.61347632272e-06
3.76598468526e-06
9.64110917741e-07
7.31185658488e-06
3.78292974194e-06
8.01628758591e-07
6.87493207068e-06
3.5990777649e-06
6.85624837351e-07
6.33116079173e-06
3.26685306315e-06
5.92696142665e-07
5.71117950657e-06
2.81672923338e-06
5.0364717935e-07
5.02974559782e-06
2.26175853819e-06
4.15184502743e-07
4.29892528033e-06
1.61423265206e-06
2.91899240911e-07
3.50309198215e-06
8.62598602887e-07
2.09294699592e-07
2.68795884145e-06
7.6266118634e-08
-1.31749515932e-07
2.0531310325e-06
-9.04997916961e-07
-2.76648365399e-07
1.42281983708e-06
-1.84158266598e-06
-1.6901480338e-07
7.19177367988e-07
-2.70077470989e-06
-1.49722231065e-07
-9.30588876025e-08
-3.62464281841e-06
-9.37477195179e-08
-1.28039097954e-06
-4.61516226152e-06
-4.74598239185e-07
-2.66724677302e-06
-6.15965563006e-06
-6.942314298e-07
-4.45209051041e-06
-8.13122054227e-06
-9.38086475671e-07
-6.61041883251e-06
-1.05528177512e-05
-9.26124788766e-07
-8.9331416507e-06
-1.31318143494e-05
-7.41930715629e-07
-1.12727483179e-05
-1.56461668003e-05
-5.55960904242e-07
)
;

boundaryField
{
    inletfuel
    {
        type            calculated;
        value           nonuniform List<scalar> 3(-8.66281175208e-08 -2.59861669273e-07 -4.33173599103e-07);
    }
    inletair
    {
        type            calculated;
        value           nonuniform List<scalar> 
20
(
-9.21001190483e-07
-1.47121902289e-06
-2.15663192825e-06
-3.00516148138e-06
-4.05016366751e-06
-5.33143028033e-06
-6.89642245623e-06
-8.80169475334e-06
-1.11146301451e-05
-1.39154461502e-05
-1.72996267873e-05
-2.13807562107e-05
-2.62939169581e-05
-3.2199675094e-05
-3.9288802303e-05
-4.77880077223e-05
-5.79663914875e-05
-7.01440290336e-05
-8.46996885583e-05
-0.000102085635407
)
;
    }
    outlet
    {
        type            calculated;
        value           nonuniform 0();
    }
    axis
    {
        type            empty;
        value           nonuniform 0();
    }
    leftside
    {