/*--------------------------------*- C++ -*----------------------------------*\
  =========                 |
  \\      /  F ield         | OpenFOAM: The Open Source CFD Toolbox
   \\    /   O peration     | Website:  https://openfoam.org
    \\  /    A nd           | Version:  7
     \\/     M anipulation  |
\*---------------------------------------------------------------------------*/
FoamFile
{
    version     2.0;
    format      ascii;
    class       volScalarField;
    location    "0.03";
    object      Qdot;
}
// * * * * * * * * * * * * * * * * * * * * * * * * * * * * * * * * * * * * * //

dimensions      [1 -1 -3 0 0 0 0];

internalField   nonuniform List<scalar> 
814
(
3.9536072765
4.0088974133
2.74604056195
600.719472353
825.396989267
1447.67989686
43412.0456235
103939.963611
762731.547923
1892988.76737
10611121.3908
356065305.182
3731843.05273
16501417.2924
204407477.73
5048113.80334
16935945.2573
98693160.6902
5449472.74052
13718217.0013
44377400.7711
4973871.96641
9483456.10603
19378371.6796
3945104.71226
5890338.00972
8458123.31095
2768160.8296
3397039.18657
3808601.74248
1745176.9812
1869452.71202
1841758.51576
1015722.25064
1021710.06012
1014582.29958
578964.215524
595985.149594
680866.580885
361601.349155
407287.353101
557424.407004
275732.89741
337931.746769
513077.548569
248952.619638
312229.067409
477760.901065
235523.330509
290080.705847
425621.947064
213576.010588
255084.796009
353812.748229
176867.239104
206709.845566
277333.487767
142426.87281
166199.495953
223282.05708
117448.85547
137344.67616
185609.187404
95155.5492924
110752.809678
147845.677605
74230.1520327
85208.1044567
110805.566507
54973.7272394
61987.8863128
77894.2753166
46736.2102717
52174.307386
64839.6242591
200934.430233
224808.927279
280225.002157
3220632.16102
3422099.99076
3893339.80515
49243742.3069
50857754.6312
54358989.7194
270685190.235
271061220.293
273280330.93
61277254.1272
60390153.7
58364928.8404
8141673.80796
7978665.59688
7671891.1923
1295573.86504
1271879.98441
1222244.37542
128397948.727
743736632.526
226547936.158
70343473.4149
23267633.3109
8470613.74283
3584326.36225
1835860.75821
1191831.30403
979496.505767
915070.773597
871706.757421
788748.959097
663214.618971
515569.253133
391490.688818
317936.076883
265338.436273
207509.486567
150422.271063
101640.567552
84277.5782304
368525.915085
4599981.978
59466914.7092
276990513.11
55676395.0267
7278978.55647
1157429.21116
19434.3903632
6679.59051644
3505.85155876
1801.79487119
834.532575917
358.217972777
114.898225241
27.8153340958
6.14771111046
1.23922091866
0.225046326492
0.0368959083097
0.00544560387943
0.000727114772378
8.61879324504e-05
8.78408248311e-06
7.19503509159e-07
4.39845439619e-08
1.88524772544e-09
9.49486479847e-11
3064748.86975
1493080.91976
298578.641713
82003.9629107
22565.2767386
6619.32219483
1476.9788599
282.752077878
52.5436049289
9.28445631127
1.52538100979
0.231256107495
0.0324273195755
0.00424843914556
0.00051275689764
5.4630882369e-05
4.73374497567e-06
3.07014170747e-07
1.3992951283e-08
6.22685524049e-10
40527415.3945
76450699.9374
12659215.6835
1653932.35211
223637.018551
40393.7761915
6663.10500769
1110.83800184
186.866373316
30.9098750661
4.86314271456
0.7179433352
0.100461750396
0.013577623598
0.00174101406776
0.000199675224346
1.84732938759e-05
1.27767207103e-06
6.09076749103e-08
2.40794037054e-09
400352711.375
541160351.938
130833555.565
20133336.1393
3413334.66163
400090.668657
36061.2117816
4692.1024352
670.824759044
102.119485564
15.4534351619
2.25133648473
0.32006649062
0.0454908562065
0.00626738535908
0.000773492723415
7.59687162996e-05
5.5770887784e-06
2.83003537537e-07
1.64141195546e-08
510251549.358
99815573.0262
303657947.654
169472616.508
24675176.2696
3606521.95274
381324.061179
22200.5872386
2404.05987394
324.438680314
47.4608171384
6.95541677239
1.03079309319
0.157708297303
0.0235910221095
0.00312764575802
0.000324706759883
2.52227636713e-05
1.38507466395e-06
1.36323613558e-07
139295308.506
15953051.5828
61810793.2632
244930797.289
39722129.1541
6318663.77227
738854.004655
58417.196725
5757.90489528
793.986367712
123.985621441
19.543033555
3.16521711141
0.536353297445
0.0879347314787
0.012499442285
0.00136825709542
0.000111813587524
6.69567242775e-06
9.60251234586e-07
36536090.2286
11832666.198
59433821.2781
177844954.419
29170859.3399
5009359.8923
677347.984754
78739.78243
8867.26827275
1569.51922806
279.227764967
49.538595413
9.14619827195
1.75758562206
0.317586329234
0.0483155369876
0.0055659060611
0.000475340534362
3.07423176823e-05
5.31057446551e-06
11802084.409
13548295.2024
76979352.2218
161257936.409
22741257.9985
4062711.20295
613422.409175
90768.767066
15191.3770013
2888.91426744
573.237899041
117.734867238
25.4663902721
5.58537167972
1.10790088098
0.179720663747
0.0217423308909
0.0019302955954
0.000132185452119
2.38316133195e-05
5428225.6514
14072737.7533
81443072.6422
185043615.19
23566221.4793
4068374.01048
618812.057358
103692.68745
21606.0138627
4658.77098025
1058.50022024
275.009128195
70.7744168685
17.4669535436
3.75175972977
0.645204485008
0.0818407503137
0.00752826368959
0.000534280709075
9.18362358542e-05
3410760.24875
12788370.4479
74202540.3394
225161952.891
28294958.6631
4608069.62453
660109.845532
115747.80484
28639.4287528
7833.50348727
2066.52610852
659.526864846
200.53287162
54.3042996651
12.4150476849
2.24888710274
0.298960734272
0.0284511249407
0.00205466879231
0.00031475043939
2447092.3244
10194916.7336
59834537.7048
267897854.438
33535427.8928
4841914.80624
649760.038503
129077.75205
39985.2140263
14397.6920688
5186.02739833
1705.30116279
557.051910943
166.206325991
40.1878112128
7.64254975516
1.06534379821
0.104844643536
0.00760049371824
0.000976685041944
2080691.69812
8668956.17728
52630421.4669
300458707.771
35585286.2905
3963246.67181
592229.7872
176579.528251
73122.8594476
31299.6210285
12834.7285968
4907.33633862
1591.97595069
462.445941411
124.147349846
25.0648123139
3.6794256834
0.37471075597
0.027115772464
0.00277000762832
2042030.18967
8597137.39704
52217016.1067
351461503.607
32338387.8996
3061473.25914
788933.186257
362639.477378
174062.251084
78071.0898825
32422.8429974
12479.2174677
4469.57874733
1318.6611309
345.775370652
75.1331329277
11.9165606343
1.26788432536
0.0919338698536
0.00729530791179
2028961.08604
8245813.94581
48331647.6928
369349882.978
28960540.8561
4230936.94212
1694635.51882
852253.200733
411634.373626
184828.024826
76446.7978482
29364.3880038
10453.6212578
3394.61671801
937.276884804
208.909152209
34.9077613524
3.90643085919
0.28678212639
0.0181279233846
1888243.24786
6883041.96884
33118473.2368
163318913.184
34581051.7421
8702158.12368
3794948.19355
1811112.86859
844702.604156
375102.088723
155570.944457
60160.0210006
21692.2601842
7265.26624167
2163.00299354
521.792960957
92.2580781968
10.804531425
0.806978546139
0.0430820164518
1592477.12674
4959949.47837
17640157.6204
49688162.092
54285533.7825
16820658.8272
7116042.44301
3247625.34902
1481262.18942
654180.420224
273799.687621
107404.005887
39421.2704091
13600.4519871
4280.03212301
1107.76885708
210.891474816
26.4000739483
2.04221747312
0.0994380249074
1216739.40481
3167548.49544
8631947.42731
19528718.2444
39801043.3523
28157097.1665
11230986.9855
5108873.62515
2403216.61267
1106164.19495
478326.525147
190105.255333
69608.8680388
24018.0463332
7783.52550732
2141.81914255
440.672500825
59.6144006258
4.86055477878
0.231483737818
872210.161356
2082176.70456
5280406.5051
11947138.1867
24399366.7952
43099577.9763
16845196.8219
8079897.89375
4280362.00924
2214414.519
1037428.91296
425003.210047
152413.354794
49590.0673742
15414.9714159
4323.26506794
947.78111147
138.414057138
12.0284046838
0.589424082458
665117.224911
1632455.09492
4136515.14132
9336505.48197
18697861.0485
33493110.3993
26379030.1849
14238376.0143
8948264.43002
5446319.78921
2853296.38712
1242348.23595
460115.448596
143169.154176
40324.9375744
10795.7405551
2445.29491284
382.372458312
35.619281166
1.85121940868
561392.881765
1402917.99763
3409299.51224
7385610.4604
14009798.2477
22939255.5795
36027896.1631
27309479.7075
19480103.0544
13853279.6299
7934226.45222
3778241.46353
1511434.02218
497625.395216
136781.063537
33469.6937998
7581.61261869
1271.64166541
128.530212158
7.23472393971
469244.820391
1124051.00016
2543426.34647
5151488.28024
9097633.97867
13835405.6718
19958729.2196
29457979.9628
44558591.8804
32955267.2911
19476943.8625
9859633.86527
4375149.75213
1614237.07182
487009.172445
115442.6839
24478.0876333
4297.89081907
480.830087278
29.8116713646
354603.625559
784475.406322
1623732.82357
3035659.52875
4984873.55954
7181636.50977
9846396.92337
13415256.7986
18232463.6929
26315402.8052
42360409.642
21087588.8795
9904518.76548
4111988.6769
1423388.73507
382562.162723
77574.2468116
13168.0290429
1588.61905846
108.526530448
243724.043249
491515.011943
928295.97258
1602735.68945
2496044.34261
3619313.31966
5214415.98147
7510457.83898
10844454.5291
15548548.8606
23520419.5336
37276032.0842
17337444.8044
7812727.85862
3070394.38706
981760.991547
220319.663949
35034.6700841
4228.86934716
314.280220803
156115.785242
291775.344666
524546.344736
911805.946278
1597857.97876
3029230.07483
6137288.3116
10598293.0193
16408391.6976
23574222.9711
32034796.8613
43045276.7437
23082596.864
10766163.0054
4691088.40588
1712530.28957
460667.964331
75431.9275967
8648.07672219
684.236627327
131864.330894
273099.489242
603289.814789
1435476.20158
3629236.74487
8792085.21675
16428022.7894
26323885.1153
38316456.6016
52545581.9931
68563020.7168
43350086.4269
20679396.7885
10732425.5352
5240105.5515
2146875.14373
662332.964269
117601.397816
12821.3340425
1031.12467077
593673.062052
1286521.44738
2963425.50774
6947000.87166
16018600.2998
28748251.7687
44971360.6461
64848265.4866
88290374.0859
117210952.446
65771058.839
28983834.3828
13301715.615
7144384.21957
4097779.1727
1954744.64521
654082.829358
123944.110522
13480.7116341
1068.71375896
6351091.19832
10998971.5415
20879625.7673
38145713.8939
59477259.1793
84661909.3921
115955165.393
153390914.743
167236631.963
74789567.1482
32403107.8901
13923468.1338
6546242.75448
3681595.85361
2347171.19208
1297433.66463
466229.574217
89201.202651
10078.9890497
674.001466548
70844778.687
92424555.5695
118599904.245
147682259.912
184908334.627
223544648.99
229076547.92
120334135.609
55419344.6863
23869077.627
9969668.97758
4457450.92368
2390610.16695
1622249.75002
1233260.22033
747095.727201
262394.317423
49056.9724989
6570.63943504
419.728720733
285390266.002
276755041.785
253263908.158
198264945.069
130310173.983
79530590.737
43896847.2132
21579569.4042
9754223.72822
4335292.63372
2017459.90829
1118732.59867
836835.532132
755724.053471
647872.668933
391852.754132
142426.792696
29727.5203481
4588.83455172
265.127030024
49557820.0087
40984292.9988
31705893.6848
22520770.0994
14608429.17
8763280.04269
4886147.93299
2531435.96794
1245384.38862
650501.459376
413817.280557
352047.731113
380471.109205
404765.155391
362609.349193
214600.542991
76931.0659045
18510.4351999
2928.01347019
154.067622978
6466319.24132
5295173.09796
4059265.34369
2817192.3237
1762985.74763
1027537.02428
580042.879151
329273.562193
198963.256922
144358.826773
137778.811038
162245.820828
203667.767073
230294.39179
207228.378855
114056.23107
41282.6992549
11211.877922
1627.62114555
82.6347942537
1023664.59384
806908.268903
583657.805901
386701.673861
239381.792841
143910.751822
88419.5318546
59936.8681767
49577.8494484
52445.0709599
66059.1340781
88409.9275727
115313.269739
3.26127364324e-08
1.06257624711e-07
2.20723476272e-07
3.25539122793e-07
1.13787214396e-06
9.43739613718e-07
4.81785062704e-06
2.72072641666e-06
1.70356207017e-05
7.51109138502e-06
5.22375794053e-05
1.98930815119e-05
0.000142915157031
4.9380742892e-05
0.000356635542646
0.000115743787817
0.000824702838636
0.00025808893697
0.00179898261193
0.000553678173847
0.00379401958674
0.00116203415257
0.00787710068737
0.00241290583976
0.0164159960792
0.00503240633443
0.0357255429676
0.0108993343705
0.086712978402
0.0254505749245
0.249860287559
0.0642542681654
0.834632215031
0.163661643335
2.91843918944
0.368385924915
10.8148443185
2.01055652308
31.8754634371
4.2545652262
65.6464604353
8.07927965778
95.5959278083
11.5794533359
92.5743117573
11.00845285
67.3569684927
9.00956998751
46.4656244075
6.87794365188
31.6447400149
5.10981931722
20.225861402
3.61199081467
12.1322844741
2.40716917386
)
;

boundaryField
{
    inletfuel
    {
        type            zeroGradient;
    }
    inletair
    {
        type            zeroGradient;
    }
    outlet
    {
        type            zeroGradient;
    }
    axis
    {
        type            empty;
    }
    leftside
    {
        type            zeroGradient;
    }
    burnerwall
    {
        type            zeroGradient;
    }
    front
    {
        type            wedge;
    }
    back
    {
        type            wedge;
    }
    procBoundary0to1
    {
        type            processor;
        value           nonuniform List<scalar> 
27
(
127416.302127
125518.647679
121594.683778
116240.440116
131645.308992
115182.845247
59218.7486005
22249.8804807
6296.07453845
802.100610143
41.2664206158
104966.437067
85048.4673123
63491.7272066
44251.125171
30030.6682147
21188.2803398
16875.8389675
16432.4036157
19782.7093353
27090.2173424
38258.610026
52367.4705789
131645.308992
66860.6272386
6.7488369687
1.46595452517
)
;
    }
}


// ************************************************************************* //
