/*--------------------------------*- C++ -*----------------------------------*\
  =========                 |
  \\      /  F ield         | OpenFOAM: The Open Source CFD Toolbox
   \\    /   O peration     | Website:  https://openfoam.org
    \\  /    A nd           | Version:  7
     \\/     M anipulation  |
\*---------------------------------------------------------------------------*/
FoamFile
{
    version     2.0;
    format      ascii;
    class       volScalarField;
    location    "0.03";
    object      T;
}
// * * * * * * * * * * * * * * * * * * * * * * * * * * * * * * * * * * * * * //

dimensions      [0 0 0 1 0 0 0];

internalField   nonuniform List<scalar> 
814
(
294.217721007
294.219082968
294.226888465
294.366457933
294.371431006
294.395303349
294.488983301
294.507196272
294.583516091
295.253901316
296.928206407
321.947045615
296.57379673
300.519555843
337.435778348
298.776919333
305.873995682
352.707717088
302.29763211
313.438401398
368.177034139
307.784902017
323.605027077
383.533790202
316.320738949
336.932583463
399.176488474
329.317421816
353.86426201
415.180738716
348.056736473
374.523217049
431.860442935
372.90820043
398.668945647
450.010424165
402.877240533
425.900475844
470.72181951
436.904307976
456.711954273
496.249160336
477.142231543
494.950355051
532.349595647
532.118605376
550.26741222
590.284430606
612.501955322
633.127894482
679.645617986
710.51611499
733.276924661
784.302137346
793.405651236
815.799005434
865.490805036
844.295323912
865.453436986
912.27087756
874.575496318
895.072983081
940.349279312
896.799607798
916.636623161
960.183816841
918.262129278
937.153867777
978.16658605
939.578887653
956.563663753
993.040750213
959.420234627
973.280838558
1002.66845514
978.777581163
989.067689354
1010.61542513
1014.86788789
1021.94217807
1036.79027226
1265.7820672
1274.13938299
1292.84323751
1824.51001668
1826.1515367
1828.09371518
1231.98607378
1227.0983198
1217.06455505
836.368767217
834.428601397
830.866889971
718.83255414
718.42974492
717.627612734
545.03266762
552.541359868
524.17647627
509.192323598
501.41907557
499.622712061
500.896144577
504.883824274
512.872660084
526.170746643
547.66548577
584.551088096
649.610559145
749.6523326
858.979259937
936.344432442
978.667245454
1004.42552703
1021.14982123
1034.67707143
1042.35005341
1041.49828092
1038.71292358
1056.3958312
1318.82377485
1830.01486624
1203.61409934
826.215013826
716.625219443
296.145498993
296.130446923
296.093442121
296.066102239
296.050126945
296.042272844
296.03898456
296.038153456
296.038547072
296.0395885
296.041038091
296.042859312
296.045047526
296.047556019
296.050268507
296.053026154
296.055617452
296.058211811
296.060818009
296.072992062
314.677234206
304.036691813
297.775854147
296.252418107
295.67334136
295.508678086
295.469926946
295.47479729
295.488250002
295.503281412
295.515347282
295.525872879
295.534575574
295.541845669
295.548747308
295.553374075
295.559200911
295.561629253
295.564991808
295.553640533
460.069831543
505.291555531
358.734359384
309.751908619
298.290754022
295.938629854
295.255363301
295.099631109
295.075429225
295.085080814
295.099184085
295.112810624
295.124280158
295.133769193
295.142353483
295.148155855
295.154745826
295.157633586
295.160342467
295.183233961
1001.76174654
1903.53524088
1017.71666062
502.082764109
352.901113849
307.259504747
296.872674627
295.326879594
294.997597089
294.93917472
294.939228985
294.949585136
294.960411635
294.970044836
294.978378482
294.985221107
294.990635502
294.9952086
295.003979494
297.061202996
1127.56757474
1757.88820761
2278.38650861
1543.3121379
638.048492425
389.039336315
316.446300185
297.542362644
295.44500038
295.054093595
294.992295894
294.990751261
294.999056905
295.008166451
295.016093485
295.023584638
295.028135008
295.034081961
295.049270371
296.819025049
991.968850212
1540.77168562
2255.74793899
2089.78976316
860.757458574
451.593042772
335.557763017
302.58920319
296.509245051
295.356586283
295.129252809
295.092977776
295.094169784
295.101787151
295.109363967
295.116672675
295.12099961
295.12708599
295.155503199
296.989728269
903.895616957
1436.12485658
2214.25085617
1763.50397636
805.470186668
456.649286602
345.232888018
308.669440144
297.989929661
295.895263806
295.326797378
295.199769511
295.178611607
295.18081846
295.187163573
295.193829737
295.197779874
295.203559992
295.246072257
297.382634634
826.138601873
1305.37813544
2118.85044284
1589.05394042
763.406297854
463.950838705
356.885773168
315.939246015
301.483899726
297.00278637
295.7158416
295.370286268
295.283927995
295.267906647
295.269841747
295.27578315
295.278902304
295.285057475
295.336713013
297.749248266
761.066083856
1185.15922754
2005.00728308
1666.39777591
801.51966944
493.568794153
375.797966981
326.472120824
306.760651604
299.051432351
296.546203277
295.773812125
295.509765576
295.435292146
295.421822924
295.425700036
295.427988081
295.435868772
295.493493856
298.136385162
709.476389611
1081.694433
1906.52927323
1829.83030548
891.411651358
543.475519331
403.420047146
341.943001375
315.411995867
303.549670853
298.436870107
296.750108121
296.044079481
295.793587889
295.728406112
295.723158592
295.725110936
295.736583999
295.803132585
298.718985948
674.32805822
1000.34089808
1833.0819635
1967.67433836
981.676071892
599.753087478
440.181521587
366.273448377
330.403769367
312.709333846
303.6506025
299.055286052
297.238933848
296.543714243
296.32031407
296.280354387
296.281696362
296.299400167
296.387110993
299.685586902
657.996521903
956.79254534
1795.26930751
1976.75333527
1037.91585444
671.243558918
501.777096551
411.708822148
360.253127355
330.858096931
314.095937024
304.853875265
299.95700702
298.025347823
297.427272566
297.277314679
297.27105025
297.297310456
297.433524908
301.247421468
657.898885144
958.391464995
1784.13516876
1943.98251929
1122.85970486
806.477964254
623.101307132
502.00148651
419.798893461
367.148249254
334.685331757
315.880179183
306.005374659
301.089677872
299.416582771
298.985701865
298.943724265
298.975742121
299.206836018
303.669900618
676.883452766
1002.82673482
1832.24827626
2041.43050059
1384.71575109
1079.98815075
847.297755664
662.419771354
523.606437041
430.789788607
371.634606405
336.291427877
316.666344796
306.971538527
302.970109083
301.78183593
301.611557391
301.631154223
302.017313835
307.260814058
725.569848277
1104.16943056
1914.03414889
2346.12022677
1850.01833957
1497.67206524
1178.26943752
899.149769805
680.471893202
528.090106432
429.397296041
369.351774538
334.768493174
316.760814377
308.834812525
306.131793243
305.604737983
305.558688629
306.157214689
312.320432782
819.353180691
1263.43148336
2003.09869865
2466.0487993
2329.790844
1947.95850932
1546.32412736
1176.88142007
876.345545706
656.073740903
508.727160967
416.601032941
361.89979222
331.995341905
317.874345788
312.498253003
311.204506684
310.981752901
311.822809948
319.073721829
947.670502348
1406.76052099
2026.25456636
2431.6032255
2577.99147635
2290.10756019
1859.46594377
1444.79521839
1087.10685798
807.701064533
609.959923652
479.825228575
399.650119552
353.959003723
331.005654407
321.390489424
318.619428175
317.985890187
319.046853323
327.630243515
1054.67822712
1469.44471311
1983.33132088
2353.5246332
2546.63008096
2489.14046797
2104.73105531
1696.91480305
1324.18384918
1002.57831032
751.796215551
571.423894856
454.409784417
385.801155189
349.725256968
333.423444433
327.961959799
326.487229308
327.670895341
337.943614967
1111.4974559
1480.7039698
1926.74488812
2269.80498267
2472.01934346
2496.8807591
2270.19094126
1954.86417104
1634.21078178
1294.01576724
989.598284234
733.578195469
550.04061878
437.916367165
378.230901035
350.055905025
339.461922068
336.254192498
337.323194513
349.799241765
1139.38377028
1473.24719464
1864.65825733
2182.82084293
2386.90855049
2460.05637485
2400.17632067
2202.31300805
1979.84649949
1727.72529016
1384.55787403
1040.75739479
741.007773142
537.807069235
428.203357263
375.320350547
354.108415083
347.112773024
347.549273411
362.851315366
1154.56874825
1455.4250546
1798.47347456
2087.24803312
2287.4121326
2390.97120638
2411.00876912
2379.2498378
2307.83461059
2171.82345218
1909.66681645
1537.3292285
1112.99724062
747.473928819
527.314574834
419.395711856
374.81453652
359.355981168
357.951421627
376.764462024
1160.24870125
1425.6187876
1719.17872115
1973.21019436
2159.96537064
2272.31898833
2323.44929481
2345.69775921
2365.14453304
2384.15318165
2334.00398057
2082.14790643
1653.51472116
1134.96016951
723.755681066
502.985035159
408.413669391
374.418643037
368.362564133
391.191057123
1159.97196531
1387.08217728
1630.32090653
1843.21412512
2003.66239478
2104.86922351
2159.86266758
2205.46632446
2264.63827667
2334.76386711
2398.23921052
2382.64796927
2115.36830303
1639.51021989
1056.24084766
653.770831086
465.114899598
394.910853442
378.923079703
406.754176422
1149.68723402
1334.89513216
1525.99217624
1690.33899471
1812.43118447
1894.55093078
1971.24993481
2058.9017639
2154.29934287
2245.96797553
2315.79100059
2349.66843474
2242.21937194
1968.23551967
1436.55439721
864.607153517
548.077226697
421.975536522
389.778525706
423.345832188
1124.99934297
1263.38125748
1401.80257841
1518.78230168
1611.79848545
1703.94272621
1825.59583711
1959.44525265
2084.91612604
2173.67740247
2197.18001159
2135.18174213
2074.00115191
1992.67309034
1682.07208625
1083.23730192
639.491919238
449.55397382
399.87831001
440.846376615
1098.38069553
1191.83987686
1285.39406534
1373.23956851
1474.19148314
1614.67684776
1778.11195405
1934.15813399
2047.430644
2064.07342128
1942.42684462
1817.90996646
1781.48945428
1809.34313108
1703.51483527
1213.52587686
695.427222953
465.169832055
407.334380702
459.34821689
1098.92904203
1170.13788323
1261.77471528
1381.58385656
1530.37965166
1696.10211941
1847.45806078
1935.81750307
1929.15838178
1736.55174054
1564.60670157
1486.26788489
1514.59838064
1605.40983391
1589.05206101
1195.47600333
685.115788216
459.944975363
411.59619893
479.022947652
1378.99616901
1481.66434777
1590.95068608
1690.76428674
1780.63212706
1840.21928736
1821.60104329
1659.62387894
1454.88000206
1301.26002591
1231.08147222
1245.24132035
1331.78584171
1442.53500595
1434.93390349
1069.0725503
612.16047169
441.515044636
418.031102857
497.050761092
1830.52652698
1801.68256113
1743.34000467
1659.33017358
1537.56452853
1391.35425117
1243.61749804
1122.34810208
1047.32490881
1025.4412173
1051.8176415
1116.83041717
1207.24410776
1279.71064832
1186.82176589
833.497303697
542.333806053
432.402041281
427.068422683
511.670995759
1171.47823373
1125.48273906
1070.45520714
1012.19517007
957.750371185
911.968123335
881.18737478
873.050324679
887.903617956
921.46434287
967.25803002
1020.3605347
1071.12252884
1068.53696646
928.641002785
676.328888609
493.417160775
427.65706615
437.348459506
523.107917673
816.189090123
800.683561448
784.101509558
771.337438789
766.624803859
771.062809392
783.802336454
803.352872643
828.502251039
857.094148714
885.468232617
907.031038957
913.179505415
871.751648819
745.632329795
570.983283149
461.209482871
426.146824154
448.020006816
531.707368943
714.734411768
712.531864236
711.852287132
713.966471307
719.793965915
729.555584999
742.676356345
757.946425809
773.739921564
787.401426998
795.095431805
791.989622956
772.253158528
371.706892473
377.475624178
341.306676828
357.007553792
325.565976983
343.058381305
319.928041282
338.692276242
318.326083237
338.524397108
319.249563417
340.955400309
322.188251439
345.585430988
327.080022348
352.274850367
334.034038954
361.079810713
343.254518441
372.190440858
354.906046241
385.793729858
369.184783951
402.175886716
386.318128141
421.796033723
406.677671325
445.374418011
430.969963804
474.002109859
460.3449124
509.054389856
495.406144311
550.834283936
534.367596615
596.881295495
571.091905924
644.245547162
605.062164711
679.693648971
635.67791218
699.094141765
656.72817797
703.453055396
666.355393808
694.447487071
660.459653733
674.438524162
644.332709897
649.126423055
624.271004072
623.729348836
604.935040347
601.483937569
588.890264339
583.695786931
)
;

boundaryField
{
    inletfuel
    {
        type            fixedValue;
        value           uniform 294;
    }
    inletair
    {
        type            fixedValue;
        value           uniform 294;
    }
    outlet
    {
        type            zeroGradient;
    }
    axis
    {
        type            empty;
    }
    leftside
    {
        type            fixedValue;
        value           uniform 294;
    }
    burnerwall
    {
        type            zeroGradient;
    }
    front
    {
        type            wedge;
    }
    back
    {
        type            wedge;
    }
    procBoundary0to1
    {
        type            processor;
        value           nonuniform List<scalar> 
27
(
689.758358197
689.549587961
689.123811381
688.581480742
719.160399499
620.520128745
505.256778406
441.512210614
427.503815402
458.361159265
538.049637467
687.572792519
686.359864424
686.153693386
687.814552785
691.842919801
698.051148036
705.485536713
712.686905263
717.942864302
718.832475008
712.109141693
694.211283918
719.160399499
662.29179391
577.111155769
570.307717637
)
;
    }
}


// ************************************************************************* //
