/*--------------------------------*- C++ -*----------------------------------*\
  =========                 |
  \\      /  F ield         | OpenFOAM: The Open Source CFD Toolbox
   \\    /   O peration     | Website:  https://openfoam.org
    \\  /    A nd           | Version:  7
     \\/     M anipulation  |
\*---------------------------------------------------------------------------*/
FoamFile
{
    version     2.0;
    format      ascii;
    class       volVectorField;
    location    "0.03";
    object      U;
}
// * * * * * * * * * * * * * * * * * * * * * * * * * * * * * * * * * * * * * //

dimensions      [0 1 -1 0 0 0 0];

internalField   nonuniform List<vector> 
814
(
(0.897212399916 3.08024650063e-15 61.1208638309)
(-3.10905828908 4.52579859852e-16 60.5516971207)
(4.30377658812 1.7544409867e-16 57.3590169876)
(0.827807519574 2.91126484657e-15 63.7950160436)
(-1.51488079274 5.71918982406e-16 62.6875702993)
(2.16688688763 1.96366807218e-16 57.5752965135)
(0.552406310399 -5.90370657483e-15 64.9172727492)
(-1.31844759443 -1.43884991163e-14 63.3809619608)
(1.12784291875 -2.11467722449e-14 56.6069675402)
(0.201913110232 -9.4780518898e-13 63.8747536051)
(-1.8650358558 -1.45291467252e-12 61.7152811806)
(2.36839582067 -6.09657968277e-12 49.8619538509)
(0.303796967771 -1.27303539086e-10 63.1222620697)
(-0.479113189655 -7.90796538419e-11 60.4117107108)
(1.91690315815 -1.5629829779e-11 48.3232836471)
(0.217810184505 -1.52447445219e-10 63.0098179472)
(-0.198407664829 -7.78667249485e-11 59.6293166175)
(1.15133825336 2.39415679378e-11 47.0460947946)
(0.0901460797366 -8.74086077175e-11 62.0065937605)
(-0.140392662074 -5.82673355276e-11 57.9191961066)
(0.630017493345 5.3925005182e-11 45.3449831906)
(0.0781554773429 -4.33695557317e-11 60.6292515428)
(0.0294635142404 -3.40806192335e-11 55.9109567924)
(0.496218786572 5.63974350262e-11 43.8433713886)
(0.097721449712 -1.97493519423e-11 58.8728026405)
(0.196938086472 -1.661263999e-11 53.7123338252)
(0.51099725621 3.5208869881e-11 42.5322583019)
(0.139902153098 5.65331205629e-11 56.4891061853)
(0.361899018539 8.70151177818e-12 51.2170575939)
(0.613226689414 2.46398710951e-11 41.1894151807)
(0.201514435008 2.62363992114e-11 53.3188237899)
(0.512139147743 2.29336886823e-11 48.3247317174)
(0.735549376627 5.6768782452e-11 39.5736075846)
(0.260419094857 2.66843821175e-11 49.34664563)
(0.626240296943 7.70639089571e-11 44.9612032691)
(0.835729918961 7.04438339257e-11 37.5112800015)
(0.301774726857 1.87423085138e-11 44.6976302373)
(0.713133443337 4.96034264025e-11 41.0973885627)
(0.941187163259 5.40418031393e-11 34.9136123832)
(0.331082544153 -1.34053207696e-11 39.4717902863)
(0.799929684694 -5.52619887595e-11 36.6664478065)
(1.09105608684 1.26391180161e-11 31.6571105298)
(0.351780059648 9.39273159036e-11 33.6164113064)
(0.877143634756 1.85700922099e-12 31.5067637545)
(1.25046490705 -3.33565424026e-11 27.5428809533)
(0.342677943351 1.08195702283e-11 27.2976784623)
(0.865625724822 3.46611000384e-12 25.7570382579)
(1.26226309261 3.89469040078e-13 22.7204903351)
(0.279557001564 -1.53606964505e-12 21.3617778324)
(0.710076408761 -7.60741667115e-12 20.2845791723)
(1.04036947274 -1.74114761628e-11 18.0899312127)
(0.176638243904 -1.45092109959e-13 17.050257135)
(0.447142941915 -1.70334146567e-13 16.3265303997)
(0.649544271032 3.12722487092e-12 14.8269693025)
(0.0784473872427 -3.860890623e-13 14.8172123706)
(0.20168586956 -1.2523777417e-12 14.3056740272)
(0.291002052335 -3.27917307043e-12 13.2330134824)
(0.0207680815977 -1.31883526275e-12 14.0335549104)
(0.0539702423459 -3.90225017393e-12 13.6147568868)
(0.0712109706812 -7.41504692251e-12 12.7318982585)
(-0.00772320888928 1.45543500143e-12 13.9998906195)
(-0.0218290463395 4.18174073235e-12 13.6164487145)
(-0.0444174497135 7.17427720552e-12 12.8107240315)
(-0.0166691149935 4.85882879451e-11 14.3550805206)
(-0.0435124646487 1.35044496962e-10 13.9938778468)
(-0.0777270973258 5.58916590607e-11 13.2386812377)
(-0.0221211569293 1.74878683002e-11 14.8642547951)
(-0.06021610292 4.43601682489e-11 14.5240565403)
(-0.105126217449 3.6216961033e-11 13.8141593895)
(-0.0103178629701 -1.09024942863e-10 15.3339745351)
(-0.0311395878756 1.6763820213e-11 15.0225458674)
(-0.0604239223197 1.04461565974e-10 14.3720213897)
(0.0173055304119 -2.99540068533e-13 15.4824167991)
(0.0440747136557 1.34474837224e-11 15.2105333073)
(0.0610926592132 2.68816216115e-11 14.6381915059)
(0.0746667716115 5.59430509819e-11 14.4758943743)
(0.191526337913 -1.1380719297e-10 14.2298910654)
(0.297009854715 -1.31323815524e-10 13.6994804967)
(0.183470766922 -9.4373015012e-12 11.3071802825)
(0.468213000969 -3.17429700148e-11 11.0680488552)
(0.723109652202 -4.25363099316e-11 10.5503319532)
(0.304260978269 -1.00863549523e-11 2.59204433248)
(0.801117212642 -2.89464354522e-11 2.39845646391)
(1.26896616715 -4.7760372924e-11 1.92386181899)
(0.200235051303 -4.23253957242e-12 -4.84076753783)
(0.516056624698 -8.67617194519e-12 -4.84035975187)
(0.808188227962 1.22891568967e-11 -4.87863461552)
(0.0700731547907 -3.4045150378e-11 -6.41935666258)
(0.180845700008 -1.14306559721e-10 -6.39931530296)
(0.286104275807 -3.12499758567e-11 -6.3858897481)
(0.0336964517979 -3.73932771032e-12 -6.73388077764)
(0.0895484302621 -9.39560572799e-12 -6.70404301139)
(0.144501261036 -8.07241443552e-12 -6.67001740633)
(0.0053408980965 -9.73584928379e-12 -6.7480307685)
(0.0125093251162 -2.59755667641e-11 -6.71676220268)
(0.017357398726 -3.25547802837e-11 -6.6769801078)
(-2.03695165046 -4.5493628482e-11 14.1022774531)
(0.32941277574 -3.06843104583e-11 20.3170740063)
(0.283358803615 -2.56934940516e-11 26.1457955266)
(0.0841382825876 -1.71742222398e-11 28.7066942374)
(0.230411321589 9.65273953711e-13 30.2308126067)
(0.408548969144 1.07004499701e-11 31.0716643696)
(0.574075869805 1.89690447254e-11 31.3630211556)
(0.731172701117 3.07923070148e-11 31.064861744)
(0.868553201406 4.08484136312e-11 30.1226339766)
(1.02964837862 4.35605416296e-11 28.5448874864)
(1.25795671442 3.13848320072e-11 26.2479099335)
(1.50185284378 2.82939485687e-11 23.0566039174)
(1.53933645926 2.7587612086e-11 19.1622143238)
(1.26485933728 -3.13809490983e-11 15.4777261101)
(0.776346726943 1.56613951609e-11 13.0140579859)
(0.335531600323 -9.85127126693e-12 11.8927901189)
(0.066372661693 -1.20863241243e-11 11.59653434)
(-0.0782188725506 1.32706536613e-11 11.7628765477)
(-0.122816636549 1.69434845956e-11 12.2559775473)
(-0.156980944726 2.62470846074e-11 12.8921633253)
(-0.0999804829789 5.43577535984e-11 13.5272612956)
(0.0660450931126 1.71556440897e-11 13.8942518128)
(0.391188046209 -9.3548110479e-11 12.995419878)
(0.968323554667 -4.15278151788e-11 9.84758942966)
(1.70690351634 -1.06518636719e-11 1.26601873014)
(1.08534758097 4.8113650317e-11 -4.94664879565)
(0.390019776963 -1.76180532947e-12 -6.37159757005)
(0.196095690996 1.87868695877e-12 -6.62663780218)
(0.0222347292448 -2.29169713272e-11 -6.62858188573)
(0.0522956812334 -4.14346527783e-12 1.7424697769)
(0.102753271395 -3.54768096245e-11 1.79880066759)
(0.0917431169961 -9.08872042296e-12 1.7953483291)
(0.111445219473 -2.30494688096e-12 1.87451468136)
(0.126217480789 -5.45127437217e-13 1.88636534682)
(0.132437678532 -1.29154168182e-13 1.91072360247)
(0.126436619055 -4.73656883856e-14 1.91800009762)
(0.122295842318 -8.65990496209e-14 1.92581664165)
(0.110733982289 -3.17423194658e-13 1.92779448695)
(0.103892862993 -1.2702616723e-13 1.93109406143)
(0.0931685439478 -7.90626623633e-14 1.93268212014)
(0.0861839160655 -2.51183018486e-13 1.93538354394)
(0.0754341130344 -2.39024944899e-13 1.93784171018)
(0.0692527864158 -4.84664549523e-14 1.93983332574)
(0.0541891173549 -6.23668508783e-15 1.94316630809)
(0.0516042051021 -6.4571318811e-16 1.94346956054)
(0.0290452644981 -1.07362700899e-17 1.94763679786)
(0.0330690957487 8.02191678595e-15 1.94661179797)
(0.000510623486291 1.39691408626e-13 1.95207789336)
(-0.00295815147563 3.16138541268e-15 1.94540942854)
(0.253453216582 -1.02139591667e-11 1.65022710919)
(0.325919679212 -6.77638985945e-11 1.85077147367)
(0.488237873121 -2.43011513642e-11 1.84988525127)
(0.520386911336 -8.34887236936e-12 1.73853095369)
(0.432264190651 -2.41130979255e-12 1.74360165566)
(0.414592838888 -6.53264663623e-13 1.78316612555)
(0.366463330399 -3.34279717029e-13 1.79800701748)
(0.337454393006 -1.16078181866e-12 1.82224408073)
(0.301002410335 -1.11617534538e-11 1.83173105887)
(0.276926541388 -2.53141206887e-12 1.84309340762)
(0.247732060149 -9.89276199931e-13 1.84950419592)
(0.22530140661 -6.77171766091e-12 1.85734192721)
(0.197216668075 -6.4280022096e-12 1.86385785648)
(0.177219637294 -7.48371973845e-13 1.8690027015)
(0.143082989358 -6.37973565081e-14 1.87678823708)
(0.130408108264 -5.66073178836e-15 1.87776864625)
(0.0848469392874 -1.02959047293e-14 1.88795807575)
(0.0826753277979 9.0964110983e-14 1.88567589296)
(0.0197151879323 4.04138476125e-12 1.90622982524)
(-0.0230991830943 5.41320149613e-14 1.8777401205)
(-0.620550478073 -2.82050804468e-11 0.904757707142)
(-0.121607664318 -4.92836506325e-11 1.80053365265)
(-0.105742286897 -2.49746142698e-11 1.33038162846)
(0.261217927199 -1.05097039471e-11 1.71767040191)
(0.47397485678 -3.94238007328e-12 1.64453379203)
(0.482405446843 -1.31478239974e-12 1.74235876323)
(0.437393266992 -6.97779024167e-13 1.72020313335)
(0.407084825301 -1.77657764822e-12 1.75807154176)
(0.356984330169 -8.45465943779e-12 1.77057663768)
(0.324524348225 -3.16157796179e-12 1.78730186253)
(0.285894460267 -1.58684052832e-12 1.79727145661)
(0.257078377986 -6.03608661917e-12 1.80856507034)
(0.222220619173 -5.74957087304e-12 1.81759739395)
(0.198742030445 -1.00386533219e-12 1.82473024223)
(0.158810057887 -1.04915870187e-13 1.83498894325)
(0.146638928328 -2.15645019522e-14 1.83663918351)
(0.0943117552956 -2.29245155812e-13 1.85078459019)
(0.0983097949031 1.39051892991e-13 1.84809598156)
(0.020817154924 3.90339337314e-12 1.88541124665)
(-0.0398832439728 7.51947447329e-14 1.84023136115)
(-3.81068262095 -5.58179488124e-11 3.2029958331)
(0.314306672296 -5.62418342558e-11 2.09228352202)
(0.528249736432 -2.93830205769e-11 1.4282117837)
(0.653682566842 -1.50787862978e-11 1.61990544639)
(0.528794287997 -7.19409975566e-12 1.48899920355)
(0.591095088454 -2.70392191202e-12 1.63979401549)
(0.484354336773 -1.62017019449e-12 1.64782527604)
(0.460224113737 -2.78694751747e-12 1.70199784445)
(0.383655694297 -7.05348156704e-12 1.71749314044)
(0.341104006333 -3.48404445135e-12 1.73891656479)
(0.293027654587 -2.21381419725e-12 1.75126014071)
(0.259433997686 -6.105853715e-12 1.76483906747)
(0.220220513502 -5.41874670884e-12 1.77561770036)
(0.196221444615 -1.19719976886e-12 1.784359452)
(0.154036641762 -1.38921596428e-13 1.79627250294)
(0.145975849934 -9.57598073449e-14 1.79879981637)
(0.0911388382778 -2.91799153819e-12 1.81564757566)
(0.107891676642 1.2188614406e-13 1.81386217486)
(0.0195122308345 5.67805607026e-12 1.86434194244)
(0.0584352502539 -2.2689249874e-15 1.80950947419)
(-0.138880594142 2.08493951052e-11 6.89048572804)
(-0.428511854457 -1.97558227849e-10 1.70757748229)
(0.233257416427 -5.79446207324e-11 1.76836088526)
(0.644122005865 -2.45647695082e-11 1.63567096608)
(0.653978876401 -1.04246332072e-11 1.78638632929)
(0.664289616281 -4.80819885116e-12 1.67731265756)
(0.542708132115 -1.13578537241e-11 1.64653691766)
(0.509559499688 -1.27279113131e-11 1.65966390337)
(0.410555604187 -8.45760199266e-12 1.67760842467)
(0.359757233967 -4.16380614322e-12 1.69890590911)
(0.302552856195 -3.37641346443e-12 1.710995102)
(0.264752001872 -1.28840967812e-11 1.72495630427)
(0.221574838977 -6.3855867121e-12 1.73632867509)
(0.197046918882 -1.50466474511e-12 1.74594411222)
(0.152704559578 6.70072993348e-14 1.75853290994)
(0.148373754503 -1.54079305098e-13 1.76179901723)
(0.0912867902021 -2.5087547796e-12 1.77965202298)
(0.121708338759 1.31129310523e-13 1.77891146618)
(0.0351313267914 5.45407940824e-12 1.83183592391)
(0.150083611992 -3.36852770542e-12 1.81916544559)
(0.0972589359066 -9.66498364403e-11 10.089340034)
(-0.595967834376 -2.09583996663e-10 1.62684810517)
(0.536207323167 -5.16652997474e-11 1.25579500881)
(0.677211510488 -2.9426385424e-11 1.48610424653)
(0.662021109091 -1.36702258649e-11 1.74659585466)
(0.672657422337 -6.53375838858e-12 1.60976799457)
(0.592747676569 -8.37218237904e-12 1.6551515663)
(0.551905760462 -1.70654514486e-11 1.63867920332)
(0.450872280128 -1.00345199318e-11 1.64845276595)
(0.390928279148 -5.202561342e-12 1.6608745381)
(0.326567545265 -8.13464050075e-12 1.66937905487)
(0.284724156511 -1.14557790297e-11 1.68200710019)
(0.23704371105 -1.22493868383e-11 1.69303173078)
(0.21066445711 -2.22826425513e-12 1.70313538042)
(0.162875020946 3.89380839595e-12 1.71584254931)
(0.160208682067 2.44832063041e-14 1.71982397174)
(0.0993682817057 -2.2909645967e-12 1.73698103008)
(0.140495955634 1.51450324584e-13 1.73608103876)
(0.0519271386012 7.25483514396e-12 1.779552059)
(0.219185261067 -2.69753564126e-12 1.73643816571)
(-0.359996486944 -8.38932052064e-11 11.5037047112)
(-0.867554709118 -1.08036876259e-10 1.38392240407)
(-0.450196131691 3.7662254617e-12 -0.123347942077)
(0.636854070385 -1.6620744232e-11 0.919584422788)
(0.740798067903 -1.21012197207e-11 1.48941632396)
(0.713645768391 -7.38242667882e-12 1.58704055988)
(0.645203461255 -1.73389989461e-11 1.64992642036)
(0.587867339161 -1.55113300081e-11 1.63265126753)
(0.495058322961 -1.04499952653e-11 1.62109779684)
(0.429980992924 -6.11349888535e-12 1.62372663552)
(0.361249949592 -8.03178388132e-12 1.62745493092)
(0.31566155522 -1.07660623404e-11 1.63836297417)
(0.263042127302 -1.05997827118e-11 1.64837994748)
(0.233660224316 -2.57630449024e-12 1.65878231525)
(0.18139536691 2.7755393386e-12 1.67121869229)
(0.178442381096 6.54770154451e-14 1.67592093121)
(0.112593148655 -2.17628168487e-12 1.69082406918)
(0.160119597794 1.4625228712e-13 1.68964896839)
(0.0630894094102 6.86839215003e-12 1.71300922658)
(0.27163584607 -2.29300429458e-12 1.64187764752)
(-0.28777370233 -2.76723445857e-11 13.1982765609)
(-0.867216130635 1.30190029021e-10 2.27942403096)
(-0.769343617522 6.66467376997e-11 -0.379515752373)
(0.439733044458 -1.92535098297e-12 0.825656182891)
(0.691276277711 -8.73168535406e-12 1.40833439133)
(0.700955288758 -7.76119999151e-12 1.60898314016)
(0.658343117163 -1.3076266332e-11 1.63830124454)
(0.613715759816 -1.43156679528e-11 1.61533629411)
(0.531202613778 -1.06219036869e-11 1.58658072016)
(0.472027952699 -7.72665143426e-12 1.58362099014)
(0.401313451035 -1.66534824645e-11 1.58353652924)
(0.352457661959 -1.19288690471e-11 1.59402558001)
(0.294558948893 -1.00321565963e-11 1.6029152392)
(0.261526024985 -2.91930857579e-12 1.61355146546)
(0.204231186923 2.12286745845e-12 1.62547382744)
(0.19949418341 9.53121310063e-14 1.63101402294)
(0.128090533838 -2.05875057762e-12 1.64274175958)
(0.177015502147 1.23091620998e-13 1.64222713792)
(0.0712080271701 6.64238503018e-12 1.64133305031)
(0.274299973066 -2.04108108327e-12 1.56746120669)
(-0.129928656736 2.12555316086e-12 14.8973733488)
(-0.878405554311 8.51779434591e-11 3.07804466566)
(-0.900265143333 1.51620057542e-10 -0.732820524431)
(0.387756303614 9.24980883806e-12 0.416372744834)
(0.651547765747 -3.99158020395e-12 1.26286447712)
(0.671066636323 -7.21664438829e-12 1.51309387776)
(0.659801381911 -2.52539485718e-12 1.58472442261)
(0.635506928939 -1.11007222447e-11 1.55849721852)
(0.569201492593 -1.07619333307e-11 1.54236322289)
(0.519287131879 -1.84309576064e-11 1.5369034638)
(0.447147663117 -2.36127237578e-11 1.53794023011)
(0.395047388264 -1.36024990828e-11 1.54915712138)
(0.330915658832 -1.00696177639e-11 1.55735407888)
(0.293532004196 -3.61370750117e-12 1.56772477557)
(0.23072374072 1.40155500774e-12 1.57882070409)
(0.222802686214 1.01651246259e-13 1.58534240588)
(0.145426068553 -1.91958787038e-12 1.59358465865)
(0.191375601447 8.22973610711e-14 1.59473643484)
(0.0773819454569 6.4504675271e-12 1.57301679716)
(0.25009962589 -1.78617614671e-12 1.5032437922)
(0.0788709275437 3.38112409802e-11 16.4580663552)
(-0.697451475983 1.75671454429e-10 4.08637297292)
(-1.00522784122 6.31231836871e-12 -0.793942777759)
(0.425958440783 -1.10499915097e-11 0.000393503360958)
(0.676382465301 -8.29632853013e-12 1.00860710501)
(0.692378035922 -8.66628675171e-12 1.33006363192)
(0.696399215518 -1.87877634428e-11 1.47825718211)
(0.67418937618 -1.43278255887e-11 1.47850933765)
(0.62446136831 -1.18238093558e-11 1.48656812083)
(0.573787061471 -1.54006530443e-11 1.49178347706)
(0.503698513352 -1.93742833972e-11 1.49223035796)
(0.445780474168 -1.37814438073e-11 1.50396199552)
(0.374258850171 -1.05829949416e-11 1.51224898176)
(0.331382033792 -9.46102896556e-12 1.52179766151)
(0.262537382385 -4.14827599016e-12 1.53166881897)
(0.249808181553 -3.32273913878e-13 1.53921533777)
(0.16580213063 -1.79879682124e-12 1.54420091553)
(0.205086398851 1.97411667936e-14 1.54787707882)
(0.0832861876875 6.2153478099e-12 1.51108532174)
(0.219334754428 -1.5097614395e-12 1.44772386222)
(0.325776377006 2.48889320125e-11 17.5096730816)
(-0.228900251556 1.899987223e-11 5.17162999921)
(-0.943607549093 -6.69904935771e-11 -0.669596502657)
(0.475605665616 -1.00576827394e-11 -0.314454466419)
(0.714094436389 -1.15736743541e-11 0.739943683052)
(0.725898384997 -1.02168554418e-11 1.13312089946)
(0.754044667422 -1.35531739361e-11 1.34608371907)
(0.727433068452 -1.28240985456e-11 1.3838943785)
(0.697126262912 5.02011895093e-13 1.41913023559)
(0.641499031293 -1.16365398965e-11 1.43724278304)
(0.565516529323 -1.74655694625e-11 1.44853244808)
(0.507138153466 -1.40398926479e-11 1.46068584302)
(0.427495268742 -1.67045985933e-11 1.46593775576)
(0.377367660259 -9.40469724647e-12 1.47690965198)
(0.301679829886 -7.74524651974e-12 1.48445765042)
(0.282246121373 -8.49155424968e-13 1.49307478017)
(0.190731045871 -1.70858982728e-12 1.49539226237)
(0.220117075305 -6.67956692149e-14 1.50241085319)
(0.0906077872489 5.8214561216e-12 1.45557504739)
(0.191791324167 -1.252549744e-12 1.40017815652)
(0.608411666284 8.62956126956e-12 17.7936257375)
(0.386533892424 -8.41133863328e-11 6.10233814974)
(-0.744988312283 1.29768557704e-10 -0.356874522623)
(0.572465112142 3.11860933703e-11 -0.436151904018)
(0.791283349744 -2.74992736236e-12 0.526042771118)
(0.786654536748 -9.65245373098e-12 0.929839015418)
(0.825911119395 -2.59722829277e-11 1.17719242655)
(0.78808024455 -1.59387552066e-11 1.27742906121)
(0.775464831423 -7.70253223997e-12 1.35494418916)
(0.718617851711 -1.22613129995e-11 1.38417642176)
(0.646528697967 -1.6296334833e-11 1.41143067649)
(0.57507412901 -7.50960580021e-12 1.42296094931)
(0.490724280366 -1.34463868576e-11 1.42799421744)
(0.434122093104 -9.75863042866e-12 1.43364080869)
(0.349129374699 -6.91168657113e-12 1.43970701492)
(0.321342119315 2.31959164805e-12 1.4480681665)
(0.221434454496 -1.49764186353e-12 1.44830142203)
(0.237626914076 -2.07313754255e-13 1.45928791587)
(0.100789007762 9.05607718464e-13 1.40623811517)
(0.169615000928 -1.26989856394e-12 1.35945832302)
(0.956890543781 3.19690173622e-11 17.4379034429)
(0.893900202386 6.72854626745e-11 6.62171136759)
(-0.370650441287 3.3697735489e-10 0.280377312477)
(0.770123362682 7.4005188255e-11 -0.235898853633)
(0.935482773676 5.91127024991e-12 0.419575984627)
(0.863074195902 -9.60444213653e-12 0.737975567112)
(0.913129402089 -1.94392486546e-11 0.97524577783)
(0.867999915803 -1.58977901338e-11 1.14136514065)
(0.850898157057 -2.46556078456e-11 1.27329055345)
(0.794403074996 -1.66309301906e-11 1.32886497843)
(0.724828436091 -1.63188237032e-11 1.37046234931)
(0.652676102208 -1.82060914617e-11 1.38394264799)
(0.562047564472 -1.46944023815e-11 1.38892059594)
(0.497054637401 -1.06719054828e-11 1.39224806616)
(0.406293984856 -7.53957789839e-12 1.39417781858)
(0.367074086559 4.17496147023e-13 1.40374949443)
(0.258698309344 -7.8162293448e-12 1.40291818028)
(0.258396527223 -7.80144602826e-13 1.41889905987)
(0.11460544338 1.68325721468e-12 1.36376762714)
(0.152663245904 -5.41543291388e-12 1.32407039237)
(1.41396062903 5.17405972769e-11 16.384718324)
(1.27206774383 1.2979252748e-10 6.69303537659)
(0.266786689248 4.41502606962e-10 1.07250400492)
(1.02502561754 1.26077006855e-10 0.31897610161)
(1.13662364448 1.84637886215e-11 0.280357397786)
(0.999042756275 -1.07670219641e-11 0.519492605952)
(1.01322772295 -4.12151318152e-11 0.71598194903)
(0.949126810899 -2.16338755427e-11 0.952481177875)
(0.923201654565 -1.91321939421e-11 1.15222237269)
(0.858043389792 -1.67224921617e-11 1.25832308162)
(0.803775859226 -2.52297758698e-11 1.32863149293)
(0.727505598017 -1.79262612753e-11 1.34516984495)
(0.641126508851 -1.49203437283e-11 1.35394369482)
(0.571721244273 -1.16202393785e-11 1.35429571498)
(0.471933443647 -1.65842541952e-11 1.35425422416)
(0.421840025846 5.47161308368e-12 1.36424924425)
(0.303627782291 -5.01230159207e-12 1.36230960833)
(0.283680307514 -1.02507007486e-12 1.38303290754)
(0.132735230759 1.40939936018e-12 1.32904782509)
(0.140620442246 -4.06998006116e-12 1.293710996)
(1.84621130729 1.42987183736e-10 14.5321748913)
(1.57954399639 1.68651656293e-10 6.26548923792)
(1.0314877596 3.13110131312e-10 1.72503847365)
(1.16806965486 2.31347348264e-10 0.791636157891)
(1.13521521181 4.15329789414e-11 0.0615962357163)
(1.07579300056 -1.40483601115e-11 0.165903355981)
(1.01866612819 -4.08336754849e-11 0.345951883764)
(0.99361318479 4.65696067891e-13 0.719073518185)
(0.968874279571 -3.48733072972e-11 0.966970992851)
(0.913597737592 -2.33997426788e-11 1.16487666385)
(0.864812674736 -2.25814400171e-11 1.26644165505)
(0.799671761937 -1.83370419571e-11 1.30114191493)
(0.722569594027 -2.17228283899e-11 1.31330609048)
(0.648893013625 -1.3908878333e-11 1.31419203187)
(0.548299107445 -1.79948387566e-11 1.31074565009)
(0.482974199164 6.54760197766e-13 1.3252995088)
(0.35525622013 -4.65254816105e-12 1.32336934449)
(0.313416994295 -1.33683348377e-12 1.35022769834)
(0.155010461276 1.06609985932e-12 1.29946316045)
(0.132804467481 2.57444191777e-13 1.2672255146)
(1.88420863179 8.937449406e-11 12.2341638151)
(1.4969118531 1.19599367439e-10 5.64888623033)
(1.02071073747 1.81323399894e-10 2.04216694961)
(0.949689080427 2.3472762873e-10 0.763652487708)
(0.909630311076 4.16810170805e-11 -0.0715486652662)
(0.962862669547 -3.20780059431e-11 -0.274990606734)
(0.968397352938 -1.00356950867e-10 -0.0620052083051)
(0.924062642706 -4.17853811604e-11 0.373650919226)
(0.916600971399 -3.43547438662e-11 0.728646866416)
(0.916813635601 -2.76496578958e-11 0.996997473511)
(0.89057763394 -4.74676936753e-11 1.16361112756)
(0.848542799621 -2.61330198334e-11 1.23809549807)
(0.794654809532 -2.0029436016e-11 1.26494160318)
(0.730967251307 -9.60230403213e-12 1.26842817607)
(0.631170208943 -1.48046343855e-11 1.27363767652)
(0.556603606767 -1.49193951438e-12 1.29060214957)
(0.416418118023 -4.40873557606e-12 1.29308135446)
(0.349959988485 -1.62145856576e-12 1.32419540615)
(0.182426437538 7.91462696282e-13 1.27741178838)
(0.129184727515 -8.7763050276e-13 1.24693616997)
(1.46035422735 -9.46772399087e-11 10.4131054067)
(1.05528451249 4.03414416431e-11 5.41746038724)
(0.710036917649 2.39993904084e-10 2.2715731327)
(0.648150733429 2.06792133941e-10 0.714677144581)
(0.582236510006 1.93915417888e-11 -0.0934299450213)
(0.549435170013 -6.06721797119e-11 -0.466482427681)
(0.576832728103 -6.36973862759e-11 -0.345030416079)
(0.675512115656 -4.28450356841e-11 0.0142613318288)
(0.731911396346 -4.82203603981e-11 0.414485102876)
(0.812632793275 -3.54123888328e-11 0.761829484318)
(0.868332941431 -3.63436523329e-11 0.965649801383)
(0.871697448301 -2.6963565801e-11 1.1109017025)
(0.84752826513 -2.03870817315e-11 1.18766112614)
(0.808317412399 -1.32516169673e-11 1.21498023363)
(0.724970347547 -1.459202325e-11 1.22677512081)
(0.636509191203 -3.63328048281e-12 1.25728029336)
(0.486478231899 -4.26793573164e-12 1.26364439121)
(0.391550467127 -1.87045376949e-12 1.30417722237)
(0.214428870805 5.13825300458e-13 1.26003431827)
(0.127385790293 -7.62395146455e-13 1.23162273929)
(0.840590775954 6.93204584478e-11 9.50545344894)
(0.54559899665 -7.82925277108e-11 5.44988920532)
(0.321895047733 -3.17396080518e-11 2.45870916808)
(0.224396293982 5.54093194084e-11 0.720960169477)
(0.151462024839 -2.42041439314e-11 -0.201778188353)
(0.155333201815 -1.01600147728e-10 -0.538177724362)
(0.140985154786 -7.42757484755e-11 -0.545668011557)
(0.225347135972 -5.34741948997e-11 -0.28984790252)
(0.444971820671 -8.69317853715e-11 0.00888085032094)
(0.590531941559 -4.43254053632e-11 0.328064845978)
(0.742255736238 -3.92506100158e-11 0.638654716236)
(0.873485816712 -3.85252212877e-11 0.88136894413)
(0.896467503995 -1.65039940767e-11 1.03352755033)
(0.878169002322 -1.31462848267e-11 1.12452813196)
(0.817661539811 -1.42122576042e-11 1.17720775751)
(0.733549650893 -5.59083655064e-12 1.22475853571)
(0.570203400378 -4.37604529374e-12 1.24397120826)
(0.444919957957 -2.11930952919e-12 1.29344751057)
(0.252484875188 9.64329463233e-14 1.25219528141)
(0.129216120033 -8.41583010122e-13 1.22431962974)
(0.31926930425 -4.79728217875e-11 9.23323802179)
(0.113922170419 1.81822562378e-10 5.60090820851)
(-0.0661068774859 1.3165301786e-10 2.70015902458)
(-0.196948917657 5.59539050668e-11 0.915290515321)
(-0.303613175825 -5.17525755661e-11 -0.0450190287788)
(-0.322500563992 -1.73067090816e-10 -0.448428059627)
(-0.33535092813 -8.15771422549e-11 -0.555886161138)
(-0.245471168295 -5.92367658607e-11 -0.485411180925)
(-0.0899380643673 -5.57721492032e-11 -0.341370054065)
(0.31872026111 -4.1824384495e-11 -0.137501422421)
(0.676559486049 -3.98912403185e-11 0.149419410417)
(0.844286759318 -3.32725014359e-11 0.507348181644)
(0.939148128287 -1.93742821888e-11 0.833040879633)
(0.974754137748 -1.43393951687e-11 0.986002949597)
(0.934848750853 -2.26175960392e-11 1.11121538234)
(0.838935066364 -9.23226729657e-12 1.19118462637)
(0.668889468701 -5.04286832176e-12 1.23087484511)
(0.505706881667 -2.47088265449e-12 1.29305830775)
(0.296023482791 -5.21603874219e-12 1.25079990852)
(0.131084029623 -5.51826618889e-12 1.22588760234)
(0.0201112622878 -2.12005640188e-11 9.29175143168)
(-0.177032095318 7.21123578426e-12 5.92723823589)
(-0.375866505834 2.09264457895e-10 3.14223738312)
(-0.531624796212 5.91898895383e-11 1.33273862671)
(-0.695504788329 -3.7368143967e-11 0.302224280365)
(-0.730575894505 -8.34979019586e-11 -0.2067437284)
(-0.678140722115 -8.04855164986e-11 -0.421841074049)
(-0.607940679048 -5.77675102067e-11 -0.545591855519)
(-0.392157912882 -4.26356135203e-11 -0.62927779906)
(-0.122589872329 -4.00520410323e-11 -0.526007750712)
(0.463681869159 -4.00426016622e-11 -0.413136071955)
(0.984553192549 -3.54325454224e-11 -0.0366439200393)
(1.05209686564 -1.06997347632e-11 0.466295934237)
(1.06648130887 -1.27576095544e-11 0.823265709531)
(1.06998959925 -1.72424075285e-11 1.00374031571)
(0.971024245524 -1.05594778785e-11 1.17107141042)
(0.787911279271 -5.74933106863e-12 1.22314552795)
(0.581049599153 -2.86233698874e-12 1.30549450204)
(0.346489187802 -3.92371147532e-12 1.26192171693)
(0.142528430608 -4.33599108555e-12 1.23658651557)
(-0.15285287007 3.26300826062e-11 9.66196267686)
(-0.380750929565 1.06967722336e-10 6.52190782173)
(-0.6310400211 2.15911145509e-10 3.84656060909)
(-0.830970611 4.79587727465e-11 2.00198731503)
(-1.01728174958 -4.35530943679e-11 0.874311600761)
(-1.08315560268 -8.77316970274e-11 0.233411542282)
(-1.04884739016 -9.17779284404e-11 -0.160594366238)
(-0.921542055886 -5.51425568345e-11 -0.476271614406)
(-0.583606986236 -1.82770451073e-11 -0.76526135759)
(-0.190781521873 -3.52609407725e-11 -0.963224692197)
(0.299425131157 -3.96653433453e-11 -0.875669935149)
(0.946402275355 -4.16846316013e-11 -0.507661037547)
(1.27496143587 -1.86279475992e-11 -0.00477329254904)
(1.27342692052 -1.39440556527e-11 0.651356913205)
(1.2519246478 -1.64233691003e-11 0.925169466398)
(1.13539946108 -1.91600280305e-11 1.15926818613)
(0.916071669317 -2.43693422511e-12 1.24669751299)
(0.667828947906 -2.44552953298e-12 1.34406526508)
(0.40161654982 -4.05216461504e-12 1.30041725663)
(0.152338031562 -4.56808095048e-12 1.26685071349)
(-0.217974768918 -2.56417837722e-11 10.2992855681)
(-0.459538131106 1.48819847552e-10 7.35104790855)
(-0.720988936608 2.56708471323e-11 4.75512829341)
(-0.934630644629 1.02778267165e-11 2.83143100982)
(-1.10082331775 -4.37784948184e-11 1.53443676752)
(-1.13344620998 -9.14633107912e-11 0.684364319793)
(-1.03753074328 -1.43704680633e-10 0.0257907080618)
(-0.810404609567 -6.5942465478e-11 -0.559585208992)
(-0.384943256776 -8.01753814451e-11 -1.13138007756)
(0.0872878373874 -2.93077061408e-11 -1.54449075124)
(0.671695495283 -3.6971126846e-11 -1.55973904744)
(1.23465891025 -1.39169306127e-12 -1.19092316071)
(1.55534457991 -1.06333328996e-11 -0.524726495988)
(1.50079974491 -1.1923533657e-11 0.288027451313)
(1.42906554041 -1.49985746469e-11 0.879030023514)
(1.30884901009 -2.34888043487e-11 1.16154298835)
(1.0670843861 -2.21467814827e-12 1.31577735232)
(0.763487011507 -2.15876192654e-12 1.42445790644)
(0.459921058425 -3.9206826239e-12 1.37821372102)
(0.176844858599 -4.67051708783e-12 1.32614448746)
(-0.256800468163 2.08901273418e-11 11.0649846256)
(-0.494696496277 8.66301484362e-11 8.28591969428)
(-0.762119522265 5.73080248766e-11 5.74554166168)
(-0.983472613671 3.27805834785e-11 3.70885186582)
(-1.09415856938 -1.41122228133e-12 2.18331332919)
(-1.03971730258 -1.87767268571e-11 1.01892347766)
(-0.72575692249 -3.4863156405e-11 -0.0729641358895)
(-0.261512002658 -2.42745050517e-11 -1.10358095715)
(0.368061149864 -1.76302614014e-11 -2.02101797123)
(0.932674980737 -1.15743908412e-11 -2.56772298759)
(1.27872138344 1.31078284704e-11 -2.57455552117)
(1.66300064224 -4.08471617339e-12 -2.10122304014)
(1.85363187411 -7.27978074751e-12 -1.28533289693)
(1.83239357719 -8.98966047237e-12 -0.208730985036)
(1.7019868994 -1.25905967602e-11 0.889400009879)
(1.47062001437 -1.77154792498e-11 1.26760354997)
(1.21835521334 -6.19836298787e-12 1.48756005494)
(0.851154947998 -2.73124632098e-12 1.55914672312)
(0.510106747353 5.00161767035e-13 1.51010596285)
(0.17788415977 -4.32186437992e-12 1.4116067764)
(-0.182991989596 1.43210769084e-11 11.8351504852)
(-0.379944740859 -2.59753406392e-11 9.21193320101)