/*--------------------------------*- C++ -*----------------------------------*\
  =========                 |
  \\      /  F ield         | OpenFOAM: The Open Source CFD Toolbox
   \\    /   O peration     | Website:  https://openfoam.org
    \\  /    A nd           | Version:  7
     \\/     M anipulation  |
\*---------------------------------------------------------------------------*/
FoamFile
{
    version     2.0;
    format      ascii;
    class       volScalarField;
    location    "0.01";
    object      alphat;
}
// * * * * * * * * * * * * * * * * * * * * * * * * * * * * * * * * * * * * * //

dimensions      [1 -1 -1 0 0 0 0];

internalField   nonuniform List<scalar> 
814
(
0.000198964588667
0.000122679530872
1.53717915077e-05
0.000164525284799
0.000103671089965
1.3170842051e-05
0.000153610384539
9.81138987285e-05
1.23720496622e-05
0.000125042970195
8.21502819265e-05
2.34877097105e-05
0.000108964392377
7.7517416223e-05
3.9781795777e-05
9.84180225885e-05
7.76895099023e-05
5.51689352835e-05
9.31198667773e-05
8.26458299363e-05
7.08612740384e-05
9.33926369381e-05
9.10185865138e-05
8.5853703413e-05
9.82775502124e-05
0.000101353918501
9.94657229342e-05
0.000106708681119
0.000112560698238
0.000111641044044
0.000117242108718
0.000123728063511
0.000122555096833
0.000128461648467
0.00013407356494
0.000132249126905
0.00013900790014
0.000143110204509
0.000140608936157
0.000148132457596
0.000150613948683
0.000147664362847
0.000155397132039
0.000156725282629
0.000153473360905
0.000160710736261
0.000161232640287
0.000157879650074
0.000164137096805
0.000164148798429
0.000160794731447
0.000166054404596
0.000165659824088
0.000162385746289
0.000166493281292
0.000165934970075
0.00016290578194
0.000166223630113
0.000165660165172
0.000162842784755
0.000165412404533
0.000164860681764
0.000162385410074
0.000164534723707
0.000164062716591
0.000161861791369
0.000163768946798
0.000163338969504
0.000161434232817
0.000163333098404
0.000162986005768
0.000161373864699
0.000163599393005
0.000163297710012
0.000161978893942
0.000164696238322
0.000164484448272
0.00016351160311
0.000166968506509
0.000166869461934
0.000166261234868
0.000170480976609
0.000170545486366
0.00017034605982
0.000175257969875
0.000175527942895
0.000175776413449
0.000181492589443
0.000181906204909
0.000182654177142
0.00018933359925
0.000190045689105
0.000191325928612
0.000199856726164
0.000200703203418
0.000202489762799
0.000453760975226
4.20727447784e-05
5.35632624513e-05
6.57365437793e-05
7.704122944e-05
8.75581304893e-05
9.7469901804e-05
0.000107077422519
0.000116296212774
0.000124980950748
0.000133044899563
0.000140238498768
0.00014606049672
0.000150321445033
0.000153154649314
0.000154834572287
0.00015586124753
0.000156342560952
0.000156625389094
0.000156914374161
0.000157522885162
0.000158770857091
0.00016096075299
0.000164404292221
0.000169224962383
0.000175438682204
0.000183097415107
0.000192612684449
0.000204514821134
3.1383233199e-05
7.33902068113e-05
7.68378926129e-05
7.61896217228e-05
7.58229076294e-05
7.55591325272e-05
7.57936438227e-05
7.61630530302e-05
7.68134769947e-05
7.74321148837e-05
7.80157245681e-05
7.85183620606e-05
7.89111562179e-05
7.92199281997e-05
7.94496283242e-05
7.96251924245e-05
7.97627123098e-05
7.98701876185e-05
8.13189299455e-05
0.000146887069781
3.96300428626e-05
5.4439051506e-05
5.51814937526e-05
5.50250603912e-05
5.59021288082e-05
5.68599002064e-05
5.71812219731e-05
5.75544232624e-05
5.77328402414e-05
5.79505953554e-05
5.81084809082e-05
5.82598435927e-05
5.83759057818e-05
5.84649226587e-05
5.85328425687e-05
5.85814749938e-05
5.86267766812e-05
5.87112145526e-05
6.13690669494e-05
0.000187538071536
6.43366401125e-05
5.99302871651e-05
5.70198336474e-05
5.52195895857e-05
5.55884946603e-05
5.68004847806e-05
5.74675766428e-05
5.77407391238e-05
5.79707270869e-05
5.79928294192e-05
5.81203221915e-05
5.81558124407e-05
5.82511390123e-05
5.82990653396e-05
5.83574458544e-05
5.8395816543e-05
5.84318367434e-05
5.85501094776e-05
6.21530589242e-05
0.000218479880865
6.33554897963e-05
1.18149116743e-05
2.81347703829e-05
5.17935524768e-05
5.6159951503e-05
6.05043664955e-05
6.3275517866e-05
6.41425392427e-05
6.48797847126e-05
6.48550218276e-05
6.51349888258e-05
6.51397059532e-05
6.53236399513e-05
6.54072663607e-05
6.55260832681e-05
6.5613146269e-05
6.56825116227e-05
6.59035286346e-05
7.08187572273e-05
0.000244419147907
8.43373664913e-06
1.32979687418e-06
6.75031222681e-07
2.90167741251e-06
1.61171587088e-05
4.50417983851e-05
6.71187565947e-05
7.45818285559e-05
7.75662524927e-05
7.81214555418e-05
7.89338936754e-05
7.91107434831e-05
7.95253226885e-05
7.97528189369e-05
8.00135634739e-05
8.02264818878e-05
8.0394481713e-05
8.08170427615e-05
8.75871408569e-05
0.000276900256665
9.77905500509e-06
1.65472589154e-06
4.33539559303e-07
9.55608788545e-07
8.02683259226e-06
3.51059499349e-05
6.81077662725e-05
8.57723069093e-05
9.36926959126e-05
9.65049216992e-05
9.86895814391e-05
9.95105324103e-05
0.000100355393841
0.000100861499761
0.00010133944696
0.000101757498505
0.000102104636594
0.00010283903888
0.000112086715534
0.000313818394989
1.42885975123e-05
1.97843264672e-06
4.47675985747e-07
6.81166565573e-07
6.7701563686e-06
3.23891865135e-05
6.97385385e-05
9.63519465388e-05
0.000110531195079
0.000117764696316
0.000122625384086
0.000124966948936
0.000126552251921
0.000127486838638
0.000128228512196
0.000128902346656
0.000129495874979
0.000130622649033
0.000142674100051
0.000349480196078
2.05944115253e-05
2.73708542608e-06
5.44082823643e-07
6.74556096851e-07
7.17535516405e-06
3.32096626636e-05
7.30249583627e-05
0.000105585376269
0.000125889340082
0.000139089481506
0.000148133843719
0.00015324338022
0.000156048148863
0.000157575315379
0.000158584956972
0.000159508648485
0.000160364887246
0.000161891074582
0.000176415802796
0.000376999950412
2.91100808547e-05
4.05071072442e-06
7.29832804778e-07
7.27424275862e-07
8.28065116275e-06
3.61165556991e-05
7.80100471266e-05
0.00011305738927
0.000138156585131
0.000157753257138
0.000172367886989
0.000181627983486
0.000186328340627
0.000188640921967
0.00018989297902
0.000191000647959
0.000192066567577
0.000193911734179
0.000209919346335
0.000392996502778
3.96510997572e-05
6.08521984792e-06
1.03903595919e-06
8.36313388328e-07
9.88705845486e-06
4.07310925912e-05
8.39092936699e-05
0.000118473887959
0.000146323771922
0.00017174671979
0.000192873699586
0.000207541486285
0.000214944955381
0.000218284517887
0.000219756277485
0.000220945827285
0.000222114909734
0.000224131967542
0.000240260344297
0.000396703389036
5.17245051737e-05
8.99780415158e-06
1.51466994927e-06
1.04523292788e-06
1.17682686826e-05
4.6208360716e-05
8.95054075482e-05
0.000122427851026
0.000150287445699
0.000180091199402
0.000208088377681
0.000229058384331
0.00023997571687
0.000244624631764
0.000246325629011
0.000247494940604
0.000248645246144
0.000250662107521
0.000265551502051
0.000389533404563
6.46627791992e-05
1.28970619155e-05
2.20690293386e-06
1.37336266204e-06
1.39501259079e-05
5.1998580506e-05
9.38588531147e-05
0.000124464237621
0.000151248806636
0.000182906580477
0.000217447646719
0.000245183228971
0.000260295706171
0.000266530235616
0.000268504367169
0.00026958358601
0.000270613509706
0.000272477849512
0.000285042682255
0.000374211747064
7.79481320063e-05
1.78840199515e-05
3.18469913317e-06
1.80554450753e-06
1.64376326662e-05
5.76928377273e-05
9.65971007458e-05
0.000124336729212
0.000149981631994
0.000181605226536
0.00022131679092
0.000255870216804
0.000275612189643
0.000283641664388
0.000285948979952
0.000286910856806
0.000287760338885
0.000289364766584
0.000298899811056
0.000353867944325
9.13279259592e-05
2.40745461713e-05
4.54274536188e-06
2.34970653398e-06
1.90556819993e-05
6.27187737225e-05
9.75438190829e-05
0.000122069109349
0.000146575352634
0.000178285147897
0.000220789583564
0.000261819403175
0.000286315208289
0.000296235828888
0.000298924872449
0.000299774954391
0.000300429268333
0.000301715040948
0.000307867888944
0.000331527555177
0.000103355667111
3.19209525918e-05
6.42995607145e-06
3.02193525138e-06
2.16779779065e-05
6.63394167615e-05
9.65595930099e-05
0.000117861595235
0.000141401144371
0.000173464094202
0.000217264840413
0.00026415194711
0.000293236680593
0.000305009479148
0.000308091595856
0.000308848752632
0.000309328881377
0.000310271886714
0.000312944906192
0.000309647024031
0.000113378692051
4.12214980899e-05
9.02252526736e-06
3.85706873146e-06
2.40200830588e-05
6.82030077888e-05
9.36922567633e-05
0.000112048732554
0.000134939943455
0.000167757395744
0.00021229284737
0.000264143062923
0.000297390693064
0.000310843496358
0.000314282615496
0.000314961711948
0.00031530733965
0.000315897155428
0.000315134437635
0.000289874382841
0.000121274522392
5.15922188322e-05
1.2595888338e-05
5.00515956881e-06
2.57598322738e-05
6.8144327783e-05
8.92052245768e-05
0.000105121723738
0.000127822161009
0.000161790422427
0.000207472874695
0.000262980627885
0.000299751969311
0.00031460712013
0.000318325597508
0.000318928208192
0.00031918080905
0.000319399417257
0.000315268644007
0.000273057252038
0.000127379180137
6.20954243582e-05
1.71583603932e-05
6.56810139755e-06
2.66562715413e-05
6.62554923588e-05
8.35288453792e-05
9.76473383628e-05
0.000120691269158
0.000156197326231
0.000203358161196
0.000261596930951
0.000301125036468
0.000317033351087
0.000320926956085
0.000321440827167
0.000321631430033
0.000321430957459
0.000314012412035
0.000259240329178
0.000132214228567
7.14855690187e-05
2.24569772384e-05
8.62043791775e-06
2.67289373404e-05
6.28826974924e-05
7.71614150308e-05
9.01399738845e-05
0.000114047682539
0.000151432709001
0.000200277083081
0.000260644964713
0.000302096356533
0.00031866801352
0.000322621826665
0.00032302606624
0.000323168033899
0.000322503499623
0.000312043427183
0.000248008699566
0.00013592785426
7.96915675378e-05
2.84954118032e-05
1.12237602639e-05
2.61997578529e-05
5.84705888264e-05
7.05304757327e-05
8.29297281137e-05
0.000108153617025
0.000147693887864
0.000198371919964
0.00026050203795
0.000303038063072
0.000319876790349
0.000323775488587
0.000324049307324
0.000324138673863
0.00032299370317
0.000309882638164
0.000239172094409
0.000138792104566
8.70092045128e-05
3.53022534889e-05
1.44895130961e-05
2.53244485234e-05
5.34713733436e-05
6.39352314512e-05
7.61484337412e-05
0.000103024631636
0.000145016641929
0.000197763046001
0.000261293815904
0.000304154266061
0.000320879540573
0.000324616936304
0.000324745669216
0.000324768865079
0.000323159583162
0.00030783698918
0.000232412417902
0.000141173788901
9.39161720992e-05
4.29565150756e-05
1.8615758489e-05
2.45123998844e-05
4.83817823923e-05
5.76157646638e-05
6.98214049442e-05
9.85637712761e-05
0.000143412336093
0.000198494775528
0.000262990048836
0.0003055236371
0.000321792377566
0.000325278601299
0.000325255748377
0.000325199334993
0.000323163572901
0.000306023245544
0.000227208648506
0.000143403824422
0.00010084826788
5.16373424067e-05
2.39263137349e-05
2.43154817791e-05
4.37519317037e-05
5.18497746354e-05
6.39739797139e-05
9.46775018918e-05
0.000142830216566
0.000200499450629
0.000265514329028
0.00030713634442
0.00032266233498
0.000325829866709
0.000325656808858
0.000325513666417
0.000323099354473
0.000304457971555
0.000223105603787
0.000145882978355
0.000108239839576
6.15313688528e-05
3.07946000009e-05
2.53999796939e-05
4.02312534869e-05
4.70243626629e-05
5.8707190731e-05
9.1347421593e-05
0.000143165859104
0.000203670905694
0.000268760092599
0.000308929156595
0.000323495951227
0.000326302928642
0.000325989024403
0.000325758494347
0.00032301429192
0.000303109182777
0.000219745473973
0.000148943584262
0.000116260801251
7.27455289991e-05
3.97601898329e-05
2.9159314762e-05
3.84625287445e-05
4.36529335899e-05
5.42514683537e-05
8.86069836835e-05
0.000144343439514
0.000207998857405
0.000272497275389
0.000310837535431
0.00032428680377
0.000326716386782
0.000326272513979
0.000325960151468
0.000322927984649
0.0003019255768
0.000216867647508
0.000152908379502
0.000125295178457
8.571255955e-05
5.16826903861e-05
3.68269858598e-05
3.92091642142e-05
4.22020887298e-05
5.08494458978e-05
8.65459258153e-05
0.00014655558565
0.000213248327766
0.00027650190431
0.000312801443229
0.000325029048455
0.000327083180762
0.000326520091082
0.00032613518314
0.000322846579292
0.000300853683173
0.000214289272312
0.000158190722491
0.000135623384522
0.000100735642925
6.72524843105e-05
4.88793689824e-05
4.35883925003e-05
4.2835591209e-05
4.87253690341e-05
8.55747423158e-05
0.000149738525881
0.000218933128734
0.000280697750094
0.000314773063111
0.000325723250488
0.000327411864162
0.000326741807312
0.000326293486773
0.000322770191692
0.000299844644395
0.000211884361098
0.000164953080755
0.000147459218143
0.000118084792532
8.69304143782e-05
6.60567542243e-05
5.40084197595e-05
4.55577197237e-05
4.81435237816e-05
8.5484535709e-05
0.000153332133454
0.000224845951993
0.000285007334633
0.00031672321266
0.000326379085385
0.000327709802794
0.000326944962683
0.000326438398771
0.000322694059967
0.000298853749056
0.000209567057576
0.000173194959864
0.000160918695556
0.000137892229283
0.000110784092561
8.85527989188e-05
6.9734108265e-05
4.99900304866e-05
4.8739553671e-05
8.54915970251e-05
0.000156957302662
0.000231043224025
0.000289365078364
0.000318640898867
0.000327006411367
0.00032798743298
0.00032713263439
0.000326568598682
0.000322607483537
0.000297837555429
0.000207276863324
0.000182892696988
0.000176005313113
0.000159998054287
0.000138144558439
0.000115199387082
8.86273682045e-05
5.50864819054e-05
4.96540021547e-05
8.55374569771e-05
0.000160926398316
0.000237544973409
0.000293822898356
0.000320545471321
0.000327612364227
0.000328252300676
0.000327305609488
0.000326682998123
0.000322498955677
0.000296756856481
0.000204972114357
0.000194434981786
0.000192571261506
0.000183349060059
0.000166447147111
0.00014197447345
0.000105903146035
5.9851888461e-05
5.07784252412e-05
8.66298642226e-05
0.000166071090683
0.000244830524692
0.000298527208115
0.000322452316156
0.000328199483458
0.000328494699698
0.000327460901051
0.000326779801579
0.000322353258353
0.000295574012792
0.000202623205122
0.000208129737135
0.000210255173014
0.000205641672879
0.000190781807108
0.000162152536867
0.000115595214746
6.2476271857e-05
5.24741096486e-05
9.09512774004e-05
0.000174526456592
0.000253878020531
0.000303715582665
0.000324347238077
4.63295117232e-05
0.000117238530435
0.000121085383832
0.000149997448278
0.000166620576439
0.000165592284783
0.000181371368336
0.00016171508328
0.000183185550371
0.000156313312851
0.000180733278852
0.000153351580321
0.000177573542311
0.000151865789987
0.000172507376853
0.000149224043855
0.000161694840571
0.000142872713327
0.000147473440976
0.00013473438433
0.000131585843845
0.000126032000012
0.000115313481647
0.000117775116209
9.9325833439e-05
0.000110793831562
8.38426928436e-05
0.000106041619317
6.97351879806e-05
0.000103392976823
5.63366175086e-05
0.000101928016677
4.9422736238e-05
2.3967225654e-05
4.63476962579e-05
2.42146865356e-05
4.43364253807e-05
2.46001795729e-05
4.27730868956e-05
2.50417842581e-05
4.14578156076e-05
2.55215672903e-05
4.02976869123e-05
2.60364823522e-05
3.92394798296e-05
2.65871685707e-05
3.82502848165e-05
2.71755255894e-05
3.73097762451e-05
2.78040178075e-05
3.64046849683e-05
2.84758034869e-05
3.55273555575e-05
2.91937921362e-05
3.46730284275e-05
2.99632055338e-05
)
;

boundaryField
{
    inletfuel
    {
        type            calculated;
        value           nonuniform List<scalar> 3(0.000836847673681 0.000836775854222 0.000836913571832);
    }
    inletair
    {
        type            calculated;
        value           nonuniform List<scalar> 
20
(
0.000398907112722
0.000398906284589
0.000398907418848
0.000398908795714
0.000398913418071
0.000398916972045
0.000398918465099
0.000398913951447
0.000398905354324
0.00039889726183
0.000398895428025
0.000398898287189
0.000398898843651
0.000398893423211
0.000398889449204
0.000398891627959
0.000398890907815
0.000398887404213
0.000398887127242
0.00039889123047
)
;
    }
    outlet
    {
        type            calculated;
        value           nonuniform 0();
    }
    axis
    {
        type            empty;
    }
    leftside
    {
        type            compressible::alphatWallFunction;
        Prt             0.85;
        value           nonuniform List<scalar> 
33
(
2.10228367237e-06
0
1.1617901425e-05
1.91243898778e-05
2.48171877467e-05
0
0
0
0
0
0
0
0
0
0
0
0
0
0
0
0
3.6050717656e-07
8.33908818163e-07
1.33257869102e-06
1.85893842282e-06
2.4143904512e-06
3.00148833876e-06
3.62324090989e-06
4.2829120932e-06
4.98385203912e-06
5.72972131514e-06
6.52383105951e-06
7.3712007906e-06
)
;
    }
    burnerwall
    {
        type            compressible::alphatWallFunction;
        Prt             0.85;
        value           uniform 0;
    }
    front
    {
        type            wedge;
    }
    back
    {
        type            wedge;
    }
    procBoundary0to1
    {
        type            processor;
        value           nonuniform List<scalar> 
27
(
0.000212668254816
0.000213689740213
0.000215746784706
0.000218184533922
0.000328769143985
0.000328722809635
0.000327619386285
0.000326884889135
0.000322184095664
0.000294285741711
0.000200233469818
0.000222684041154
0.000226372217419
0.000222324546485
0.000204724831129
0.000168267560551
0.000111827723088
6.14252616568e-05
5.55838977621e-05
0.000101780989385
0.000189071809901
0.000265644767366
0.000309543834306
0.000328769143985
0.000326198676205
3.38480933667e-05
3.07923716486e-05
)
;
    }
}


// ************************************************************************* //
