/*--------------------------------*- C++ -*----------------------------------*\
  =========                 |
  \\      /  F ield         | OpenFOAM: The Open Source CFD Toolbox
   \\    /   O peration     | Website:  https://openfoam.org
    \\  /    A nd           | Version:  7
     \\/     M anipulation  |
\*---------------------------------------------------------------------------*/
FoamFile
{
    version     2.0;
    format      ascii;
    class       volScalarField;
    location    "0.01";
    object      dQ;
}
// * * * * * * * * * * * * * * * * * * * * * * * * * * * * * * * * * * * * * //

dimensions      [1 2 -3 0 0 0 0];

internalField   nonuniform List<scalar> 
814
(
0.000217265044071
0.00104815033046
0.0108110374595
0.000215083068678
0.0010301702675
0.00686136384243
0.000186403427532
0.000771752631232
0.00434316403857
0.000361697520538
0.00281562092659
0.0593331611061
0.000516598466956
0.00517593684125
0.0864356101213
0.000594745490856
0.004864483866
0.0405429387286
0.000583208606724
0.00374683756558
0.0179312216107
0.000527223020901
0.00254886885107
0.00793222937996
0.00059150302565
0.00252942364708
0.00558004919351
0.000640048195971
0.00255140178446
0.0051593748683
0.000670597254054
0.00251839911614
0.00478503377105
0.000684302681749
0.00244514186594
0.00445525156237
0.000683293434251
0.00234657453319
0.00416086490835
0.000671305708898
0.00223434080626
0.00389423202619
0.000651124627463
0.00211787069719
0.00364882258471
0.00062526839756
0.00199825078875
0.00341724989363
0.000595583403977
0.00187797841086
0.00319496193249
0.000564005825985
0.00175902559282
0.00298098209838
0.000530691941929
0.00164174356432
0.00277467876223
0.000497955395064
0.00153112777431
0.00258169855966
0.000466367527554
0.001427270367
0.00240501889974
0.000437428080916
0.00133467357788
0.00224840482715
0.000411436861508
0.0012525341382
0.00211101634782
0.000388358018434
0.00118063115539
0.00199095165442
0.000368101007125
0.00111755150791
0.00188539157091
0.000349975800493
0.00106147997905
0.00179149683672
0.000333903935087
0.00101179611927
0.00170764533502
0.000319461897336
0.000967291487605
0.00163223834298
0.000306402125601
0.000927131276078
0.00156390951764
0.000294632676778
0.000890585859727
0.00150166111154
0.000283605424275
0.000857034885636
0.00144445669617
0.000273939525389
0.000827072986686
0.00139367405024
0.0359056613436
0.334933756657
0.103383299496
0.0340806510617
0.0121462399068
0.0059049438242
0.00557005943882
0.00525067057718
0.00494906278871
0.00466618710617
0.00440011080271
0.004150088493
0.00390901564368
0.00367429614958
0.00344502745329
0.00322178905009
0.00301364017951
0.00282276141495
0.00265344044056
0.00250422104689
0.00237252701057
0.00225523637809
0.00214957015598
0.00205392116089
0.00196688429135
0.0018872154529
0.00181366885394
0.00174611008584
0.00168614769722
0.00476704516067
0.00328464179918
0.00459653217024
0.00642558319262
0.00873557054232
0.0116296398653
0.0149023078837
0.01888162287
0.0234141851956
0.0289051918673
0.0354288506929
0.0433030640517
0.052788245352
0.0642126880456
0.0779593272955
0.0944723635941
0.114260142613
0.138016790891
0.164796504943
0.142037744942
0.00484238640659
0.00597848909287
0.00910314568295
0.0111378519116
0.0141541532089
0.0172953073387
0.0219033912005
0.0271811220411
0.0339297137346
0.0417458267681
0.0514441080605
0.0629129269464
0.0769458039058
0.0937387248164
0.114023747129
0.138353230608
0.167469989333
0.202327720745
0.236402329118
0.133376632655
0.00891922847867
0.00745112676703
0.0107387700845
0.0122707361566
0.0145981985031
0.0170183198416
0.0208533246191
0.0254141066474
0.0315972332401
0.0387897833658
0.0478994907233
0.0586461411224
0.0718795299609
0.0876970301483
0.106824574088
0.129754261318
0.15717121779
0.189937074124
0.21873163292
0.111944616862
0.208167909626
0.130148763425
0.0513277050744
0.0270655394275
0.0270543264123
0.0283214589215
0.0329893528199
0.0389256746917
0.047855300992
0.0585186962362
0.0723213086938
0.088667899019
0.108873617627
0.13303793986
0.16225742776
0.197293267418
0.239161679486
0.289116973654
0.328893470759
0.188597139058
0.999121463623
1.28640475918
1.39030195264
0.540033085411
0.183684185767
0.0823080080151
0.0593272684935
0.0574396718459
0.0667696780482
0.0803990854528
0.0990454442714
0.12147819252
0.149308328033
0.18267308838
0.222987189968
0.271363354204
0.329180177775
0.398055637593
0.450380000163
0.294572753317
0.449067831972
0.556813019395
1.18474706639
1.08510304679
0.357515582709
0.153189667507
0.0970753659292
0.0827975368641
0.0896437150688
0.105126959936
0.128300669641
0.157048942326
0.192984470022
0.236278602647
0.28855305246
0.35134466984
0.426438332212
0.515775800968
0.58412239721
0.432671343358
0.116486025075
0.15723002376
0.40131118111
1.11929758653
0.430235221044
0.208503329454
0.134951660114
0.113213971379
0.116564459739
0.132726450755
0.159215068849
0.193685623251
0.237486576071
0.290750599329
0.355096233697
0.432469874504
0.525080632176
0.635143970523
0.722789236843
0.594168750063
0.0362452420665
0.055645995123
0.174488721537
0.637166464297
0.454952877923
0.24571781734
0.170212973593
0.146440527103
0.147529962302
0.163788407611
0.191744842915
0.230421598613
0.281030406734
0.343640722359
0.419534112787
0.510915395522
0.620376341977
0.750380617166
0.85958849908
0.76762832614
0.0128686087954
0.0231596444425
0.0975348655592
0.435303721166
0.41933306875
0.250265264436
0.173070822072
0.181078453841
0.182581609709
0.199069108247
0.226521795001
0.267060690419
0.322585788448
0.393289919405
0.479718297751
0.584018889784
0.709028457091
0.857498283252
0.98954703069
0.94778321479
0.0124671888631
0.0127951095209
0.0709413972546
0.344968569449
0.313666842564
0.197079564535
0.16321399019
0.216794013457
0.221738757424
0.239152358804
0.26431887158
0.30395256556
0.36183823943
0.438872745891
0.534499252492
0.6503652828
0.789310726303
0.954480602755
1.11004074918
1.13355081879
0.0122879112255
0.012334072968
0.0623247595517
0.308578589738
0.251167964244
0.160948302701
0.157651103144
0.217915529644
0.264721930227
0.283990355955
0.305526558113
0.341542616455
0.39897192241
0.480303113503
0.583658750073
0.70969856892
0.860960162427
1.04111430949
1.2206028439
1.32693932965
0.0121240322484
0.0123491058201
0.0598381259763
0.300539322039
0.214606868088
0.135704173061
0.153507255946
0.211231287696
0.285619309574
0.332878352426
0.349939101502
0.379962534241
0.4343536545
0.51801177701
0.627698962482
0.762665180412
0.924836929086
1.11853925524
1.32234054526
1.53063884646
0.0119761890623
0.0123322313499
0.0580996302082
0.298908694131
0.193904047135
0.117632816677
0.150862111214
0.206541311398
0.278119151776
0.378359009541
0.396522401066
0.418849317286
0.468288939421
0.552687228105
0.667566483475
0.810470064068
0.982480901257
1.18867346433
1.4173306472
1.74472125594
0.0118396093895
0.0123028516283
0.0563021331981
0.29896194695
0.183661194178
0.104921867802
0.149722938301
0.203708356498
0.273585160209
0.372374969841
0.443572711899
0.457474520148
0.500949961105
0.585081666738
0.704392670886
0.854547717065
1.03569460894
1.25370345673
1.50807745398
1.96679500733
0.0116576614724
0.0123714662795
0.0546854777718
0.301081400567
0.181263071897
0.107708823572
0.149891238377
0.202579049462
0.271747386649
0.370532453554
0.489452362352
0.495133404203
0.532428533913
0.61591669417
0.739300144686
0.896309160861
1.08622676835
1.31571248771
1.59701452034
2.19273729511
0.0114065123521
0.0124420550643
0.0524515140998
0.299837853944
0.185799897714
0.111565576576
0.151163569412
0.20297912494
0.272312134433
0.372312362012
0.523627244059
0.531280076446
0.562842900504
0.645844066535
0.773283097465
0.936986500372
1.1355773718
1.3764694831
1.6862587835
2.41838375739
0.0110805729577
0.0124538827279
0.0501542591684
0.304924913395
0.196383990484
0.116185038182
0.153403413203
0.204798701872
0.275028100797
0.377210040767
0.531458827479
0.565582115143
0.592373779641
0.675419070661
0.807146274288
0.977560193637
1.18491318802
1.43736114417
1.77775377892
2.64020198432
0.010696264621
0.0124167020269
0.0516760602271
0.318944231946
0.21166785332
0.121422246658
0.156602348674
0.207992976898
0.27965215867
0.384841298376
0.543511232792
0.597958828129
0.621237556278
0.705083790443
0.841488000046
1.01874899995
1.23506673047
1.49945858355
1.87277352465
2.85751173385
0.0102880394661
0.0123010725113
0.0557274668225
0.33873869602
0.232011046708
0.127327865535
0.16086818139
0.212556203589
0.285947780481
0.394845029257
0.559177842283
0.628442554299
0.649613760378
0.735150662658
0.876714025442
1.06103879963
1.28658405055
1.56334181622
1.97058407432
3.07325261547
0.00987749302417
0.0121470792321
0.060129652078
0.353145517935
0.259997065706
0.134012302235
0.166342728167
0.218492956533
0.293743565956
0.406893469792
0.577983967969
0.657080235455
0.677589160323
0.765805153286
0.913072993707
1.10473905147
1.3397807156
1.62926547902
2.06993411033
3.28326422271
0.00948159325406
0.0124642986447
0.0631840851179
0.354222637246
0.299978793003
0.141654958931
0.173218464894
0.225913406008
0.302996079307
0.42086912583
0.599841797312
0.683998047243
0.705209347323
0.797182580155
0.950711511535
1.15004414632
1.39484295301
1.69739574615
2.17025995333
3.48834284227
0.00911041769336
0.013234132134
0.0638465558157
0.336976703398
0.357374010227
0.150447284467
0.181847314243
0.23517475207
0.313928351206
0.436979390794
0.62491368419
0.709379457598
0.732578699696
0.829385137236
0.989718498138
1.19707420319
1.45190475101
1.76788118113
2.2718665313
3.69228639067
0.00876290434581
0.0135731438377
0.0610010278285
0.300460012108
0.439291096682
0.160195492471
0.192673991559
0.246876504291
0.327080638604
0.455551579968
0.653460974575
0.733336548191
0.759803163115
0.862477312267
1.03014973692
1.2459030224
1.5110750693
1.84086919423
2.37540342613
3.89826288442
0.00843471537088
0.0131150571454
0.0538017882103
0.241931393878
0.564393233302
0.169887882891
0.205777094192
0.261825154248
0.343163248523
0.476964995182
0.685843665266
0.755882294019
0.78701492933
0.896526364237
1.07204894556
1.29658786776
1.57244834659
1.91650655315
2.48160195481
4.1092272314
0.00812128037473
0.0120793640634
0.0447978385665
0.182552300221
0.648216555521
0.222838995905
0.220089569073
0.280738381627
0.362897183058
0.501691492006
0.722604033848
0.777319353321
0.814375648122
0.931586556928
1.11546982015
1.34918464946
1.63612241092
1.99494476945
2.5911687767
4.32784533594
0.00781964841294
0.0111388660179
0.0357817350934
0.133917220615
0.4572835381
0.363660482729
0.232919350158
0.303873538188
0.387101702229
0.530351737201
0.763853142988
0.798044590585
0.842048542506
0.967730338184
1.16047618979
1.40376360176
1.70220917945
2.07635488492
2.70477151732
4.55650783176
0.0075337924038
0.0109545688115
0.0279038929068
0.0954697232754
0.309248383875
0.687008106649
0.283862750392
0.331188143646
0.416170756669
0.563331524934
0.809091745866
0.818196869236
0.870197508767
1.00506965343
1.20713606492
1.46041019502
1.77082538915
2.16093022487
2.82304877034
4.79746121071
0.00726527848544
0.0107617506238
0.0215512065419
0.0672275249398
0.208839178392
0.634445875712
0.464355236568
0.362625872322
0.450980509242
0.60060771978
0.85821365217
0.838059535404
0.89902042431
1.04375156438
1.25552623877
1.51921638683
1.84208384936
2.24887478604
2.94661110322
5.05291280619
0.0070117216323
0.0105606536485
0.0168528361862
0.0478847883605
0.145143403084
0.452732885688
0.76196735711
0.39978099987
0.493023122421
0.642348166239
0.876479782221
0.857966935216
0.928796865209
1.08390576751
1.30574584997
1.58026760975
1.91610182579
2.34038644533
3.07609230361
5.32519870321
0.00676843649118
0.0103518881006
0.0140313936875
0.036279426926
0.109711308634
0.356782193302
1.14205545304
0.443931264321
0.544125684811
0.689608242392
0.89221795356
0.877907353541
0.959696751703
1.1256138862
1.35788734873
1.64365179027
1.99300830541
2.43566246575
3.2121861453
5.61686700829
0.00654058855418
0.0101420084224
0.0138945310639
0.0325876901842
0.102210316808
0.356842955998
1.48840597965
0.553325026663
0.604089019362
0.743225566063
0.904902740123
0.897344814734
0.99150773691
1.16889429429
1.41197281123
1.70943501783
2.07291626923
2.53496944821
3.35575600845
5.93103518308
0.00634052807136
0.00996640192302
0.0145253034044
0.037934670019
0.12530585
0.467134224403
1.98856796986
0.689933878343
0.667151788539
0.802739918892
0.910176043188
0.914939958935
1.02379460782
0.725024883639
0.293262533573
0.566390039154
0.317288284029
0.547370505367
0.327527938175
0.552254582928
0.32806410768
0.555453074565
0.330360012604
0.553078590937
0.336751262725
0.547690582922
0.346944653511
0.543380514681
0.358169484199
0.545343790662
0.365688861481
0.551274940399
0.370213164085
0.561146161314
0.372046958317
0.575949264427
0.371363543698
0.598326531113
0.368012989518
0.635027796717
0.361396699266
0.699904121435
0.351848735262
0.817855717933
0.338768926635
0.913563412354
1.45647918295
0.976057181712
1.53069104045
1.03561372731
1.61745004551
1.0976945113
1.71250208195
1.16378078735
1.81528285962
1.23460608741
1.92615274702
1.31077028554
2.04575297918
1.39286967
2.17487086997
1.48152517558
2.31440374702
1.57742677253
2.46538570048
1.6813167643
2.62892418537
1.79412597606
2.80644131366
)
;

boundaryField
{
    inletfuel
    {
        type            zeroGradient;
    }
    inletair
    {
        type            zeroGradient;
    }
    outlet
    {
        type            zeroGradient;
    }
    axis
    {
        type            empty;
    }
    leftside
    {
        type            zeroGradient;
    }
    burnerwall
    {
        type            zeroGradient;
    }
    front
    {
        type            wedge;
    }
    back
    {
        type            wedge;
    }
    procBoundary0to1
    {
        type            processor;
        value           nonuniform List<scalar> 
27
(
0.000265893268632
0.000802868710479
0.00135328897453
0.00163985629163
1.21355914296
1.46790849739
1.77757382834
2.15583137277
2.63854335485
3.50773746183
6.27183157224
0.00619630760428
0.00988299656252
0.019707673315
0.0568263127223
0.188655250048
0.716118804279
2.0574378065
0.746757497921
0.723174455136
0.867075433717
0.904064160221
0.929545613128
1.21355914296
1.05624038679
1.91736165239
2.99977811609
)
;
    }
}


// ************************************************************************* //
