/*--------------------------------*- C++ -*----------------------------------*\
  =========                 |
  \\      /  F ield         | OpenFOAM: The Open Source CFD Toolbox
   \\    /   O peration     | Website:  https://openfoam.org
    \\  /    A nd           | Version:  7
     \\/     M anipulation  |
\*---------------------------------------------------------------------------*/
FoamFile
{
    version     2.0;
    format      ascii;
    class       volScalarField;
    location    "0.01";
    object      ed::R_H2;
}
// * * * * * * * * * * * * * * * * * * * * * * * * * * * * * * * * * * * * * //

dimensions      [1 -3 -1 0 0 0 0];

internalField   nonuniform List<scalar> 
814
(
-0.0216294193053
-0.0347819816879
-0.215244610349
-0.0338552129832
-0.0540507830105
-0.215987027578
-0.0463914954232
-0.0640228278495
-0.216163277181
-0.083666911154
-0.217087257683
-2.74311902
-0.11491747665
-0.383731952526
-3.83914571224
-0.127225717419
-0.346760545616
-1.73057576958
-0.119966577849
-0.256793681286
-0.735634232421
-0.104279550883
-0.16794390021
-0.312784480074
-0.112484893584
-0.16021276581
-0.211487204111
-0.117013523854
-0.155336155829
-0.187944812581
-0.117846753005
-0.147365457994
-0.167528937381
-0.115579494229
-0.137503918759
-0.149909644579
-0.110908489263
-0.126810109723
-0.134548354176
-0.10470294444
-0.116025149402
-0.121016455636
-0.0975765586856
-0.105671966576
-0.108964998552
-0.0900229927461
-0.0957936541511
-0.0980602364503
-0.0823749234905
-0.0864900220502
-0.0880897164968
-0.0749302409871
-0.0778202058777
-0.0789616551182
-0.0677164119395
-0.0697632727992
-0.0706027480387
-0.0610215329267
-0.0624880018186
-0.0630996357269
-0.0548828412065
-0.0559408260643
-0.0564578122904
-0.0494329834835
-0.0502367453779
-0.0506932523663
-0.044648694801
-0.0452744603215
-0.0457120335207
-0.0404699317372
-0.0409821832725
-0.0414060826677
-0.0368354586242
-0.0372538059005
-0.0376596592711
-0.0336318240591
-0.0339823076374
-0.0343700779588
-0.0308160128359
-0.0311101825779
-0.0314691697577
-0.02831781378
-0.0285679711539
-0.02889616145
-0.0260897816138
-0.0263043712463
-0.0266004672177
-0.0241016936827
-0.0242759341324
-0.0245423808759
-0.0222897320307
-0.022446346432
-0.0226853456167
-0.0206859397215
-0.0208133557215
-0.0210327950383
-1.38090164283
-12.303569166
-3.65232736317
-1.15844504774
-0.397194682276
-0.185725099403
-0.168467249575
-0.152687591118
-0.138355271013
-0.125397854137
-0.113667317281
-0.103050588166
-0.0932911339323
-0.0842712732022
-0.0759237576174
-0.0682197873096
-0.0613038710065
-0.0551596775168
-0.0498071740687
-0.0451525938796
-0.0410914376342
-0.0375207137674
-0.0343550185848
-0.031536855267
-0.0290173069912
-0.0267543975271
-0.0247097989446
-0.022863514782
-0.021218698635
-0.0212787158106
-0.00917868289945
-0.00876245091464
-0.00879062410037
-0.0088674447706
-0.00896822712395
-0.00888420978865
-0.00881997433639
-0.00866133466485
-0.00854056905205
-0.00842048285189
-0.00832764049343
-0.00825504156763
-0.00820008571622
-0.00815943157286
-0.00812938829203
-0.0081058829543
-0.00809158683685
-0.00800141901566
-0.005722568417
-0.0341626389503
-0.0264040181516
-0.0274255934953
-0.0240830863461
-0.0227097551888
-0.0210820039919
-0.0206407606914
-0.0200701705548
-0.0198400518474
-0.0194976878834
-0.0193274709948
-0.0191250951101
-0.0190207446513
-0.0189224527814
-0.0188646206268
-0.0188192982417
-0.018780351145
-0.0187507423063
-0.0181441870092
-0.00849570647968
-0.0993307257294
-0.0520071521196
-0.0511255721563
-0.0419324070247
-0.0370192180971
-0.0327896400792
-0.0310629760331
-0.0296635698285
-0.0292064997313
-0.0286389985548
-0.0284472814856
-0.0281821520267
-0.0280878518393
-0.0279842671594
-0.0279379405697
-0.0279001185111
-0.0278618517766
-0.0278255075013
-0.0265383523247
-0.0112733764448
-2.13718521853
-0.840308574302
-0.226513627027
-0.0858782439607
-0.0637175054442
-0.0506921230591
-0.0456556943879
-0.0422152484401
-0.0411012779004
-0.0401453574988
-0.0399095436267
-0.0395915140428
-0.039530857222
-0.0394461298845
-0.0394300303484
-0.0394180850328
-0.0393937313494
-0.0393554973411
-0.037078820938
-0.017649840561
-9.65352677708
-7.69737348093
-5.67514805034
-1.62147076074
-0.413066561385
-0.1413187923
-0.0788820862916
-0.059876279885
-0.0551273787461
-0.0530238369245
-0.0525445536863
-0.0521455657162
-0.0521170759208
-0.0520696886112
-0.0520934483039
-0.0521211857477
-0.0521252823129
-0.0520900171327
-0.0488134931588
-0.0265049790003
-4.12805385681
-3.20424082924
-4.65098086128
-3.09258678739
-0.766759525425
-0.2519979194
-0.123929821465
-0.082937785928
-0.0711402295997
-0.0666469542267
-0.0654305202858
-0.0648060122329
-0.0647558841495
-0.0647432489553
-0.0648018691547
-0.064871509594
-0.0649123847978
-0.0648825233983
-0.0608598403641
-0.0374272861346
-1.04331221595
-0.873592401871
-1.52121122407
-3.04784588057
-0.882402879417
-0.328644512625
-0.16537678467
-0.108946819642
-0.0889000550567
-0.0808783127155
-0.0780502181407
-0.0768292402305
-0.0766032505866
-0.076584568058
-0.0766580256596
-0.0767582464397
-0.0768324605438
-0.0768043386801
-0.0723923561085
-0.0494096657217
-0.312777135075
-0.297353529897
-0.635243843757
-1.66517065967
-0.894052846561
-0.371298297916
-0.200201509351
-0.135348999702
-0.10811297588
-0.0959219196434
-0.090350846879
-0.0878611418188
-0.0871395064365
-0.0870122142231
-0.0870630012486
-0.0871710230798
-0.0872623633149
-0.0872263595565
-0.0827614477489
-0.0613637924696
-0.106990179609
-0.119060682772
-0.341269915686
-1.09283931897
-0.790417872772
-0.362730560669
-0.195399262013
-0.160712966043
-0.128535689951
-0.112030515203
-0.102591635407
-0.0978876419117
-0.096155152988
-0.0957325294794
-0.0957028649316
-0.0957904487931
-0.095875381694
-0.0958232747773
-0.0915895241734
-0.07283220497
-0.0998389445626
-0.0632892509622
-0.238633879037
-0.832271153175
-0.567629142194
-0.274151435233
-0.176916614528
-0.184732382984
-0.149924394994
-0.129309115523
-0.115051352056
-0.107094772526
-0.103687133864
-0.102702408747
-0.102514242303
-0.102553825537
-0.102610272825
-0.102542644627
-0.0987743955936
-0.0837347630536
-0.0947547290746
-0.0587051868424
-0.201583419398
-0.715634953067
-0.436516858799
-0.214969129503
-0.164081793604
-0.178275196371
-0.171862958077
-0.147502357454
-0.127802471913
-0.115678319627
-0.109914618536
-0.108063843958
-0.107627835911
-0.107596611207
-0.107611038295
-0.107539297113
-0.104424820187
-0.094224384542
-0.0899989868086
-0.0565614883831
-0.186114100002
-0.670113814257
-0.358301670586
-0.174091498541
-0.153409359196
-0.165908981043
-0.178035380733
-0.16605398819
-0.140662417453
-0.123707002383
-0.115048011126
-0.112061132373
-0.111294868432
-0.111178043171
-0.111147706275
-0.111091793365
-0.108773596845
-0.104479008074
-0.0855634856225
-0.0543588277509
-0.173787487944
-0.64083317298
-0.311112668927
-0.144993049131
-0.144766967767
-0.155751622869
-0.166454383851
-0.181263921316
-0.153154706946
-0.131088563169
-0.119259078538
-0.114966084928
-0.113815783543
-0.113608014574
-0.113539653392
-0.113522397789
-0.112105055617
-0.114478732432
-0.0814027771791
-0.052191686953
-0.161974465145
-0.616322981823
-0.283277953155
-0.124281979514
-0.137961309635
-0.147490375389
-0.157231333053
-0.171352088901
-0.164629633325
-0.137639148339
-0.12266841332
-0.117031392764
-0.115485673
-0.11519038387
-0.115097042482
-0.115139027031
-0.114701539389
-0.124051787824
-0.0771154420677
-0.0505181248086
-0.151323043282
-0.596873767072
-0.268837435099
-0.122615147929
-0.132628991133
-0.140833996192
-0.149986274964
-0.163798904457
-0.174566394901
-0.143214435323
-0.125365719154
-0.118473127285
-0.116561506468
-0.116187952783
-0.116085272976
-0.116201626881
-0.116804197504
-0.132948870299
-0.0725767020722
-0.0489080017611
-0.139617530221
-0.571608802761
-0.265020544734
-0.12205321195
-0.128443514771
-0.135507719137
-0.1443659546
-0.158142998315
-0.179484369383
-0.147742025881
-0.127438486962
-0.119467566932
-0.117247876581
-0.11680744217
-0.116709924684
-0.11690985036
-0.11860024576
-0.140958863502
-0.0677997262794
-0.0471246972582
-0.12843355296
-0.559051052746
-0.269402412324
-0.122135690244
-0.125172790526
-0.131307419794
-0.140076600419
-0.153979572486
-0.175104980145
-0.151224150303
-0.128979311781
-0.120151507736
-0.117695018426
-0.117198315791
-0.117116617689
-0.117405865188
-0.120239899475
-0.147942620416
-0.0629266229233
-0.0452187869304
-0.127310445186
-0.562422498264
-0.279224695392
-0.122629366354
-0.122712026626
-0.12808863745
-0.136859354338
-0.150998046286
-0.172157214672
-0.153734254635
-0.130078451731
-0.120624802133
-0.118004251616
-0.117459954114
-0.117399764839
-0.117788008462
-0.121808987339
-0.153940592127
-0.0581823788064
-0.0430987935341
-0.132081111388
-0.574566988885
-0.294242174807
-0.123522867514
-0.12105188158
-0.125741757312
-0.1344861703
-0.148931991206
-0.170297349688
-0.155369673616
-0.13080877509
-0.12095301429
-0.118237240513
-0.117652460108
-0.11761480524
-0.118104138015
-0.123256102593
-0.159179978241
-0.0536899805444
-0.0409338476092
-0.137104202902
-0.576202588307
-0.316909621499
-0.124859436452
-0.120201286699
-0.124170419643
-0.132783821173
-0.147558141594
-0.169261557196
-0.156223235865
-0.131217313384
-0.121173125426
-0.11842680862
-0.117808836258
-0.117789293152
-0.118371940945
-0.12450683212
-0.163508597056
-0.0495294077939
-0.0403912663692
-0.138597276399
-0.555964663069
-0.351309254289
-0.126732351986
-0.120194532106
-0.12334248994
-0.131654298142
-0.146753963923
-0.1689283023
-0.156397833909
-0.131338961783
-0.121309791485
-0.118588460561
-0.117945612803
-0.117935995396
-0.118600527285
-0.125538239538
-0.167038869704
-0.0457324940639
-0.0412369101211
-0.134730725542
-0.508766154884
-0.401999389043
-0.129225481727
-0.121158754704
-0.123353996805
-0.13112188424
-0.146520967353
-0.16925650141
-0.155998977104
-0.13121610981
-0.121379705571
-0.118728538759
-0.11806954243
-0.11806158247
-0.118796557667
-0.126380096191
-0.170009113406
-0.0422691964074
-0.0406662031441
-0.123837590067
-0.436367126532
-0.474540933687
-0.132086609127
-0.12325323482
-0.124403634758
-0.131331801869
-0.146895743106
-0.170230980898
-0.155106391368
-0.130887037997
-0.121392156818
-0.118848575102
-0.118181870606
-0.118169728017
-0.118965640814
-0.12707731233
-0.172598602551
-0.039096335218
-0.0377831015375
-0.105077025992
-0.33799060025
-0.585479561833
-0.134449403728
-0.126377737899
-0.126752837625
-0.132469936243
-0.147920562204
-0.1718575553
-0.153772126079
-0.130390298685
-0.121355686754
-0.11894844422
-0.118281990182
-0.118262365655
-0.11911247105
-0.127673245854
-0.174953663963
-0.0361733147974
-0.033462719706
-0.0841733501797
-0.245338988765
-0.646068497394
-0.169258986094
-0.129760602053
-0.130572693172
-0.134691960036
-0.149653277556
-0.174180384594
-0.152100238911
-0.129764793079
-0.121276087646
-0.119029004924
-0.118369095524
-0.118341253725
-0.119241242689
-0.128204193227
-0.177188674725
-0.0334710886548
-0.0296740954979
-0.0646855261284
-0.173150109856
-0.438167396515
-0.265137301119
-0.131822425808
-0.135788820426
-0.13815578316
-0.152183048334
-0.177128564987
-0.150200216382
-0.129044987912
-0.121160714842
-0.119091926917
-0.118443543932
-0.118408719481
-0.119356527531
-0.128699494112
-0.179390798126
-0.0309923309908
-0.0280659537768
-0.0485356575771
-0.118769791793
-0.284977502699
-0.480982214398
-0.154209871
-0.142197246156
-0.142847712601
-0.155510801694
-0.18049640549
-0.148121676658
-0.128261149104
-0.12102067505
-0.119138933058
-0.118506714342
-0.118466904023
-0.119463296943
-0.129182832721
-0.181628564886
-0.028727603292
-0.0265183584233
-0.0360697886805
-0.0804810333772
-0.185137771169
-0.42696203368
-0.242186194259
-0.149631382898
-0.148894183259
-0.159515297281
-0.184189525138
-0.145933652547
-0.127444414347
-0.120869508612
-0.119172196622
-0.118560119005
-0.118517198267
-0.119566161621
-0.129672955418
-0.183957996895
-0.0266518340083
-0.0250302169842
-0.0271422887392
-0.0551697803087
-0.12381269621
-0.293030681865
-0.38170741891
-0.158585706194
-0.156576335484
-0.16413687246
-0.18097343552
-0.143704806726
-0.126632711829
-0.120716739533
-0.11919546272
-0.11860437616
-0.11856086569
-0.119668504291
-0.130186427786
-0.186429811154
-0.0247330559877
-0.0236008939237
-0.0217468479856
-0.0402311578121
-0.0900689148767
-0.222167997152
-0.549915521319
-0.169315338112
-0.166234704932
-0.169543234715
-0.177234883956
-0.141439226817
-0.125844088212
-0.120565172914
-0.119211169694
-0.118640002718
-0.118599473607
-0.119772912085
-0.130739258962
-0.189092334763
-0.0229773706349
-0.0222408489097
-0.0207229273294
-0.0347821312153
-0.0807588253592
-0.213806569159
-0.68938075034
-0.20298201856
-0.177574708024
-0.175824875797
-0.172939911494
-0.139060216788
-0.125045697543
-0.120410481686
-0.119215272214
-0.118665738155
-0.118633229844
-0.119884563506
-0.13135101409
-0.192002622938
-0.0214130454994
-0.0210197632608
-0.0208431659869
-0.0389634474977
-0.0952731922558
-0.269295154096
-0.88659576933
-0.243655773507
-0.188790795144
-0.18276845286
-0.167362621316
-0.136384172286
-0.124182461955
-0.293974643096
-0.116347898562
-0.221455669
-0.121175944609
-0.205978326529
-0.120278377941
-0.199833299591
-0.115760941899
-0.19322062396
-0.112022427124
-0.18493595035
-0.109765278773
-0.176035533123
-0.108734632286
-0.167875656767
-0.107936866176
-0.161924126298
-0.10593670409
-0.157295610454
-0.103073247659
-0.153846392839
-0.0995330530533
-0.151713026062
-0.0954475675067
-0.151417307979
-0.0908529579334
-0.154388383215
-0.0856768125418
-0.163490852004
-0.0800825668655
-0.183589513679
-0.0740056680071
-0.197113137671
-0.305671106791
-0.202442065799
-0.30881868515
-0.206490880275
-0.313736030876
-0.210415548772
-0.319370520922
-0.214471465222
-0.325493414143
-0.218742518788
-0.332065844914
-0.223274617699
-0.339095913706
-0.2281028021
-0.346607856815
-0.233256863362
-0.354632841337
-0.238768259523
-0.363210824449
-0.244666654785
-0.372379035426
-0.250998483645
-0.382204337596
)
;

boundaryField
{
    inletfuel
    {
        type            calculated;
        value           uniform 0;
    }
    inletair
    {
        type            calculated;
        value           uniform 0;
    }
    outlet
    {
        type            calculated;
        value           nonuniform 0();
    }
    axis
    {
        type            empty;
    }
    leftside
    {
        type            calculated;
        value           uniform 0;
    }
    burnerwall
    {
        type            calculated;
        value           uniform 0;
    }
    front
    {
        type            wedge;
    }
    back
    {
        type            wedge;
    }
    procBoundary0to1
    {
        type            processor;
        value           uniform 0;
    }
}


// ************************************************************************* //
