/*--------------------------------*- C++ -*----------------------------------*\
  =========                 |
  \\      /  F ield         | OpenFOAM: The Open Source CFD Toolbox
   \\    /   O peration     | Website:  https://openfoam.org
    \\  /    A nd           | Version:  7
     \\/     M anipulation  |
\*---------------------------------------------------------------------------*/
FoamFile
{
    version     2.0;
    format      ascii;
    class       volScalarField;
    location    "0.01";
    object      ed::R_O2;
}
// * * * * * * * * * * * * * * * * * * * * * * * * * * * * * * * * * * * * * //

dimensions      [1 -3 -1 0 0 0 0];

internalField   nonuniform List<scalar> 
814
(
-0.171651322001
-0.27603020933
-1.70818371952
-0.268675362161
-0.428947639693
-1.71407555124
-0.368163444732
-0.508085902977
-1.71547427013
-0.663981575492
-1.72280699009
-21.7694242986
-0.911986425045
-3.04530121754
-30.4675048164
-1.00966476627
-2.7518957043
-13.7338693415
-0.952056150609
-2.03791762747
-5.8380017846
-0.827563723008
-1.33280473628
-2.48226125483
-0.892681417666
-1.27145036418
-1.67836490011
-0.928620679916
-1.23274953091
-1.4915322084
-0.935233196107
-1.16949398062
-1.32951158646
-0.917240204213
-1.09123269109
-1.18968467481
-0.88017105473
-1.00636649879
-1.06777729635
-0.830923779172
-0.920776928827
-0.960387992883
-0.774368699328
-0.838613950064
-0.864747489946
-0.714423512589
-0.760219548303
-0.778207171668
-0.653728346438
-0.686385816246
-0.699081009893
-0.594647259907
-0.617582054735
-0.626640609121
-0.537398229074
-0.553642140552
-0.560304225771
-0.484267591725
-0.495905505827
-0.500759439604
-0.435550863169
-0.443947043248
-0.448049851923
-0.392300729188
-0.398679392887
-0.402302237632
-0.354332558818
-0.359298641233
-0.362771227208
-0.321169846769
-0.325235080882
-0.32859915139
-0.292326626069
-0.295646634897
-0.298867491944
-0.266902545074
-0.269683986808
-0.272761336568
-0.244556234609
-0.246890769086
-0.249739695501
-0.22473049798
-0.226715749796
-0.229320271785
-0.207048808917
-0.208751794725
-0.211101615781
-0.19127132008
-0.192654094306
-0.194768618747
-0.176891571434
-0.178134465135
-0.180031165432
-0.164163857102
-0.165175031953
-0.166916504911
-10.9588514236
-97.6412673344
-28.9849122354
-9.19343330967
-3.15214159668
-1.47391653892
-1.3369580429
-1.21173049071
-1.09798903243
-0.995158822106
-0.902065145818
-0.817810660653
-0.740359518876
-0.668777799703
-0.602531819387
-0.541393021838
-0.486508229995
-0.437747839332
-0.395270310004
-0.35833150774
-0.326102124762
-0.297764818818
-0.272641825201
-0.250276848487
-0.230281684202
-0.212323208499
-0.196097250479
-0.18144511799
-0.168391838006
-0.168868135007
-0.0728421337475
-0.0695389118975
-0.0697624946256
-0.0703721443539
-0.0711719542768
-0.0705051917312
-0.0699954184385
-0.0687364521686
-0.0677780548674
-0.0668250493927
-0.0660882513612
-0.0655121054456
-0.0650759751726
-0.0647533434202
-0.0645149195958
-0.0643283809635
-0.0642149268099
-0.0634993539371
-0.0454143692049
-0.271115098195
-0.209542593718
-0.217649827473
-0.191123652042
-0.180224880079
-0.167307027737
-0.163805315795
-0.159277105866
-0.15745088114
-0.154733876759
-0.15338303356
-0.151776976196
-0.150948849747
-0.15016880433
-0.149709847682
-0.149350168709
-0.149041084098
-0.148806108012
-0.143992478152
-0.0674220249737
-0.788289789295
-0.412729361285
-0.40573313249
-0.33277606758
-0.293784943373
-0.260218963259
-0.2465161374
-0.23541043356
-0.231783119978
-0.227279424071
-0.225757955191
-0.223653884736
-0.222905517357
-0.222083468138
-0.221715819786
-0.221415663491
-0.221111978243
-0.220823549654
-0.210608671272
-0.0894656459723
-16.9607266355
-6.66869857353
-1.79761476633
-0.681530738245
-0.505662860834
-0.402293275436
-0.362324119198
-0.335020700328
-0.326180217228
-0.318594021855
-0.316722600236
-0.314198713777
-0.313717340545
-0.313044943413
-0.312917177308
-0.312822379146
-0.312629108032
-0.3123256825
-0.294257952208
-0.140069339016
-76.6105002574
-61.0864450536
-45.0380406261
-12.8680107283
-3.27810101303
-1.12150757168
-0.626009149992
-0.475178850328
-0.437491515913
-0.420797783665
-0.416994186339
-0.41382781319
-0.413601717843
-0.413225651605
-0.413414208802
-0.413634333477
-0.413666843866
-0.413386978988
-0.3873844468
-0.210343820182
-32.7602831962
-25.4288923149
-36.9102379574
-24.5428045462
-6.0850124702
-1.99985840562
-0.983508497825
-0.658195229257
-0.564569685661
-0.528911000285
-0.519257366448
-0.51430126331
-0.51390344626
-0.513803173213
-0.514268383794
-0.514821051126
-0.515145437217
-0.514908456805
-0.482984397676
-0.297023376043
-8.2797378237
-6.93283941443
-12.0723498846
-24.1877401917
-7.00275946623
-2.60812665676
-1.31243207763
-0.86460322191
-0.705511866085
-0.641851226002
-0.619407434716
-0.609717739887
-0.607924283456
-0.607776018693
-0.60835897907
-0.609154332341
-0.60974329633
-0.609520120894
-0.57450657613
-0.392115679161
-2.48220296483
-2.35980105559
-5.04130249798
-13.2148136321
-7.09521374035
-2.94662759061
-1.58880149585
-1.07413122851
-0.857985828155
-0.761237464734
-0.717025366783
-0.697267038602
-0.691540131855
-0.690529939375
-0.690932985797
-0.691790248301
-0.692515125464
-0.69222939922
-0.656795807427
-0.48698376742
-0.849075303955
-0.944866956791
-2.70832200161
-8.67278548667
-6.27276538863
-2.87863392863
-1.55069080538
-1.27541995902
-1.02006072345
-0.889075465577
-0.814168406246
-0.776837459412
-0.763088407257
-0.759734462201
-0.759499044006
-0.760194110545
-0.760868139029
-0.760454617935
-0.72685552413
-0.577997221787
-0.792323019839
-0.502264228307
-1.8938012266
-6.60491350642
-4.50471144364
-2.17566896373
-1.40401230097
-1.46603832992
-1.18980173428
-1.02619863775
-0.91304886181
-0.849905354554
-0.82286229468
-0.815047504752
-0.813554213676
-0.813868346682
-0.814316313014
-0.813779614853
-0.783874746897
-0.664520048953
-0.751974626869
-0.465885042384
-1.59976834998
-5.67928727212
-3.46420284479
-1.70599750034
-1.30215501354
-1.41479402221
-1.36390642488
-1.17058041632
-1.01424189661
-0.918024483718
-0.872283685133
-0.857595916653
-0.854135751749
-0.853887952135
-0.854002445671
-0.853433106825
-0.828716581882
-0.747765806518
-0.714233001191
-0.448872626595
-1.47700365217
-5.31803098755
-2.84348620567
-1.3815921478
-1.21745845053
-1.31665559421
-1.41289084253
-1.31780637261
-1.11629857329
-0.98174020301
-0.913022348157
-0.889318443796
-0.883237364284
-0.882310237662
-0.882069483702
-0.881625758208
-0.863228523786
-0.829146617583
-0.67903281243
-0.431392286319
-1.37917951618
-5.0856594794
-2.46899374222
-1.15066651642
-1.1488723321
-1.23604668215
-1.32098391721
-1.43851257797
-1.21543752732
-1.04032035487
-0.946441427883
-0.912372180902
-0.90324337579
-0.901594518846
-0.901052003719
-0.900915063048
-0.889667019169
-0.908504545851
-0.646013382057
-0.414193831859
-1.28543123049
-4.89114631864
-2.24809711561
-0.986303228176
-1.09486255038
-1.17048532651
-1.2477896793
-1.35985216118
-1.30650267591
-1.09230587461
-0.973497948183
-0.928762487796
-0.916495637854
-0.914152219903
-0.913411461564
-0.913744651427
-0.910272744435
-0.984476424261
-0.61198904098
-0.400912423306
-1.20090142328
-4.73679712522
-2.13349699715
-0.973075233427
-1.05254520901
-1.11766022415
-1.19029281444
-1.29991000199
-1.38536093081
-1.13655141665
-0.994903798511
-0.94020410964
-0.92503346471
-0.92206893834
-0.921254070203
-0.922177456138
-0.92695946358
-1.05508377378
-0.575969547832
-0.388134468162
-1.10800633612
-4.53629407597
-2.10320611103
-0.96861570299
-1.01932922015
-1.07539082778
-1.14568988697
-1.25502466538
-1.42439003323
-1.17248242773
-1.01135330783
-0.948095994192
-0.930480505873
-0.926985213285
-0.926211313392
-0.927797925871
-0.941212923335
-1.11865117257
-0.53805941264
-0.373982142982
-1.01925016311
-4.43663562647
-2.13798066295
-0.969270251686
-0.993372714683
-1.04205720357
-1.11164952253
-1.2219836698
-1.38963514954
-1.20011660746
-1.02358131143
-0.953523756331
-0.934029028734
-0.930087190867
-0.929438833786
-0.931734305283
-0.954225234198
-1.17407434828
-0.499386407992
-0.358856816557
-1.01033716681
-4.46339145714
-2.21593041508
-0.973188071006
-0.973844063885
-1.01651290962
-1.08611742038
-1.19832224336
-1.36624164862
-1.22003682449
-1.03230409879
-0.957279826148
-0.936483106907
-0.932163555632
-0.931685892845
-0.934766998729
-0.966677533652
-1.22167432122
-0.461736031758
-0.342032524422
-1.04819722902
-4.55977027529
-2.33510930557
-0.980278906563
-0.960669133583
-0.99788804168
-1.06728380439
-1.18192600633
-1.35148173858
-1.23301552846
-1.03809995343
-0.959884521623
-0.938332109491
-0.933691285428
-0.933392455958
-0.937275806524
-0.97816185706
-1.26325415008
-0.426084307145
-0.324851488499
-1.08806054142
-4.57275041124
-2.51499842494
-0.990885933123
-0.953918802758
-0.985417887753
-1.053773942
-1.17102311991
-1.34326167737
-1.23978940835
-1.04134211806
-0.961631326149
-0.939836524181
-0.934932288359
-0.934777194048
-0.939401093678
-0.988087661066
-1.2976061191
-0.393065953632
-0.320545557497
-1.09990958998
-4.41214200227
-2.78799430899
-1.00574941248
-0.953865198232
-0.978847428047
-1.04481003416
-1.1646411566
-1.34061696266
-1.24117502044
-1.04230752116
-0.962715909573
-0.941119395855
-0.93601774861
-0.935941424756
-0.941215157515
-0.996272922272
-1.3256224037
-0.362933602315
-0.327256596102
-1.06922459761
-4.03757409491
-3.19027180521
-1.02553491897
-0.96151727993
-0.97893874666
-1.04058479127
-1.16279209312
-1.3432215546
-1.23800968823
-1.04133256648
-0.963270748572
-0.942231058061
-0.937001255565
-0.936938085224
-0.942770856897
-1.00295390642
-1.34919429211
-0.33544883202
-0.322727458926
-0.982776548384
-3.46301456778
-3.76596234328
-1.04824085914
-0.978139098375
-0.987268685603
-1.0422507
-1.16576631784
-1.35095503509
-1.23092611749
-1.03872104877
-0.963369561809
-0.943183667866
-0.937892693265
-0.937796329543
-0.944112702709
-1.00848702176
-1.36974450794
-0.31026896889
-0.299847131199
-0.833892494699
-2.68229731635
-4.64637258054
-1.06699202445
-1.00293519098
-1.00591198675
-1.05128294757
-1.17389929406
-1.36386354838
-1.22033737271
-1.03477891983
-0.963080134959
-0.943976230345
-0.93868724338
-0.938531502908
-0.945277949161
-1.01321635711
-1.38843430257
-0.287071844994
-0.265560530969
-0.668000681463
-1.94701305501
-5.12720707456
-1.34324127308
-1.02978164008
-1.03622640459
-1.06891695411
-1.18765014315
-1.38229754855
-1.2070692568
-1.0298149001
-0.96244843552
-0.944615561021
-0.939378512386
-0.939157559548
-0.946299882381
-1.01742996161
-1.40617137385
-0.265626947044
-0.235493965395
-0.51334508419
-1.3741212763
-3.47730153121
-2.10413269106
-1.04614429726
-1.07762165087
-1.09640589453
-1.20772643333
-1.40569434228
-1.19199065601
-1.02410251796
-0.961532835608
-0.945114910687
-0.939969335815
-0.939692968564
-0.947214784224
-1.02136067517
-1.42364745065
-0.245955497527
-0.222731734079
-0.385179540407
-0.942558442614
-2.26158476048
-3.81708042158
-1.22381132147
-1.12847899165
-1.13364110088
-1.23413552252
-1.43242156349
-1.1754953407
-1.01788196411
-0.9604214782
-0.945487951967
-0.940470656916
-0.940154721765
-0.948062107508
-1.02519645597
-1.44140639356
-0.227982592292
-0.210449999439
-0.286250260532
-0.638698412574
-1.46925549525
-3.38837564203
-1.92199244132
-1.18747638689
-1.18162596202
-1.26591524586
-1.46173020377
-1.15813115602
-1.01140034763
-0.959221819596
-0.945751931997
-0.940894476941
-0.940553857467
-0.948878442785
-1.02908607536
-1.45989279295
-0.211509263226
-0.19864009175
-0.215401517648
-0.437828015205
-0.982578990445
-2.32549488356
-3.02923449533
-1.25853800023
-1.24259161101
-1.30259211998
-1.43620727933
-1.14044300978
-1.00495866705
-0.958009442415
-0.945936572019
-0.941245702237
-0.940900402639
-0.949690635399
-1.03316099802
-1.47950913953
-0.196281818642
-0.187296967396
-0.172583237367
-0.319274934135
-0.714787951149
-1.76312779734
-4.36413594331
-1.34368848334
-1.31924054276
-1.34549707342
-1.40653809085
-1.1224633414
-0.998700140889
-0.956806607976
-0.946061222745
-0.941528435015
-0.941206795514
-0.95051921686
-1.03754827263
-1.50063895772
-0.182348679357
-0.176503634419
-0.164457391186
-0.276031395982
-0.640902972959
-1.69677140799
-5.47093361535
-1.61086764912
-1.40923493858
-1.39534824977
-1.37245313966
-1.10358349026
-0.992364103302
-0.955578976599
-0.94609378039
-0.941732671735
-0.941474685403
-0.951405283833
-1.04240316841
-1.52373503836
-0.169934176972
-0.166813084574
-0.165411606564
-0.309214370404
-0.756089156677
-2.13712946041
-7.03603428912
-1.93365503924
-1.49824593581
-1.45045255772
-1.32819170025
-1.08234637012
-0.985513455675
-2.33298617082
-0.923338269891
-1.75747475288
-0.961653699213
-1.63464638385
-0.954530599752
-1.58587937893
-0.918680175019
-1.53340110858
-0.889011278485
-1.4676538429
-0.871098523045
-1.39702002875
-0.862919300591
-1.33226315552
-0.856588219512
-1.28503174083
-0.840714910042
-1.2482997855
-0.817990486654
-1.22092675458
-0.78989546128
-1.20399633114
-0.757473000687
-1.20164950901
-0.721010125923
-1.22522799648
-0.679932176173
-1.29746529416
-0.635536177725
-1.45696850589
-0.587309838034
-1.56429214245
-2.42580944211
-1.60658257776
-2.45078866041
-1.63871401631
-2.48981277301
-1.66986023094
-2.53452815124
-1.70204803084
-2.58311950272
-1.73594316139
-2.63527838941
-1.77190995081
-2.69106909673
-1.81022647811
-2.7506839642
-1.85112916795
-2.81437033427
-1.89486767169
-2.88244530755
-1.94167740477
-2.955204336
-1.9919268719
-3.03317804777
)
;

boundaryField
{
    inletfuel
    {
        type            calculated;
        value           uniform 0;
    }
    inletair
    {
        type            calculated;
        value           uniform 0;
    }
    outlet
    {
        type            calculated;
        value           nonuniform 0();
    }
    axis
    {
        type            empty;
    }
    leftside
    {
        type            calculated;
        value           uniform 0;
    }
    burnerwall
    {
        type            calculated;
        value           uniform 0;
    }
    front
    {
        type            wedge;
    }
    back
    {
        type            wedge;
    }
    procBoundary0to1
    {
        type            processor;
        value           uniform 0;
    }
}


// ************************************************************************* //
