/*--------------------------------*- C++ -*----------------------------------*\
  =========                 |
  \\      /  F ield         | OpenFOAM: The Open Source CFD Toolbox
   \\    /   O peration     | Website:  https://openfoam.org
    \\  /    A nd           | Version:  7
     \\/     M anipulation  |
\*---------------------------------------------------------------------------*/
FoamFile
{
    version     2.0;
    format      ascii;
    class       volScalarField;
    location    "0.01";
    object      ed::R_H2O;
}
// * * * * * * * * * * * * * * * * * * * * * * * * * * * * * * * * * * * * * //

dimensions      [1 -3 -1 0 0 0 0];

internalField   nonuniform List<scalar> 
814
(
0.193280741306
0.310812191018
1.92342832987
0.302530575144
0.482998422703
1.93006257882
0.414554940155
0.572108730827
1.93163754731
0.747648486646
1.93989424777
24.5125433186
1.0269039017
3.42903317007
34.3066505286
1.13689048369
3.09865624991
15.4644451111
1.07202272846
2.29471130876
6.57363601702
0.931843273892
1.50074863649
2.79504573491
1.00516631125
1.43166312999
1.88985210422
1.04563420377
1.38808568674
1.67947702098
1.05307994911
1.31685943862
1.49704052384
1.03281969844
1.22873660985
1.33959431939
0.991079543993
1.13317660851
1.20232565053
0.935626723611
1.03680207823
1.08140444852
0.871945258014
0.94428591664
0.973712488498
0.804446505335
0.856013202454
0.876267408118
0.736103269928
0.772875838296
0.78717072639
0.669577500894
0.695402260612
0.705602264239
0.605114641014
0.623405413351
0.63090697381
0.545289124652
0.558393507646
0.563859075331
0.490433704375
0.499887869312
0.504507664213
0.441733712672
0.448916138265
0.452995489998
0.398981253619
0.404573101555
0.408483260729
0.361639778506
0.366217264155
0.370005234058
0.329162084693
0.332900440797
0.336527151215
0.300534369133
0.303666294445
0.307131414527
0.275372247445
0.278000951664
0.281208865259
0.25304831176
0.25528372095
0.258216433235
0.23313859053
0.235056165971
0.237702082999
0.215373013763
0.216930028439
0.219310999623
0.199181303465
0.200580811567
0.202716511049
0.184849796823
0.185988387674
0.187949299949
12.3397530664
109.9448365
32.6372395986
10.3518783574
3.54933627896
1.65964163832
1.50542529247
1.36441808182
1.23634430345
1.12055667624
1.0157324631
0.920861248819
0.833650652808
0.753049072906
0.678455577004
0.609612809148
0.547812101001
0.492907516849
0.445077484073
0.403484101619
0.367193562396
0.335285532586
0.306996843786
0.281813703754
0.259298991194
0.239077606026
0.220807049423
0.204308632772
0.189610536641
0.190146850817
0.082020816647
0.0783013628121
0.078553118726
0.0792395891245
0.0801401814008
0.0793894015199
0.0788153927749
0.0773977868334
0.0763186239194
0.0752455322446
0.0744158918546
0.0737671470132
0.0732760608888
0.0729127749931
0.0726443078878
0.0724342639178
0.0723065136467
0.0715007729527
0.0511369376219
0.305277737145
0.23594661187
0.245075420968
0.215206738388
0.202934635268
0.188389031728
0.184446076487
0.179347276421
0.177290932987
0.174231564642
0.172710504555
0.170902071306
0.169969594398
0.169091257112
0.168574468308
0.16816946695
0.167821435243
0.167556850318
0.162136665162
0.0759177314533
0.887620515025
0.464736513404
0.456858704646
0.374708474605
0.33080416147
0.293008603339
0.277579113434
0.265074003389
0.26098961971
0.255918422626
0.254205236677
0.251836036763
0.250993369196
0.250067735297
0.249653760356
0.249315782003
0.248973830019
0.248649057155
0.237147023596
0.100739022417
19.097911854
7.50900714783
2.02412839335
0.767408982206
0.569380366278
0.452985398495
0.407979813586
0.377235948768
0.367281495129
0.358739379354
0.356632143863
0.353790227819
0.353248197767
0.352491073298
0.352347207657
0.352240464178
0.352022839382
0.351681179841
0.331336773146
0.157719179577
86.2640270345
68.7838185346
50.7131886765
14.489481489
3.69116757442
1.26282636398
0.704891236283
0.535055130213
0.492618894659
0.47382162059
0.469538740025
0.465973378906
0.465718793764
0.465295340216
0.465507657106
0.465755519224
0.465792126179
0.46547699612
0.436197939958
0.236848799183
36.888337053
28.6331331441
41.5612188187
27.6353913336
6.85177199563
2.25185632502
1.10743831929
0.741133015185
0.635709915261
0.595557954511
0.584687886734
0.579107275543
0.57865933041
0.578546422168
0.579070252948
0.57969256072
0.580057822014
0.579790980203
0.54384423804
0.334450662178
9.32305003964
7.8064318163
13.5935611087
27.2355860723
7.88516234564
2.93677116938
1.4778088623
0.973550041552
0.794411921142
0.722729538717
0.697457652857
0.686546980117
0.684527534043
0.684360586751
0.685017004729
0.68591257878
0.686575756874
0.686324459574
0.646898932239
0.441525344883
2.79498009991
2.65715458548
5.67654634174
14.8799842917
7.98926658692
3.31792588853
1.7890030052
1.20948022821
0.966098804035
0.857159384378
0.807376213662
0.785128180421
0.778679638291
0.777542153598
0.777995987046
0.778961271381
0.779777488779
0.779455758777
0.739557255176
0.548347559889
0.956065483564
1.06392763956
3.0495919173
9.76562480564
7.0631832614
3.2413644893
1.7460900674
1.43613292506
1.1485964134
1.00110598078
0.916760041653
0.874725101324
0.859243560245
0.85546699168
0.855201908938
0.855984559338
0.856743520723
0.856277892713
0.818445048304
0.650829426757
0.892161964402
0.565553479269
2.13243510563
7.4371846596
5.07234058583
2.44982039897
1.5809289155
1.65077071291
1.33972612928
1.15550775327
1.02810021387
0.95700012708
0.926549428543
0.917749913499
0.916068455979
0.91642217222
0.91692658584
0.916322259481
0.882649142491
0.748254812006
0.846729355944
0.524590229227
1.80135176938
6.39492222519
3.90071970359
1.92096662984
1.46623680715
1.59306921858
1.53576938296
1.31808277378
1.14204436853
1.03370280335
0.982198303669
0.965659760611
0.96176358766
0.961484563342
0.961613483966
0.960972403939
0.933141402069
0.84199019106
0.804231987999
0.505434114978
1.66311775217
5.9881448018
3.20178787625
1.55568364634
1.37086780973
1.48256457526
1.59092622326
1.4838603608
1.25696099074
1.10544720539
1.02807035928
1.00137957617
0.994532232715
0.993488280833
0.993217189977
0.992717551573
0.972002120631
0.933625625658
0.764596298052
0.48575111407
1.55296700413
5.72649265238
2.78010641114
1.29565956555
1.29363929987
1.39179830502
1.48743830106
1.61977649929
1.36859223427
1.17140891803
1.06570050642
1.02733826583
1.01705915933
1.01520253342
1.01459165711
1.01443746084
1.00177207479
1.02298327828
0.727416159236
0.466385518812
1.44740569564
5.50746930046
2.53137506877
1.11058520769
1.23282386001
1.3179757019
1.40502101236
1.53120425008
1.47113230924
1.22994502295
1.0961663615
1.04579388056
1.03198131085
1.02934260377
1.02850850405
1.02888367846
1.02497428382
1.10852821208
0.689104483048
0.451430548115
1.35222446656
5.33367089229
2.40233443225
1.09569038136
1.18517420015
1.25849422034
1.3402790894
1.46370890645
1.55992732571
1.27976585197
1.12026951767
1.05867723692
1.04159497118
1.03825689112
1.03733934318
1.03837908302
1.04376366108
1.18803264408
0.648546249904
0.437042469923
1.24762386634
5.10790287873
2.36822665576
1.09066891494
1.14777273492
1.21089854692
1.29005584157
1.4131676637
1.60387440261
1.32022445361
1.13879179479
1.06756356112
1.04772838245
1.04379265545
1.04292123808
1.04470777623
1.0598131691
1.25961003607
0.60585913892
0.421106840241
1.14768371607
4.99568667922
2.40738307528
1.09140594193
1.11854550521
1.17336462337
1.25172612295
1.37596324229
1.56474012969
1.35134075776
1.15256062321
1.07367526407
1.05172404716
1.04728550666
1.04655545148
1.04914017047
1.07446513367
1.3220169687
0.562313030916
0.404075603487
1.137647612
5.0258139554
2.49515511048
1.09581743736
1.09655609051
1.14460154707
1.22297677472
1.34932028965
1.53839886329
1.37377107913
1.16238255053
1.07790462828
1.05448735852
1.04962350975
1.04908565768
1.05255500719
1.08848652099
1.37561491335
0.519918410565
0.385131317956
1.1802783404
5.13433726418
2.62935148038
1.10380177408
1.08172101516
1.12362979899
1.20176997469
1.33085799754
1.52177908827
1.38838520208
1.16890872852
1.08083753591
1.05656935
1.05134374554
1.0510072612
1.05537994454
1.10141795965
1.42243412832
0.479774287689
0.365785336108
1.22516474433
5.14895299955
2.83190804644
1.11574536958
1.07412008946
1.1095883074
1.18655776318
1.3185812615
1.51252323457
1.39601264422
1.17255943144
1.08280445158
1.0582633328
1.05274112462
1.0525664872
1.05777303462
1.11259449319
1.46111471616
0.442595361426
0.360936823866
1.23850686638
4.96810666534
3.13930356328
1.13248176447
1.07405973034
1.10218991799
1.1764643323
1.31139512052
1.50954526496
1.39757285435
1.17364648295
1.08402570106
1.05970785642
1.05396336141
1.05387742015
1.0598156848
1.12181116181
1.49266127341
0.408666096379
0.368493506223
1.20395532316
4.5463402498
3.59227119425
1.1547604007
1.08267603463
1.10229274347
1.17170667551
1.30931306047
1.51247805601
1.39400866533
1.17254867629
1.08465045414
1.06095959682
1.055070798
1.05499966769
1.06156741456
1.12933400261
1.51920340551
0.377718028427
0.36339366207
1.10661413845
3.89938169432
4.24050327697
1.18032746826
1.10139233319
1.11167232036
1.17358250187
1.31266206094
1.52118601599
1.38603250886
1.16960808676
1.08476171863
1.06203224297
1.05607456387
1.05596605756
1.06307834352
1.13556433409
1.54234311049
0.349365304108
0.337630232737
0.93896952069
3.0202879166
5.23185214237
1.20144142818
1.12931292888
1.13266482438
1.18375288381
1.32181985626
1.53572110368
1.37410949879
1.16516921852
1.08443582171
1.06292467457
1.05696923356
1.05679386856
1.06439042021
1.14088960296
1.56338796653
0.323245159791
0.299023250675
0.752174031643
2.19235204378
5.77327557195
1.51250025917
1.15954224213
1.16679909776
1.20360891415
1.33730342071
1.55647793314
1.35916949571
1.15957969318
1.08372452317
1.06364456594
1.05774760791
1.05749881327
1.06554112507
1.14563415484
1.58336004857
0.299098035699
0.265168060893
0.578030610319
1.54727138615
3.91546892772
2.36926999218
1.17796672307
1.21341047129
1.23456167769
1.35990948166
1.58282290726
1.34219087239
1.15314750587
1.08269355045
1.0642068376
1.05841287975
1.05810168804
1.06657131175
1.15006016928
1.60303824878
0.276947828518
0.250797687856
0.433715197984
1.06132823441
2.54656226318
4.29806263598
1.37802119247
1.2706762378
1.27648881349
1.38964632422
1.61291796898
1.32361701736
1.14614311322
1.08144215325
1.06462688503
1.05897737126
1.05862162579
1.06752540445
1.15437928869
1.62303495845
0.256710195584
0.236968357862
0.322320049212
0.719179445951
1.65439326642
3.81533767571
2.16417863558
1.33710776979
1.33052014528
1.42543054314
1.64591972891
1.30406480857
1.13884476197
1.08009132821
1.06492412862
1.05945459595
1.05907105573
1.06844460441
1.15875903078
1.64385078985
0.238161097235
0.223670308735
0.242543806387
0.492997795514
1.10639168665
2.61852556543
3.41094191424
1.41712370643
1.3991679465
1.46672899244
1.61718071485
1.28414781651
1.13159137887
1.07872618195
1.06513203474
1.0598500784
1.05946126833
1.06935913969
1.16334742581
1.66593895069
0.221014874629
0.210897861319
0.194330085352
0.359506091947
0.804856866025
1.98529579449
4.91405146463
1.51300382145
1.48547524769
1.51504030814
1.5837729748
1.26390256821
1.1245442291
1.07737178089
1.06527239244
1.06016843773
1.05980626912
1.07029212894
1.16828753159
1.68973129248
0.205326049992
0.198744483329
0.185180318515
0.310813527197
0.721661798318
1.91057797714
6.16031436569
1.81384966768
1.5868096466
1.57117312557
1.54539305116
1.24264370705
1.11740980085
1.07598945828
1.0653090526
1.06039840989
1.06010791525
1.07128984734
1.1737541825
1.7157376613
0.191347222471
0.187832847835
0.186254772551
0.348177817902
0.851362348932
2.40642461451
7.92263005845
2.17731081275
1.68703673095
1.63322101058
1.49555432156
1.2187305424
1.10969591763
2.62696081392
1.03968616845
1.97893042188
1.08282964382
1.84062471038
1.07480897769
1.78571267852
1.03444111692
1.72662173254
1.00103370561
1.65258979325
0.980863801817
1.57305556187
0.971653932876
1.50013881229
0.964525085688
1.44695586712
0.946651614133
1.40559539596
0.921063734313
1.37477314742
0.889428514333
1.3557093572
0.852920568193
1.35306681699
0.811863083856
1.37961637969
0.765608988715
1.46095614617
0.71561874459
1.64055801957
0.661315506041
1.76140528012
2.7314805489
1.80902464356
2.75960734556
1.84520489658
2.80354880389
1.88027577971
2.85389867217
1.91651949606
2.90861291687
1.95468568017
2.96734423433
1.99518456851
3.03016501043
2.03832928021
3.09729182102
2.08438603131
3.16900317561
2.13363593121
3.245656132
2.18634405955
3.32758337143
2.24292535555
3.41538238536
)
;

boundaryField
{
    inletfuel
    {
        type            calculated;
        value           uniform 0;
    }
    inletair
    {
        type            calculated;
        value           uniform 0;
    }
    outlet
    {
        type            calculated;
        value           nonuniform 0();
    }
    axis
    {
        type            empty;
    }
    leftside
    {
        type            calculated;
        value           uniform 0;
    }
    burnerwall
    {
        type            calculated;
        value           uniform 0;
    }
    front
    {
        type            wedge;
    }
    back
    {
        type            wedge;
    }
    procBoundary0to1
    {
        type            processor;
        value           uniform 0;
    }
}


// ************************************************************************* //
