/*--------------------------------*- C++ -*----------------------------------*\
  =========                 |
  \\      /  F ield         | OpenFOAM: The Open Source CFD Toolbox
   \\    /   O peration     | Website:  https://openfoam.org
    \\  /    A nd           | Version:  7
     \\/     M anipulation  |
\*---------------------------------------------------------------------------*/
FoamFile
{
    version     2.0;
    format      ascii;
    class       volScalarField;
    location    "0.01";
    object      epsilon;
}
// * * * * * * * * * * * * * * * * * * * * * * * * * * * * * * * * * * * * * //

dimensions      [0 2 -3 0 0 0 0];

internalField   nonuniform List<scalar> 
814
(
17049.0506458
21629.0887201
55316.4757813
21836.4097047
26112.5408027
48049.6281342
23676.3395123
30044.729589
45668.1666805
29360.0733643
53094.5545031
155673.330228
37072.4064467
80207.3998753
269772.632053
46565.9578418
108154.245964
312560.075295
58191.9854886
135306.081843
325605.281453
71144.4206814
157228.88254
317027.024582
84228.4046277
171354.102216
295363.165001
95783.6668358
176583.052527
267622.901819
104088.268983
173577.690829
238800.936429
107998.369656
164198.791639
211040.21644
107317.110787
150697.753283
184856.831775
102675.748395
135088.231231
160374.139529
95101.1914794
118801.729009
137758.760103
85671.5324588
102708.203283
116989.949169
75367.4058644
87411.3423216
98059.5723301
64938.1525028
73332.0988527
81151.8249391
55041.655358
60847.4004826
66530.8998379
46152.5163809
50161.7510138
54321.5828352
38497.9684331
41297.409748
44386.3683066
32118.3818825
34107.5759425
36430.2170311
26885.8355996
28325.9868773
30095.4418885
22635.3660592
23692.8450205
25047.9616193
19190.7953938
19977.3284275
21024.1561221
16403.6218719
16996.285862
17812.388462
14149.801129
14602.3054622
15247.4989255
12316.7558305
12667.8452929
13188.9621281
10812.8078582
11088.9064342
11517.8559836
9561.87765771
9783.75615914
10143.544124
8517.91761848
8700.06688025
9008.44073228
7650.90633278
7803.64880768
8072.92553995
1284.30978762
123649.834011
195628.890797
228622.02942
237374.38432
232235.581966
219479.719323
203077.768955
185011.3317
166255.673526
147478.871158
129172.057712
111459.824992
94587.7853672
79032.4262091
65350.0506854
53788.1288374
44268.9975966
36564.4593683
30360.1400946
25366.2574337
21354.4093451
18134.6739769
15558.3243238
13490.9008708
11811.4928491
10427.2000702
9282.33902883
8336.00495755
0.943183516104
0.443188573143
0.421959955826
0.425972216577
0.437996591672
0.451569004943
0.449156958854
0.448045582955
0.439031626094
0.432953475279
0.426342021571
0.421553753824
0.417756678884
0.414930087757
0.412844692596
0.411301827623
0.410108975208
0.409626520427
0.41355911376
0.490231064078
1.39066180323
1.18302662091
1.2397374283
1.07462184752
1.04644002456
1.00632368245
1.00252082639
0.986139727602
0.9771150775
0.960272642799
0.951202952182
0.940306504834
0.934870859303
0.929547886764
0.926574523351
0.924150143318
0.922218012704
0.921917237627
0.933680257277
1.04444373967
4.27916005388
2.5780692803
2.18980696206
1.77413308611
1.60330253176
1.53091940278
1.50705320817
1.4722807335
1.46123286764
1.43319938971
1.42368558694
1.40813715199
1.40325061622
1.39712077188
1.39477398071
1.39268342207
1.39083458478
1.39171649051
1.41110757245
1.68999693188
800.131216609
16.0859439846
4.03945630881
2.58303403387
2.18193119002
2.14840362813
2.1941684617
2.16496441417
2.16925425701
2.13106962827
2.12623534161
2.10632566233
2.10482515003
2.09949367296
2.09970973817
2.09970393923
2.09914505666
2.10368330737
2.13660935758
3.01681119485
7286.69210144
737.099339374
69.4369375308
13.4706200016
5.27997946149
3.42817352757
3.20910264361
3.09647745519
3.13273769371
3.09092409869
3.10427368642
3.08502451965
3.09188308991
3.09074889575
3.09650269538
3.10162411068
3.10485900596
3.11722138558
3.18053219027
4.90684337686
15876.3039781
1632.50205294
152.872774198
22.8893166241
7.7700233498
4.8260030057
4.29897967976
4.17414630305
4.29861026642
4.30621138475
4.37378468815
4.37416616301
4.39822805377
4.40673818901
4.42133365603
4.43530093073
4.44596203409
4.47145784603
4.5928461461
7.3043362964
22093.3817163
1670.29395333
149.245754856
22.0471576785
8.51268688354
6.04611513415
5.32024417771
5.33324915243
5.56280981056
5.70971685733
5.88532726848
5.9467867937
6.00345837407
6.02909369956
6.05509824274
6.08076699451
6.10235022256
6.14548673376
6.35030926869
9.96390208726
29770.5202682
2116.09141172
174.738780591
21.8764779681
9.08100420687
7.11334863104
6.40368494614
6.5241908981
6.84599939858
7.19829405146
7.53170344026
7.7117677064
7.82291948543
7.87469299661
7.91282281235
7.95040170691
7.98413802956
8.04615571045
8.34026148707
12.4715849251
38790.9611294
2849.03057763
221.638711959
24.202385798
10.0086856313
8.3426623132
7.60809393664
7.73341450245
8.10522209067
8.67074081646
9.1877932574
9.53459884749
9.72317648868
9.80972677735
9.85848926533
9.90497939467
9.94830811903
10.0262054401
10.3902301134
14.5838932101
47946.3086275
3843.64232412
291.23400328
29.9559501781
11.6563784198
9.94281382031
8.88823961654
8.9755558489
9.32981239998
10.0602480351
10.7451416474
11.276830701
11.5563023989
11.6832398292
11.7395602972
11.7898216605
11.8368773839
11.9245344821
12.3204462816
16.1761002784
56112.5696506
5091.56160473
387.174984128
38.8541274469
14.0837519846
11.8003302275
10.2280512121
10.2660588896
10.5475084238
11.330840338
12.130591484
12.8281327411
13.1969940214
13.3649219769
13.4254338781
13.4740650892
13.5180305399
13.6085364783
13.9926795793
17.2450581484
62580.3764618
6553.35196279
512.341364327
51.1560166763
17.370888265
13.7683486626
11.6375128755
11.5913372653
11.770455125
12.4738184089
13.3012310288
14.1193073576
14.5664892957
14.7713692177
14.8334051436
14.8766027778
14.912249884
15.0003147024
15.3346046108
17.8650465872
67202.521144
8192.41080834
671.969416458
67.6267979413
21.4683237003
15.7832399434
13.1282411443
12.9263107367
12.9645578465
13.4729693838
14.2302703407
15.1218863523
15.6371364329
15.8732200032
15.9355975415
15.9717965836
15.9969818381
16.079711758
16.3382352968
18.1167674639
69986.9892232
9972.75439915
872.488345769
88.9131063024
26.3752577616
17.8934408853
14.6909691716
14.2309610077
14.051231641
14.3007946956
14.9039806676
15.8420008493
16.423876938
16.6867488084
16.7498828383
16.7790584487
16.7948526384
16.8710900132
17.0419786203
18.0931927709
69957.4777498
12143.8257194
1135.4427855
116.5866853
32.1068639018
20.0904592981
16.2808135012
15.4378304278
14.9473563496
14.9037347091
15.3295343116
16.3159483369
16.9704988134
17.2580846181
17.3228059355
17.3451893723
17.3548927555
17.4237882563
17.5057820323
17.8912851367
67129.7447699
14351.7350434
1466.975769
153.56450411
38.8344926387
22.4264494306
17.8617112696
16.4696301389
15.5863474767
15.265721794
15.5561269889
16.6010768629
17.3353307025
17.6459105033
17.7121450981
17.7271669637
17.7347924225
17.7945802166
17.7913665822
17.6024510816
62018.5557786
16222.1582348
1878.6295509
202.57519043
46.5242380747
24.9711572986
19.4144306877
17.2855174709
15.9556326595
15.4192915698
15.6586797473
16.7613758476
17.5770617354
17.9072858345
17.9734782681
17.979435686
17.9882825986
18.0355477798
17.9506249373
17.2978467546
55646.0327593
17407.0511986
2326.74883003
261.295163128
55.0199573235
27.8412775167
20.9789246939
17.9101914467
16.1012779229
15.4327990297
15.6872233333
16.8543486954
17.7453869494
18.0890030248
18.1523506742
18.1467040156
18.1585198258
18.1878456272
18.0234122972
17.0194883214
49035.1536806
17595.6573263
2717.32295373
325.468448929
64.7704262941
31.2847664185
22.679475951
18.4266044508
16.1083662825
15.3782322791
15.6864604922
16.9242699925
17.876099599
18.2242064698
18.2814536042
18.2615128059
18.2760970714
18.2820220411
18.0415905526
16.7929054291
42648.7464588
17071.0221977
3052.74570415
397.335323608
76.7481070176
35.6401552463
24.6962800964
18.9445698907
16.0728553007
15.3124857779
15.68994296
16.9980083927
17.9900935752
18.3333771016
18.3815003429
18.3453230884
18.3604876034
18.3393445808
18.0270964596
16.6044403256
36795.1603904
16137.3298288
3340.86912196
482.517225914
92.5631201164
41.4885372078
27.2884978294
19.5905897501
16.0735454896
15.2791242029
15.7198003971
17.0880680906
18.0981602317
18.4284110618
18.4644246464
18.411232459
18.4236548395
18.3746628493
17.9962784707
16.464569671
31613.915896
15042.8434134
3601.17362925
589.293847455
115.235468923
49.8783129704
30.8763832918
20.5106382247
16.1681364954
15.3065787379
15.7864902942
17.1986612481
18.2060074503
18.5153339887
18.5365428468
18.4664981958
18.473042974
18.397679923
17.9602658591
16.3744044925
27106.2090286
13935.8888267
3861.73877597
729.34654803
149.951693472
62.5647062188
36.1345051851
21.8536955791
16.4015290963
15.3985057342
15.8937283448
17.3300992171
18.3140206455
18.595917019
18.6006536188
18.5146737264
18.5131897169
18.4141922882
17.9256040479
16.3250187793
23251.7741019
12920.2613067
4145.46756964
916.226970718
205.882580222
82.9457760622
44.1831775743
23.8269181713
16.7987362647
15.5507185865
16.0448834662
17.4782587497
18.419844504
18.6698570376
18.6577332412
18.5573593605
18.5468127409
18.4273803993
17.8953254839
16.3075301141
20002.5349406
12009.087547
4453.63172796
1162.49084872
296.576116098
117.00420724
56.9012640674
26.7105784635
17.3776937978
15.7670557387
16.2387629667
17.6345874695
18.5222140831
18.7361941331
18.7084492451
18.5952575555
18.5757085215
18.4388487596
17.8702772702
16.3153459889
17296.0722884
11237.4727375
4809.5337329
1496.21137023
444.295195327
175.368946132
77.3710977752
30.8826958838
18.1899012083
16.0403329828
16.4666352184
17.7920318336
18.620168425
18.7948304332
18.753605472
18.6289331187
18.6012110573
18.4493822088
17.8501663517
16.3440901049
15093.0716013
10602.2433545
5211.26067028
1934.6173887
672.480193886
274.888440239
110.704773228
36.8449583798
19.187757486
16.3700222563
16.7114221407
17.9502945362
18.7135175492
18.8473038686
18.7939831165
18.6591983645
18.6242332515
18.459424888
17.8341304254
16.3913441169
13309.4324152
10079.6999126
5646.03542726
2483.43742662
1008.42923877
439.218212928
163.193773289
44.4279330855
20.4228359994
16.7594647296
16.9649737458
18.1112203242
18.8039321489
18.8965964427
18.8305659141
18.6870011525
18.6452488257
18.4691637482
17.8209438506
16.4562973215
11844.8192885
9631.7145572
6088.22262979
3134.29684868
1475.69174559
689.156219357
234.836062274
53.3999380899
22.01929883
17.2041132181
17.2364427273
18.2773666203
18.8956726777
18.9449373414
18.8649460858
18.7128064351
18.664446657
18.4782139027
17.8092667286
16.5396132357
10606.6353028
9214.36417566
6506.88244627
3863.54391366
2073.78510783
1014.81015918
308.363634708
64.1619871747
24.0347739066
17.7158746035
17.5310377344
18.4539772644
18.9929265958
18.9931544806
18.898054858
18.7367174316
18.6819800864
18.4859802491
17.7980688564
16.6432893213
9560.52584703
8778.64699732
6840.00027777
4582.01162245
2716.32247528
1331.3278157
368.022166548
74.9559021423
26.1618233059
18.2657338602
17.8461937999
18.6433661711
19.0916015504
19.0405431329
18.9280860969
18.7580714167
18.6975942034
18.4918616152
17.7869262342
16.771571633
8676.54517433
8320.09168965
6981.75782051
5092.45531973
3184.81372229
1501.27446826
380.884073853
79.7189270376
27.4460859873
18.7232543811
18.1669270076
18.8385295833
19.1808234562
15.8490635883
7.71738885648
16.1156166856
9.43627800998
17.2127165465
10.4920014564
18.0218960998
10.6813761261
18.0630904223
10.706810715
17.5956521611
10.739092119
16.854327388
10.7460998108
16.067155879
10.6473213747
15.3984846648
10.4091080918
14.7748481883
10.1216088404
14.2258752587
9.84618270443
13.7956104198
9.64550736658
13.55811161
9.59502845166
13.6604802653
9.81959970394
14.4021890361
10.3496410819
16.170992395
11.1891862686
17.583795712
51.3974452275
18.4428180518
55.9851523457
19.2944664342
61.0779443153
20.224102455
66.7939985675
21.2545322446
73.2308166985
22.3999883286
80.5085415253
23.6756345876
88.7719440431
25.0993185015
98.1937722828
26.6920426796
108.978205496
28.4794011319
121.371516078
30.491853456
135.659524782
32.7704667166
152.214041557
)
;

boundaryField
{
    inletfuel
    {
        type            turbulentMixingLengthDissipationRateInlet;
        mixingLength    0.005;
        phi             phi;
        k               k;
        value           uniform 1630.0935556;
    }
    inletair
    {
        type            turbulentMixingLengthDissipationRateInlet;
        mixingLength    0.005;
        phi             phi;
        k               k;
        value           uniform 0.0603738353925;
    }
    outlet
    {
        type            inletOutlet;
        inletValue      nonuniform 0();
        value           nonuniform 0();
    }
    axis
    {
        type            empty;
    }
    leftside
    {
        type            epsilonWallFunction;
        value           nonuniform List<scalar> 
33
(
15.8490635883
7.71738885648
0.490231064078
1.04444373967
1.68999693188
7.71738885648
9.43627800998
10.4920014564
10.6813761261
10.706810715
10.739092119
10.7460998108
10.6473213747
10.4091080918
10.1216088404
9.84618270443
9.64550736658
9.59502845166
9.81959970394
10.3496410819
11.1891862686
51.3974452275
55.9851523457
61.0779443153
66.7939985675
73.2308166985
80.5085415253
88.7719440431
98.1937722828
108.978205496
121.371516078
135.659524782
152.214041557
)
;
    }
    burnerwall
    {
        type            epsilonWallFunction;
        value           nonuniform List<scalar> 7(55316.4757813 48049.6281342 45668.1666805 0.943183516104 1.39066180323 4.27916005388 1284.30978762);
    }
    front
    {
        type            wedge;
    }
    back
    {
        type            wedge;
    }
    procBoundary0to1
    {
        type            processor;
        value           nonuniform List<scalar> 
27
(
6930.31303529
7058.20178853
7290.44780823
7533.1139662
19.0870211646
18.9573698446
18.7811410351
18.7165270593
18.5013946106
17.7818653653
16.9371388351
7890.46830305
7783.8757872
6831.77642518
5184.62143413
3213.52219885
1387.45113026
324.353414029
72.5874604705
26.8409907575
18.9430116607
18.4779202488
19.0311315472
19.0870211646
19.2538578002
35.3760189874
171.428704832
)
;
    }
}


// ************************************************************************* //
