/*--------------------------------*- C++ -*----------------------------------*\
  =========                 |
  \\      /  F ield         | OpenFOAM: The Open Source CFD Toolbox
   \\    /   O peration     | Website:  https://openfoam.org
    \\  /    A nd           | Version:  7
     \\/     M anipulation  |
\*---------------------------------------------------------------------------*/
FoamFile
{
    version     2.0;
    format      ascii;
    class       volScalarField;
    location    "0.01";
    object      H2;
}
// * * * * * * * * * * * * * * * * * * * * * * * * * * * * * * * * * * * * * //

dimensions      [0 0 0 0 0 0 0];

internalField   nonuniform List<scalar> 
814
(
0.999951359654
0.999931438404
0.999831450125
0.999900754694
0.999866787572
0.999713953117
0.999662898083
0.999483714347
0.998870921139
0.993101249765
0.979674519586
0.859898533867
0.98255135398
0.955874186279
0.795450116757
0.967581170375
0.928306618692
0.756098861867
0.947070104734
0.89587976495
0.723161345516
0.920417063577
0.859808246753
0.694835804318
0.887305174939
0.821404672248
0.66969103993
0.848325302567
0.781861176895
0.646333510824
0.80511004805
0.742079347662
0.623244347809
0.75994716312
0.70299861265
0.599899497084
0.715151217202
0.665523327077
0.576663907431
0.672375303773
0.630168064891
0.553990645312
0.632180253386
0.596690687782
0.531522458891
0.594296153396
0.56447922675
0.508624465314
0.558163723699
0.533037008086
0.485064754957
0.523310212839
0.502050116231
0.46075838294
0.48971206943
0.471628416233
0.435980007904
0.457583935217
0.442077793173
0.411142879966
0.427207700006
0.413791897119
0.38674577127
0.398742176746
0.387041535044
0.363222065171
0.372078565441
0.361795073252
0.340686470525
0.347078586061
0.338008479146
0.319260140415
0.323628917311
0.315628671521
0.298997372692
0.301831597552
0.294808437217
0.280136274483
0.28192832285
0.275818934982
0.263005534503
0.264109149958
0.258855584748
0.247808015102
0.248391778476
0.243932722212
0.2345399528
0.234455905349
0.230717063422
0.222826128315
0.221639735723
0.218532058157
0.211960975939
0.208837044715
0.206270021761
0.200829680171
0.287311610058
0.363350733534
0.433246490189
0.47073416098
0.490781700523
0.499871413502
0.501683474208
0.498101270337
0.490648883196
0.480933355034
0.470184170371
0.458128073648
0.444252933738
0.428621489098
0.411299063675
0.392576856841
0.372899543731
0.352853846309
0.333021062969
0.313671596754
0.295096056938
0.277447798104
0.261042348801
0.246266904601
0.2333264318
0.222191878412
0.21242442618
0.203269511416
0.193601549432
0
0
0
0
0
0
0
0
0
0
0
0
0
0
0
0
0
0
0
0
0
0
0
0
0
0
0
0
0
0
0
0
0
0
0
0
0
0
0
0
0.00170396512146
4.53267583768e-05
0
0
0
0
0
0
0
0
0
0
0
0
0
0
0
0
0
0
0.0407915137266
0.0017745229059
0.00112783652231
0.000245470319352
5.2695686013e-05
0
0
0
0
0
0
0
0
0
0
0
0
0
0
0
0.0771192565276
0.0571507165057
0.0568065767999
0.0140168352334
0.00408691082058
0.000936650819703
0.000117938385389
0
0
0
0
0
0
0
0
0
0
0
0
0
0.139430167743
0.0956243342092
0.0834172647814
0.019955315319
0.00642477069937
0.00171327229316
0.000262620708159
0
0
0
0
0
0
0
0
0
0
0
0
0
0.176403753503
0.095489743227
0.0696160462322
0.0169622458869
0.00640769670815
0.00189504809083
0.000278047492719
0
0
0
0
0
0
0
0
0
0
0
0
0
0.20911132826
0.099107952827
0.0613376627634
0.014776428051
0.00534757415137
0.00161150957225
0.000160989905154
0
0
0
0
0
0
0
0
0
0
0
0
0
0.237799516477
0.103298692736
0.0543602928324
0.0132310728876
0.00401587883944
0.00116164889906
1.61492975625e-05
0
0
0
0
0
0
0
0
0
0
0
0
0
0.261885820821
0.108307130326
0.0490903671482
0.012128617903
0.00304874779042
0.00080047681478
0
0
0
0
0
0
0
0
0
0
0
0
0
0
0.280876332285
0.114637964023
0.0460197128026
0.0111799135463
0.00238698482921
0.00052544319663
0
0
0
0
0
0
0
0
0
0
0
0
0
0
0.295109984307
0.122165507866
0.0450011098945
0.0104807332779
0.00194373876013
0.000312214582532
0
0
0
0
0
0
0
0
0
0
0
0
0
0
0.305878284469
0.130652346004
0.0457343673761
0.0102003173411
0.00163036391393
0.00013959339679
0
0
0
0
0
0
0
0
0
0
0
0
0
0
0.314570123204
0.139851566733
0.0478382791714
0.0102687405117
0.00139250611412
4.83160023974e-07
0
0
0
0
0
0
0
0
0
0
0
0
0
0
0.319667886843
0.150586730527
0.0511647821898
0.0106437386481
0.00120653596987
0
0
0
0
0
0
0
0
0
0
0
0
0
0
0
0.32093933967
0.161737882074
0.055649231431
0.0114104416417
0.00106584333253
0
0
0
0
0
0
0
0
0
0
0
0
0
0
0
0.319029129551
0.172238856182
0.0612637451204
0.0124454026279
0.000969019319888
0
0
0
0
0
0
0
0
0
0
0
0
0
0
0
0.314129960814
0.179603828304
0.0664044219657
0.013489012184
0.000913370617223
0
0
0
0
0
0
0
0
0
0
0
0
0
0
0
0.306351843781
0.181985748707
0.0701769511392
0.014455744327
0.000904713001399
0
0
0
0
0
0
0
0
0
0
0
0
0
0
0
0.296158556819
0.180568713096
0.0728632507941
0.0155729846817
0.000960584614599
0
0
0
0
0
0
0
0
0
0
0
0
0
0
0
0.284229121793
0.176664934752
0.0748138876166
0.017088290307
0.00111057340593
0
0
0
0
0
0
0
0
0
0
0
0
0
0
0
0.271373338372
0.171544899519
0.0764105369166
0.0191823483201
0.00139369660382
0
0
0
0
0
0
0
0
0
0
0
0
0
0
0
0.258182914191
0.166147913562
0.0781477341443
0.0219791805789
0.00187072760281
0
0
0
0
0
0
0
0
0
0
0
0
0
0
0
0.245228377205
0.161174995197
0.0804005705592
0.0256465971746
0.00269165395444
0
0
0
0
0
0
0
0
0
0
0
0
0
0
0
0.232831093796
0.156860618513
0.083298642292
0.0304268219767
0.00488931707989
0.00025825756391
0
0
0
0
0
0
0
0
0
0
0
0
0
0
0.221391475635
0.153738581069
0.0872521398641
0.0367070468372
0.00920771718481
0.00102916893521
0
0
0
0
0
0
0
0
0
0
0
0
0
0
0.211412826787
0.151817489369
0.092150804803
0.0443851134269
0.0154094246
0.00286418389733
0.000178157770052
0
0
0
0
0
0
0
0
0
0
0
0
0
0.203096356668
0.151076474602
0.0979245311913
0.0533591704778
0.023567511142
0.0073811454563
0.000915080644805
0
0
0
0
0
0
0
0
0
0
0
0
0
0.196354372482
0.151366430498
0.104367982277
0.0633024524777
0.0333219334768
0.0138761637036
0.00214562134139
0
0
0
0
0
0
0
0
0
0
0
0
0
0.190601529947
0.152349677665
0.111117912465
0.0736189554224
0.0437582868125
0.0210943565093
0.00357615806574
0
0
0
0
0
0
0
0
0
0
0
0
0
0.184958908219
0.152678903094
0.117042527173
0.0828886854819
0.0530399713526
0.0272120989851
0.00490953871474
0.000113488495079
0
0
0
0
0
0
0
0
0
0
0
0
0.178285214205
0.150971138835
0.119953324856
0.0885595117276
0.0585487708434
0.0299946890647
0.00538244704844
0.000229666422347
0
0
0
0
0
0
0
0
0
0
0
0
0
0
0
0
0
0
0
0
0
0
0
0
0
0
0
0
0
0
0
0
0
0
0
0
0
0
0
0
0
0
0
0
0
0
0
0
0
0
0
0
0
0
0
0
0
0
0
0
0
)
;

boundaryField
{
    inletfuel
    {
        type            fixedValue;
        value           uniform 1;
    }
    inletair
    {
        type            fixedValue;
        value           uniform 0;
    }
    outlet
    {
        type            zeroGradient;
    }
    axis
    {
        type            empty;
    }
    leftside
    {
        type            zeroGradient;
    }
    burnerwall
    {
        type            zeroGradient;
    }
    front
    {
        type            wedge;
    }
    back
    {
        type            wedge;
    }
    procBoundary0to1
    {
        type            processor;
        value           nonuniform List<scalar> 
27
(
0.194236379041
0.192117300162
0.187610675273
0.181586267973
0
0
0
0
0
0
0
0.168717336012
0.14532595071
0.117708893009
0.0880222989004
0.0573966274964
0.0268948413528
0.004434324433
0.000174830728135
0
0
0
0
0
0
0
0
)
;
    }
}


// ************************************************************************* //
