/*--------------------------------*- C++ -*----------------------------------*\
  =========                 |
  \\      /  F ield         | OpenFOAM: The Open Source CFD Toolbox
   \\    /   O peration     | Website:  https://openfoam.org
    \\  /    A nd           | Version:  7
     \\/     M anipulation  |
\*---------------------------------------------------------------------------*/
FoamFile
{
    version     2.0;
    format      ascii;
    class       volScalarField;
    location    "0.01";
    object      H2O;
}
// * * * * * * * * * * * * * * * * * * * * * * * * * * * * * * * * * * * * * //

dimensions      [0 0 0 0 0 0 0];

internalField   nonuniform List<scalar> 
814
(
0.00043433419532
0.000612420277904
0.00150607171944
0.000853317505188
0.00115544778337
0.00253004575002
0.00121650601008
0.00160148723998
0.00323619058675
0.00244417982652
0.00435790943548
0.0177618315236
0.00501645845832
0.0104273452358
0.0428967795411
0.00909509668776
0.0184621803344
0.0600335230178
0.0148981649201
0.0281356568882
0.0735688245074
0.0225678886043
0.0389854153135
0.0847866260865
0.0323953845253
0.0509745197968
0.0949848901771
0.0443155507594
0.0637676315757
0.10466953884
0.0579228440456
0.0770226526303
0.114109512295
0.0725519133301
0.0903524172832
0.123390657051
0.0874515209836
0.10336753643
0.132383760305
0.10200986116
0.115803674175
0.140955182424
0.11592263828
0.127648229533
0.149234433918
0.129137657264
0.139010457776
0.157426675332
0.141703741055
0.149967462503
0.165593965719
0.153664950758
0.160549013852
0.173738520546
0.164941206007
0.170654945365
0.18173108354
0.175397517439
0.180133193098
0.189398405615
0.184899216756
0.188821305508
0.196558789426
0.193380678615
0.196626768828
0.20308487042
0.200892174208
0.203582375349
0.208977051592
0.207528035213
0.209758562561
0.214265133842
0.213401303429
0.215250446891
0.21901208189
0.21858805191
0.220117727271
0.223249715633
0.223136773509
0.224396579448
0.226990731781
0.227095957297
0.228126871989
0.230258758369
0.230524646755
0.231360263508
0.233093318142
0.233508990504
0.234177245472
0.235566944126
0.236137512692
0.236661600891
0.237753303698
0.238479239259
0.238876336447
0.239704226754
0.035223950038
0.117253780737
0.138078893659
0.144078879209
0.146345753653
0.148533016195
0.151660420229
0.155503705151
0.159853937078
0.164393777056
0.168869574388
0.173458013311
0.178369296763
0.18360425605
0.189128967473
0.194806433705
0.200457918536
0.205889921772
0.210949306746
0.215604888421
0.219846096332
0.223704189857
0.227183349867
0.23027071889
0.232970916816
0.235309117263
0.237350548034
0.239158517116
0.240771753004
0.00045642496225
0.000394676321705
0.000395945975468
0.000386973932928
0.000375351163995
0.000366818278478
0.000359079544778
0.000353781803732
0.000348262582244
0.000343767311239
0.000339764473096
0.000336470181223
0.000333910272847
0.00033197515364
0.000330520329453
0.000329469555295
0.000328624184261
0.000327905880424
0.0003178105738
0.000150730259582
0.00127309599748
0.00122862844806
0.0012871312906
0.00113231996421
0.00104204997924
0.000936544628156
0.000900804214222
0.00086541298218
0.000854054658339
0.000839735564196
0.00083420646901
0.000827007719388
0.000823724491728
0.000820476596828
0.000818663843545
0.000817260142558
0.000815943119699
0.000814516497515
0.000779911404486
0.000336794368913
0.00497728524866
0.00230679971906
0.00249290106114
0.00206024534774
0.00181185773849
0.00153390063235
0.0014168832493
0.0013279918607
0.00130175058573
0.00127570460979
0.0012697143437
0.00126029832566
0.00125818700725
0.00125525219728
0.00125441044368
0.00125369939972
0.00125264477666
0.0012510340164
0.00118819738752
0.000522127983778
0.0342355842242
0.0150444175229
0.0100521058035
0.00470851725516
0.00357962538151
0.00263655038985
0.00224895475356
0.00200330950316
0.00192523655812
0.00187330106454
0.00186456925094
0.00185334504574
0.00185416391653
0.00185324182722
0.00185477315176
0.00185607924012
0.00185623084743
0.00185494761226
0.00174889791972
0.000931864603989
0.183317302926
0.219325086258
0.146128099677
0.0558965834174
0.0212341518459
0.00835953629987
0.0043929630256
0.00309554009458
0.00275339715272
0.00262067681589
0.00259405332152
0.0025789743222
0.00258347404433
0.00258654114664
0.00259181532422
0.0025966780879
0.00259947071976
0.00259933759913
0.00244430738756
0.00150524030832
0.238817897172
0.283363067613
0.254529279976
0.129042715121
0.0450961264116
0.0167715396929
0.0077662593954
0.00473827245884
0.00383774322644
0.00351804080089
0.00343134327825
0.00340029212443
0.0034050938098
0.00341303225237
0.00342264674273
0.0034321812944
0.00343904255668
0.00344084624041
0.00324183142409
0.00222080577741
0.250674625243
0.306039365347
0.296807538556
0.198405546486
0.0664230752776
0.0255657289843
0.0117017504934
0.00690307106036
0.00522867091051
0.00458677379175
0.00435639399718
0.00427377930211
0.0042653190251
0.00427538286842
0.0042883747163
0.00430255625945
0.00431409823141
0.00431799431603
0.00408730586226
0.00302836717781
0.24853397254
0.307656095762
0.307269537133
0.230300039789
0.08409224738
0.0337670472744
0.0159574602558
0.00953617547514
0.00697655726203
0.00587349339811
0.00537124418815
0.00516523955489
0.00511164697113
0.00511400835463
0.0051270460003
0.00514430603863
0.00515969237082
0.0051648710861
0.00491733229546
0.003878461518
0.242402332536
0.302564192972
0.305597287119
0.246596770762
0.0993303151481
0.0413486093115
0.0201647096423
0.0125997532799
0.00914424240504
0.00744085395161
0.00650099445331
0.00605922739325
0.00590463837844
0.00587918107281
0.00588602050149
0.00590336394601
0.00592040180229
0.00592547372851
0.00567720618217
0.00474142519182
0.236389716343
0.295609806489
0.300445445806
0.254768710438
0.111598874084
0.0480025225296
0.0241681038762
0.0160781048675
0.0117973952215
0.00935218258143
0.00777782854038
0.006956380383
0.00662286465412
0.00653891783005
0.0065304099715
0.00654398780408
0.00655992382806
0.00656367476611
0.00633222900181
0.00560748453113
0.231123608582
0.28877125369
0.295094791219
0.257523524624
0.122625489862
0.0540871464876
0.0281610123389
0.0196845737265
0.0149505771361
0.0116418890448
0.00921909121922
0.00786052846932
0.00725982003576
0.007080604825
0.00704581328477
0.00705177510082
0.00706423933725
0.00706625024456
0.00686992742426
0.00648128709358
0.2268444263
0.282389465826
0.290354585634
0.25734524982
0.131816601229
0.0594629113233
0.0322857265085
0.0234178572439
0.0183547269598
0.0142890764717
0.0108144543548
0.00876531182666
0.00781613572423
0.00750720968417
0.00743572012477
0.0074311130592
0.00743870946824
0.00743957674321
0.00729582983554
0.00736980747061
0.223359578482
0.276501700358
0.28631133861
0.256744318477
0.138317271619
0.0638825926989
0.0365188815553
0.0272836116261
0.021791749254
0.0171060183454
0.0125097495374
0.00964752840239
0.00829323383122
0.00783111339992
0.00771580316601
0.00769916408037
0.00770160679976
0.00770276328694
0.00762699702343
0.00826964473869
0.22036979208
0.271026264932
0.282693115429
0.256097034182
0.142268322099
0.0674944746191
0.0408067422517
0.0312511241085
0.0251868854531
0.019729170056
0.0142078688227
0.0104718135166
0.00869158803788
0.00806872174862
0.00790758348858
0.0078790744517
0.00787697985726
0.00788034676112
0.0078854734607
0.00916501593167
0.218393051055
0.265616669193
0.279252878308
0.255343620543
0.143956723794
0.0707406480832
0.0451588123065
0.035259650002
0.0284298528645
0.0220680171928
0.0158025290687
0.0112044786023
0.00901217627731
0.00823712750566
0.00803332155584
0.00799439251465
0.00798890380384
0.00799651825555
0.00809294006546
0.0100300908477
0.217513617274
0.260509447952
0.275926226484
0.254846329872
0.144368549473
0.0739979243687
0.0496446830055
0.0392474347009
0.0314230142297
0.0240588810949
0.0171921514503
0.011819398546
0.00925889139367
0.00835233518
0.00811276868931
0.00806556499868
0.00805796431711
0.00807175034244
0.00826811744461
0.0108376877144
0.217535488447
0.255924387944
0.27260207263
0.253636658587
0.144537574057
0.0776590251951
0.0543490481652
0.04316744588
0.0340963212708
0.0256856432333
0.0182612431998
0.0123019100648
0.00943901788428
0.00842819089755
0.00816162816145
0.00810843225104
0.00809985468276
0.00812168833327
0.0084274036591
0.0115641063197
0.2183346724
0.252169868034
0.269046232492
0.251573233922
0.145601680928
0.0820988910325
0.0593777137385
0.0470109565021
0.0364266529308
0.0269620466963
0.019033501426
0.0126508836878
0.00956176984003
0.00847584133792
0.00819129246673
0.00813416997645
0.00812547730995
0.00815780446232
0.00858085515179
0.0122053667615
0.21978321448
0.24956083553
0.265587331081
0.249029611709
0.148500654731
0.0876453693616
0.0648686272156
0.050816436903
0.0384448234761
0.027928750625
0.0195517028489
0.0128729893696
0.00963597986585
0.00850349204154
0.00820935847766
0.00815003252791
0.00814184150374
0.00818618282622
0.00872403325722
0.0127772041172
0.22170481346
0.247837412929
0.262497270327
0.246959347096
0.153754140424
0.0945708562759
0.0709844132329
0.0546722014167
0.0402236641313
0.0286443930384
0.0198629211696
0.0129788416158
0.00966876318792
0.00851657684978
0.00822050031526
0.00816037681067
0.00815299948041
0.0082095126511
0.0088499357109
0.0132638389345
0.223917347692
0.246818466329
0.259949316895
0.245890718752
0.162040439668
0.103212037526
0.0779382706283
0.0587038257088
0.0418488582935
0.029161172607
0.0199912760218
0.0129834992632
0.00966591933055
0.00851895526749
0.00822741163369
0.00816764091889
0.00816112183469
0.00822906043411
0.0089557361783
0.0136659448763
0.226237575074
0.246280633979
0.257975769831
0.246058294048
0.174018993073
0.113946970847
0.0859791233469
0.0630321606972
0.04337232783
0.0294942936717
0.0199474851304
0.0129032632342
0.00963346794107
0.00851334625119
0.00823157044296
0.00817306778744
0.00816731369516
0.00824551698549
0.00904343852663
0.0140021728869
0.228567266207
0.24605636629
0.256561809681
0.247426275082
0.190091487829
0.127155106067
0.0953396174791
0.0677100959648
0.044790004195
0.0296330773855
0.0197431290859
0.0127506849321
0.00957697850059
0.00850156795933
0.0082337424018
0.00817721804284
0.00817211733381
0.00825935036762
0.00911661561327
0.0142899835062
0.230827284439
0.246032678852
0.255674974123
0.250085374548
0.210348963889
0.143390596152
0.106290412542
0.0727524166263
0.046035766642
0.0295675313967
0.0193919824567
0.0125355159923
0.00950195189786
0.00848514322279
0.00823433995508
0.00818031993229
0.00817580146164
0.00827097694427
0.00917901361529
0.0145449677367
0.232988532839
0.246139351057
0.255046538338
0.252638019702
0.227746548122
0.163319560553
0.119201356679
0.0781281301497
0.047026505429
0.0292947593273
0.0188948285993
0.0122756035149
0.00941318464449
0.00846507371189
0.00823355229071
0.00818245828733
0.00817851533322
0.00828080838011
0.0092340204457
0.014779735421
0.235013857718
0.246293358543
0.254468008808
0.254340629748
0.238085210373
0.187629102402
0.134667664694
0.0838180634764
0.0477026740812
0.0287688931657
0.0182822487327
0.0119884222257
0.00931475582222
0.00844218292324
0.0082314654845
0.00818365520276
0.00818036171941
0.00828925493295
0.00928450554164
0.0150040074581
0.23684000968
0.246471224617
0.25384233591
0.255246593933
0.245479986386
0.214606548153
0.153663079582
0.0896807351526
0.0478367012864
0.0280142281904
0.0176135310448
0.0116813703449
0.00921010565257
0.00841733600497
0.00822814470671
0.00818393204903
0.00818142539098
0.00829672489404
0.00933285021233
0.0152252810825
0.238433334291
0.246596455561
0.253106577006
0.255364839907
0.249819648478
0.230302000258
0.175531037173
0.0944738732085
0.0474534037049
0.0271491680634
0.0169156967075
0.0113636288856
0.00910233426413
0.00839136910606
0.00822367474117
0.00818333100482
0.00818180386271
0.00830363516359
0.00938105206662
0.0154494287637
0.239792375659
0.24662753802
0.252246251151
0.254827728552
0.251867860809
0.238844123353
0.196986163797
0.0969140347436
0.0467981894739
0.0262331510742
0.0161966057815
0.0110439330986
0.00899466171431
0.00836484301081
0.00821818346331
0.00818188243956
0.00818164076442
0.00831040942368
0.0094309772357
0.0156814295385
0.240973086015
0.246554367014
0.25128552275
0.253796776654
0.252254860699
0.242940497796
0.210156394853
0.0972836318543
0.0458067994257
0.0252091654972
0.0154674719631
0.0107225241819
0.00888822883859
0.00833790472418
0.00821175467441
0.00817964991509
0.00818107906224
0.00831742098634
0.00948439841618
0.0159256416362
0.242021994844
0.246443761831
0.25024561416
0.252377172058
0.251249808963
0.242792461405
0.210668702508
0.0948020719741
0.0440162371583
0.0239626942743
0.014690254545
0.0103917528874
0.00878070790632
0.00831029074503
0.00820435582794
0.00817663417288
0.00818016612412
0.00832523443966
0.00954328663077
0.0161864894362
0.242951925009
0.246308879537
0.249188083211
0.250720151183
0.249140543579
0.238809836826
0.19575432795
0.0872518074137
0.0407451443856
0.0222764987326
0.0137969763582
0.0100355912269
0.00866893716763
0.024023880529
0.0274486592411
0.0190152002774
0.0251532241123
0.0178047958477
0.0251899417152
0.0182803375067
0.026926889076
0.019221693556
0.0285575842226
0.0203400171736
0.0296027231176
0.021401317042
0.0301005019515
0.0225018039789
0.0305160509166
0.0239182627614
0.0315621355459
0.0256305624865
0.0331252460908
0.027640189321
0.0351825138615
0.0299403379771
0.0377525827505
0.032536603334
0.0409318860387
0.035396609057
0.0449517251839
0.0381585753119
0.0499924589032
0.0405110677567
0.0566261135308
0.0421830647349
0.0606960115707
0.0435332361568
0.0625287504132
0.044710886693
0.0639514192101
0.0458117435135
0.0652957718296
0.0468811406603
0.0666408693696
0.0479459109907
0.068013992184
0.0490249815356
0.0694301791992
0.0501327937254
0.0709004796442
0.0512806912152
0.07243383156
0.05247824169
0.074037837391
0.0537336700377
0.0757189404169
0.0550550708244
0.0774831378127
)
;

boundaryField
{
    inletfuel
    {
        type            fixedValue;
        value           uniform 0;
    }
    inletair
    {
        type            fixedValue;
        value           uniform 0;
    }
    outlet
    {
        type            zeroGradient;
    }
    axis
    {
        type            empty;
    }
    leftside
    {
        type            zeroGradient;
    }
    burnerwall
    {
        type            zeroGradient;
    }
    front
    {
        type            wedge;
    }
    back
    {
        type            wedge;
    }
    procBoundary0to1
    {
        type            processor;
        value           nonuniform List<scalar> 
27
(
0.240551754266
0.240836010425
0.241429027854
0.242194445651
0.0082783752495
0.00819298339455
0.00816987531315
0.00817598463832
0.00833158986185
0.0096063009987
0.0164632339743
0.243759934397
0.246153871202
0.248195440578
0.248931848988
0.246068974789
0.231373023813
0.165020369672
0.0738161833677
0.0356319601904
0.0200045960352
0.0127478190302
0.00964353878409
0.0082783752495
0.00854981213367
0.0564388153171
0.0793186394128
)
;
    }
}


// ************************************************************************* //
