/*--------------------------------*- C++ -*----------------------------------*\
  =========                 |
  \\      /  F ield         | OpenFOAM: The Open Source CFD Toolbox
   \\    /   O peration     | Website:  https://openfoam.org
    \\  /    A nd           | Version:  7
     \\/     M anipulation  |
\*---------------------------------------------------------------------------*/
FoamFile
{
    version     2.0;
    format      ascii;
    class       volScalarField;
    location    "0.01";
    object      HE;
}
// * * * * * * * * * * * * * * * * * * * * * * * * * * * * * * * * * * * * * //

dimensions      [0 0 0 0 0 0 0];

internalField   nonuniform List<scalar> 
814
(
2.46566012957e-11
1.92066557755e-11
7.10861663146e-12
2.63377106247e-09
2.73879706195e-09
2.03535637258e-09
1.42172065906e-07
2.37713359308e-07
5.39081422395e-07
4.73801682495e-06
1.40918432247e-05
9.76259255578e-05
1.63365370849e-05
4.40489780031e-05
0.000234318528426
7.83675771e-05
0.000235406100615
0.00131914702071
0.000272155537436
0.000746288747423
0.0032150645764
0.000706033860528
0.00168506220396
0.00560194046448
0.00149849643804
0.00308376590557
0.00818070984852
0.00274011578404
0.00489578121428
0.0107228754604
0.00445436048875
0.00702740377343
0.0131242024851
0.00658107141632
0.00935579993379
0.0153463190086
0.00899297708264
0.0117533363587
0.0173658213085
0.0115421215142
0.0141191197746
0.0191769611622
0.014110733318
0.0164063190532
0.0208257681053
0.0166199652811
0.018595986936
0.0223634158999
0.0190131231696
0.0206653388726
0.0238017497115
0.0212411320897
0.0225845319324
0.0251304591712
0.0232400975499
0.0242999451778
0.0263042757718
0.0249439980027
0.0257507649251
0.0272676559059
0.0262976401492
0.0268826580272
0.0279707351541
0.0272738966034
0.0276689591204
0.0283892345733
0.0278824932451
0.0281204114474
0.0285358876648
0.0281581503955
0.0282707957038
0.0284432297224
0.0281503194484
0.0281673634704
0.0281545197149
0.0279152453308
0.027863465759
0.0277177664628
0.0275114797606
0.0274141165855
0.0271814051993
0.0269926077998
0.0268685725737
0.0265864545907
0.0263989364665
0.0262624417434
0.0259591632059
0.0257436992156
0.0256039021475
0.0252970840115
0.0250009568562
0.0248620886092
0.0245594641827
0.0240839745589
0.0239469921521
0.0236496748262
0.000501246715299
0.00114167023532
0.00740404936642
0.0121265323953
0.0156749773866
0.0183775698532
0.0204356571096
0.0220436203961
0.0233410990169
0.0243956655616
0.0252474103318
0.0259897806337
0.0266930629853
0.0273672726584
0.0279978468574
0.0285363315555
0.0289281569965
0.0291272133134
0.0291139342141
0.0289042225879
0.0285298353678
0.0280290626923
0.0274431674197
0.0268124688518
0.0261677402157
0.0255238774923
0.0248651724136
0.024138105302
0.0232382065889
3.44020121736e-07
4.38719563639e-07
6.38917831445e-07
6.81061620949e-07
5.52167126937e-07
3.4055021236e-07
1.55018986718e-07
5.43411693293e-08
1.43791653015e-08
3.06110813597e-09
5.14204997074e-10
6.89247509981e-11
7.15629529121e-12
5.73006294934e-13
3.48156470399e-14
1.60463258541e-15
5.5783502946e-17
1.48665351126e-18
3.33213600489e-20
4.33431849411e-21
3.83070261553e-06
3.82020727658e-06
5.31285404487e-06
4.46244777571e-06
3.36678372906e-06
1.92486065824e-06
9.56866013586e-07
3.71513789774e-07
1.16131283035e-07
2.81088013854e-08
5.39582821523e-09
8.0824868725e-10
9.40376264449e-11
8.34593122803e-12
5.61318232415e-13
2.84729788643e-14
1.08283229638e-15
3.15915370469e-17
7.99970402557e-19
8.69829318839e-20
4.98244927244e-05
2.80576242513e-05
4.69266169731e-05
2.65184819201e-05
1.53517141994e-05
7.25853292569e-06
3.15452140251e-06
1.13954372299e-06
3.57248386932e-07
9.12820986638e-08
1.94273348581e-08
3.27877988066e-09
4.35130691828e-10
4.36409890553e-11
3.29628356831e-12
1.84831503638e-13
7.70081564339e-15
2.45160422506e-16
6.95533252206e-18
8.23590691207e-19
0.000667804959326
0.00106822915311
0.00147546936025
0.000442686590624
0.000194899062146
6.54914562882e-05
2.10987964699e-05
5.69819025526e-06
1.54851273537e-06
4.03578601809e-07
9.72846580342e-08
1.89704991034e-08
2.8878255563e-09
3.25974297324e-10
2.72148915674e-11
1.65334572454e-12
7.35482887632e-14
2.51075630881e-15
7.84687913194e-17
7.34711144831e-18
0.00585311535298
0.0568870173717
0.063204082353
0.0173888093771
0.00540998893813
0.0014126339333
0.000306901190043
5.09447510065e-05
8.63045846194e-06
1.80899782234e-06
4.52583898306e-07
9.86196501936e-08
1.67665572779e-08
2.09664158039e-09
1.91030178355e-10
1.2486470897e-11
5.90016214321e-13
2.15571867203e-14
7.42334565911e-16
5.6678187718e-17
0.0474688560361
0.0903868951347
0.0963882921674
0.0296324511226
0.00975558520004
0.00288818088492
0.000739450714413
0.000149533842989
2.83313088847e-05
6.20310448609e-06
1.68569515055e-06
4.10329273441e-07
7.74302236187e-08
1.06888559836e-08
1.06262618638e-09
7.51038484009e-11
3.79987635612e-12
1.50966273131e-13
5.62784199626e-15
3.59243965808e-16
0.0458819445923
0.0829983535669
0.0857181369254
0.0335271546079
0.0117776291511
0.00388042545631
0.00111465904995
0.000272989944353
6.17593405826e-05
1.60248337476e-05
4.96603340824e-06
1.36066127644e-06
2.84662123343e-07
4.32221484451e-08
4.67808861011e-09
3.57889817751e-10
1.95431375859e-11
8.5369777599e-13
3.34832035158e-14
1.79973096138e-15
0.0456535765946
0.0767907654766
0.0763493002753
0.0343220569969
0.0125150469676
0.00440829365829
0.00140146342439
0.000396439813012
0.000106056797976
3.34985427248e-05
1.19358477519e-05
3.67120687756e-06
8.48483482951e-07
1.40991986269e-07
1.65524760012e-08
1.36972381953e-09
8.13848147593e-11
3.84043247302e-12
1.54498572424e-13
7.12701961135e-15
0.0447289163493
0.0702097386767
0.0669203637976
0.0339618112647
0.0127602245915
0.0047292455587
0.00163083956723
0.000509743193118
0.000158948002376
6.02664310441e-05
2.4282284442e-05
8.26006045953e-06
2.09047243193e-06
3.78197483486e-07
4.79952881891e-08
4.29111424878e-09
2.75600012123e-10
1.36832667434e-11
5.53393834961e-13
2.24536201538e-14
0.0431985307691
0.0638091719579
0.0586741568683
0.0329949462829
0.0130060073203
0.00502399779309
0.00181403696895
0.000613775079257
0.000220316315132
9.7250542732e-05
4.30644834658e-05
1.58693427278e-05
4.33845190807e-06
8.47712709538e-07
1.1560583543e-07
1.10708319362e-08
7.55531209466e-10
3.86521088915e-11
1.54873306586e-12
5.65129878467e-14
0.0414677782582
0.0581512457773
0.052167574487
0.0314927955841
0.0133490435546
0.00530863303851
0.00196777890766
0.000715686456635
0.000291819670232
0.000144106156492
6.80807040191e-05
2.65938519757e-05
7.72768680498e-06
1.61055016709e-06
2.33417058025e-07
2.36303098783e-08
1.68200191538e-09
8.72769937969e-11
3.42296179887e-12
1.14109753747e-13
0.0397910070528
0.0533618071333
0.0471940140857
0.0297922043058
0.013631680332
0.00552592053093
0.00209965386002
0.000822254087215
0.000375288852461
0.000198903489006
9.7670102934e-05
3.95975107824e-05
1.2029256826e-05
2.63610427334e-06
4.00557534678e-07
4.22444743146e-08
3.08234654351e-09
1.59874931337e-10
6.05050653895e-12
1.85651713403e-13
0.0382369867259
0.0493573397913
0.0433662914203
0.028227614059
0.0136812042783
0.00561976368825
0.00220437297573
0.000932593176304
0.000466510873792
0.000256888397254
0.000128637087393
5.31781471962e-05
1.66492270947e-05
3.78318196513e-06
5.94497450492e-07
6.43413931245e-08
4.73791411542e-09
2.42038781554e-10
8.70513112409e-12
2.4522283482e-13
0.0367979305043
0.0459719845785
0.0402659384893
0.0267460543218
0.0134560349126
0.00559251830173
0.00228060458033
0.00104191398357
0.000556464777701
0.000311162147399
0.000156614748592
6.52170761586e-05
2.08128961057e-05
4.8439100054e-06
7.77465204945e-07
8.51494335621e-08
6.23775993739e-09
3.08991213322e-10
1.0384074223e-11
2.64833192289e-13
0.0355878296278
0.0430193828425
0.0376076505111
0.0252695855182
0.0129481491532
0.00546703683454
0.00233413940195
0.00114077109657
0.000632902919681
0.000353314602872
0.000177289704712
7.38648518754e-05
2.38223531268e-05
5.62436412997e-06
9.12513778313e-07
9.98862806153e-08
7.18346290265e-09
3.39427670045e-10
1.04654901251e-11
2.37295365544e-13
0.0346055651842
0.0404440563679
0.0352610682765
0.0238353156245
0.0122509576786
0.00528918496922
0.00237267884325
0.00121994851776
0.00068533703783
0.000376822979449
0.000187594979797
7.79704558473e-05
2.52716710616e-05
6.01086763885e-06
9.777289113e-07
1.05874402977e-07
7.38339504656e-09
3.27185098428e-10
9.0894625093e-12
1.80889195877e-13
0.0337941925679
0.0382073597209
0.0331532932658
0.022310238233
0.0114779539633
0.00510505202939
0.00240103928887
0.00127178658741
0.000707347718883
0.00037945845865
0.000186567777682
7.7320658961e-05
2.51164287943e-05
5.98945960637e-06
9.70734933609e-07
1.03175801141e-07
6.90309168205e-09
2.82468251689e-10
7.03407734198e-12
1.26784507031e-13
0.0330879065988
0.0361460548653
0.0309750573553
0.0206783775287
0.0107473624626
0.00495147443169
0.00242269130791
0.00129289850799
0.000698551238612
0.000363040861851
0.000175640279826
7.25778308055e-05
2.3605000812e-05
5.62609900049e-06
9.04421256385e-07
9.38294527531e-08
5.9762802022e-09
2.245376688e-10
5.33405394189e-12
9.16882407941e-14
0.032412341688
0.0341952107091
0.0287807309546
0.0190422496827
0.0101373757994
0.00485048028401
0.00244139782501
0.00128538794112
0.000664508888227
0.000332541588733
0.000157844398274
6.49332794799e-05
2.1142208536e-05
5.02656004143e-06
7.98901287721e-07
8.06041393311e-08
4.86675052522e-09
1.74280163704e-10
4.03977581924e-12
6.7435908737e-14
0.031713461144
0.032322913674
0.0267170620456
0.0175947918549
0.00966564705281
0.00480816685135
0.0024602239594
0.00125631120477
0.000614329597972
0.000294305606802
0.000136575949999
5.57388765793e-05
1.81640290208e-05
4.30001549692e-06
6.74519531364e-07
6.60675570746e-08
3.81419117198e-09
1.33044284369e-10
3.01926769783e-12
4.94316214469e-14
0.0309570708686
0.030543540346
0.0248820657813
0.016437632577
0.00934711395279
0.0048258959954
0.00248295360846
0.00121483819168
0.000557337132188
0.000254029372856
0.000114599900917
4.62309260367e-05
1.50556449845e-05
3.54439836728e-06
5.48105707315e-07
5.2196083472e-08
2.91400843427e-09
9.91041793174e-11
2.20753921028e-12
3.55876978464e-14
0.0301347209679
0.0288891318516
0.0233121274138
0.0155819569361
0.00917677593517
0.00489813794097
0.00251208925912
0.00116861222694
0.000500249397777
0.000215495654869
9.38928112542e-05
3.73258305274e-05
1.21126523525e-05
2.83189974287e-06
4.31347193861e-07
4.00410853957e-08
2.1668058034e-09
7.18314042831e-11
1.57131258619e-12
2.49610739516e-14
0.0292671236187
0.0273991517097
0.0220295021147
0.0149839058616
0.00912100922689
0.00501098830234
0.00254650123129
0.00112157811998
0.000446719594616
0.000180857557488
7.56641164233e-05
2.95430929175e-05
9.5166118911e-06
2.20483203366e-06
3.30602932243e-07
2.99397797921e-08
1.56960380096e-09
5.06491643972e-11
1.08680205117e-12
1.69996767562e-14
0.0283828855462
0.0261000919728
0.021025773004
0.0146118125096
0.00915485640987
0.00515430162593
0.00258744276924
0.0010768620262
0.000398235939319
0.000151202978884
6.04514717965e-05
2.30811068452e-05
7.34889213326e-06
1.68212723906e-06
2.48166785986e-07
2.19091679961e-08
1.11089005438e-09
3.47945926087e-11
7.3038077424e-13
1.12301738379e-14
0.0275079308818
0.0249883520321
0.0202571758358
0.0144122575951
0.00926256473003
0.00532176779308
0.002643395069
0.00103831844629
0.000355886715788
0.000126859624855
4.82375843453e-05
1.79588043081e-05
5.61492487564e-06
1.2641144115e-06
1.83362969055e-07
1.57780557295e-08
7.71456886425e-10
2.33471238955e-11
4.77398973742e-13
7.1965997079e-15
0.0266679269903
0.0240723904445
0.0197139749259
0.0143821811337
0.00945597021301
0.00552932215258
0.00273061045863
0.0010123491517
0.000320987758384
0.000107364752164
3.88701802728e-05
1.40548364455e-05
4.27482664363e-06
9.4063178462e-07
1.33916524857e-07
1.12365501429e-08
5.28607122778e-10
1.5358103119e-11
3.04028141596e-13
4.47654791868e-15
0.0258865432554
0.0233243942049
0.019331810109
0.014459663638
0.00973869153076
0.00581980854836
0.00287305143132
0.00100412912116
0.000292646645413
9.2618566453e-05
3.2099531796e-05
1.11526295005e-05
3.2661963494e-06
6.97071964975e-07
9.70530003368e-08
7.95660518914e-09
3.59900548279e-10
9.95232461097e-12
1.89117211137e-13
2.70586052123e-15
0.0251738165008
0.0227132926649
0.0190651100653
0.0146098013549
0.0101041976965
0.00617595940439
0.00307360377042
0.00100208149651
0.000272910744097
8.28230527614e-05
2.74303115147e-05
9.03921323941e-06
2.5212650277e-06
5.17685416265e-07
7.00758801935e-08
5.63723194279e-09
2.44508892425e-10
6.38331984568e-12
1.15310444472e-13
1.59238791107e-15
0.0245224325116
0.0222017480189
0.0188676559406
0.014792478056
0.0105252975429
0.006594836815
0.0032860841811
0.000995634880453
0.000264004644894
7.72065893685e-05
2.42710126486e-05
7.522541336e-06
1.97831050909e-06
3.87322618091e-07
5.06172691404e-08
3.98577815623e-09
1.66519766271e-10
4.08026198782e-12
6.93494100574e-14
9.15737148029e-16
0.0238902344889
0.0217394247459
0.018688410412
0.01495433121
0.0109196951412
0.00697266799477
0.00337663051145
0.000991092658095
0.000261716401629
7.40662516822e-05
2.21232290437e-05
6.41697607293e-06
1.58067779151e-06
2.92359814797e-07
3.66061925873e-08
2.80490254937e-09
1.13766056826e-10
2.60876400122e-12
4.13632982484e-14
5.16553475905e-16
0.0231971069687
0.0211953711601
0.0184044279563
0.0149568807433
0.0111059360069
0.00712567776206
0.00330542358584
0.000964037248775
0.000256729113209
7.12597984391e-05
2.03661127405e-05
5.53964262651e-06
1.27413309824e-06
2.21246553577e-07
2.6342569657e-08
1.95008597615e-09
7.74087044697e-11
1.65616169585e-12
2.44167052597e-14
2.85897603244e-16
0.0223244117178
0.0204254528862
0.0178121601662
0.0145716167479
0.0108605460342
0.00687004578411
0.00298067994401
0.000872124272545
0.000237244243692
6.57342414065e-05
1.82352260594e-05
4.70009800496e-06
1.01241768612e-06
1.15237879345e-17
1.12909771893e-17
4.98178181373e-17
3.83572122184e-17
2.07426284476e-16
1.29828059199e-16
7.40038293208e-16
3.66882252311e-16
2.25273450894e-15
9.12081005769e-16
5.72446071116e-15
1.96407384899e-15
1.22766964525e-14
3.6875363123e-15
2.17278444838e-14
5.85440559277e-15
3.06853709433e-14
7.4707682491e-15
3.57964678238e-14
7.9831939193e-15
3.48242064096e-14
7.2678365062e-15
2.86061955319e-14
5.73939848948e-15
2.02138631e-14
4.02103581447e-15
1.28089877201e-14
2.59436865274e-15
8.10490119194e-15
1.61961129382e-15
5.0460066826e-15
8.89871731175e-16
3.35864257679e-15
5.13793084963e-16
2.32620976708e-15
3.4133276616e-16
1.60246354479e-15
2.31791609707e-16
1.07912848066e-15
1.55012153497e-16
7.06375344124e-16
1.00966855851e-16
4.48710450115e-16
6.38550621321e-17
2.76545619024e-16
3.91851993773e-17
1.65422015773e-16
2.33349176826e-17
9.61286482961e-17
1.34921468037e-17
5.43668902837e-17
7.58167210573e-18
2.99833123731e-17
4.14466455985e-18
1.61320749091e-17
2.20491443387e-18
)
;

boundaryField
{
    inletfuel
    {
        type            fixedValue;
        value           uniform 0;
    }
    inletair
    {
        type            fixedValue;
        value           uniform 0;
    }
    outlet
    {
        type            zeroGradient;
    }
    axis
    {
        type            empty;
    }
    leftside
    {
        type            zeroGradient;
    }
    burnerwall
    {
        type            zeroGradient;
    }
    front
    {
        type            wedge;
    }
    back
    {
        type            wedge;
    }
    procBoundary0to1
    {
        type            processor;
        value           nonuniform List<scalar> 
27
(
0.0228054554754
0.022669682085
0.0223755839304
0.0219699422699
1.6437680912e-07
1.85121270413e-08
1.31492987053e-09
5.10399937465e-11
1.02008642376e-12
1.40208603511e-14
1.53492855377e-16
0.0210715417825
0.0192331727958
0.0167223378663
0.0135969474608
0.00995686090553
0.00599118342786
0.00235833283167
0.00069647601206
0.000196502460485
5.54509777574e-05
1.52048366799e-05
3.76424389003e-06
1.6437680912e-07
7.64732917957e-07
8.39500253931e-18
1.13273215549e-18
)
;
    }
}


// ************************************************************************* //
