/*--------------------------------*- C++ -*----------------------------------*\
  =========                 |
  \\      /  F ield         | OpenFOAM: The Open Source CFD Toolbox
   \\    /   O peration     | Website:  https://openfoam.org
    \\  /    A nd           | Version:  7
     \\/     M anipulation  |
\*---------------------------------------------------------------------------*/
FoamFile
{
    version     2.0;
    format      ascii;
    class       volScalarField;
    location    "0.01";
    object      k;
}
// * * * * * * * * * * * * * * * * * * * * * * * * * * * * * * * * * * * * * //

dimensions      [0 2 -2 0 0 0 0];

internalField   nonuniform List<scalar> 
814
(
21.1715315667
18.7411257646
10.6787528834
21.9853894574
19.10703581
9.2230053254
21.6734833237
19.7538307365
8.72917372781
22.184993701
24.2169252023
21.3241810779
23.1665236999
28.57733657
36.5598627512
24.5786260405
33.0603671041
46.4993578077
26.6342990249
37.9586773167
53.9080741313
29.3402557103
42.7513554451
58.6732375598
32.5656836322
46.9504747445
61.1462533343
35.990459657
50.1190499563
61.8892439603
39.1622276226
52.042621676
61.4862965729
41.6480203404
52.7155540318
60.2719400838
43.1683002621
52.272255506
58.3845126771
43.6426475403
50.9199021932
55.9250171866
43.1383875091
48.8637078811
53.011942613
41.7987835622
46.2546244494
49.707639813
39.8075951102
43.2360149343
46.0770726767
37.3450343669
39.9584711114
42.2616715905
34.6253033655
36.6127296247
38.4669250271
31.858969184
33.3750786563
34.8815828039
29.1992331156
30.3702763125
31.6091488871
26.7480326402
27.6656474865
28.6913839742
24.5398912973
25.268898324
26.1240708703
22.588808158
23.1731679053
23.8869661423
20.8909183555
21.3641663366
21.9650155904
19.4384637052
19.8267539967
20.3389934702
18.2183946649
18.5422861517
18.9885651697
17.2025327766
17.4788052498
17.8797290995
16.358723615
16.5991799717
16.9691379477
15.6561539733
15.8713349972
16.2212192269
15.0884966984
15.2862818357
15.6251948266
14.6622976989
14.8473202932
15.1787168391
5.89071466327
23.3486855023
35.7854653072
44.0169621074
49.1136910716
52.1308061852
53.7503829684
54.4184856575
54.3258452477
53.5465784913
52.1570772111
50.2067147328
47.6818398147
44.6384796775
41.2560887112
37.801949679
34.4805251729
31.3995492327
28.615965342
26.1365083473
23.9565430794
22.0740835891
20.4789572136
19.1600967375
18.0864368119
17.212146359
16.4981702207
15.9343909678
15.512679935
0.0167849222074
0.0175713600495
0.0175437762914
0.0175486663449
0.0177470511234
0.0179853084657
0.0179620132772
0.017981474282
0.0178734292539
0.0178189420425
0.0177473014363
0.0177027552086
0.017665809704
0.0176396363989
0.017620214484
0.0176062354285
0.0175955356341
0.0175967981183
0.0178368027986
0.0259973045346
0.0232830443643
0.0251591496512
0.0259715486616
0.0240646430124
0.023889763907
0.0235744745043
0.0235792192598
0.0234444242397
0.0233674841164
0.0232017544943
0.0231207252244
0.0230142798134
0.0229688225053
0.0229191291517
0.0228948321113
0.022873670734
0.0228579273601
0.0228699558517
0.0235133791513
0.0430336023697
0.0559758994104
0.0397269135647
0.0358968608625
0.0315525576208
0.0299554958551
0.029425300158
0.0292990097156
0.0289755596422
0.0289090991457
0.0286203585824
0.0285532653727
0.0284000513574
0.0283726491539
0.0283203266597
0.0283101476891
0.0282978614321
0.0282871558186
0.0283237650988
0.0293465693981
0.0593069124863
1.18286560533
0.052443572247
0.0381164254185
0.0384508655609
0.0362352531203
0.0367432356479
0.0377229730506
0.0375543724392
0.0377526559541
0.0373735321945
0.0374060813467
0.0372236625891
0.0372635818886
0.037239132292
0.0372759414092
0.0373018272155
0.0373166949136
0.0374188465189
0.039007289506
0.0844764825027
2.40109579984
0.34044309082
0.0592851499067
0.0357284707416
0.0390960535091
0.0442614857832
0.0489042588974
0.0494742757816
0.050439754632
0.0501574947062
0.050504054972
0.0503899539719
0.0505829939274
0.0506486003196
0.0507837495171
0.0508986812611
0.0509814391191
0.0512170205317
0.0536925251725
0.115982481633
4.61118065343
0.680193778973
0.0973876483386
0.0373195798924
0.0415929538493
0.0522391617112
0.0603955390405
0.0634917448163
0.0663020231861
0.0669679042026
0.0681512986312
0.0684018461353
0.0688889389955
0.0691394853084
0.0694306757978
0.069697378047
0.0699096508606
0.0703648639769
0.0741663522469
0.152791867765
6.83726558033
0.772320602028
0.103274720385
0.0365848306673
0.0452393208252
0.0618516532113
0.0721191554464
0.0789486436768
0.0840252603556
0.0869112815992
0.0896917448422
0.0908924362652
0.091894935601
0.0924488846447
0.0929403255931
0.0934083574209
0.0938104455583
0.0945592566774
0.100027443828
0.191312709917
9.68763885476
1.02352557931
0.124616214076
0.0385487814743
0.0518187136296
0.0730059405176
0.0856176638282
0.0953161532369
0.102522369691
0.108530092169
0.113617837947
0.116540503707
0.118351366903
0.119332717713
0.120034422092
0.120710598478
0.121326720895
0.122390976924
0.129496644719
0.225968530346
13.2298583558
1.43334021532
0.161108335794
0.043589574408
0.0615045053692
0.0871642264848
0.101260750529
0.112301748383
0.121037534019
0.130294111037
0.138088639474
0.143369894725
0.146285837502
0.147793383549
0.148674365581
0.149510340161
0.150303371332
0.151633749052
0.159905734472
0.253587453292
17.1979807352
2.0215617428
0.217208406437
0.0531891467969
0.0751034592602
0.105355665476
0.118339479045
0.129747976784
0.139100751007
0.151024997853
0.161407472903
0.16929859486
0.173496318543
0.175574239044
0.176574038996
0.177480010627
0.178357755683
0.179847421694
0.188514336158
0.272661304101
21.2356671701
2.80806972504
0.298828555756
0.0685186236627
0.0928704734839
0.126402467303
0.136155663212
0.147383962633
0.156616096113
0.169912210509
0.182313653307
0.192604144404
0.198079660761
0.200704753549
0.201756764592
0.202632474434
0.203482708379
0.205003752371
0.213238456549
0.283400066013
25.0285589151
3.79309630523
0.411909518449
0.0905547225919
0.115221300417
0.148681849736
0.154180954152
0.164589420797
0.17331842993
0.186495701075
0.19997722878
0.212147041419
0.218783301708
0.221883297861
0.222934153546
0.223702848984
0.224432556748
0.225877263825
0.232996665704
0.287147830802
28.408297176
4.97397403514
0.564866860884
0.119793689749
0.141497753203
0.170966269397
0.171984884783
0.180702099903
0.188513352614
0.200370431819
0.213881012486
0.227405575861
0.23509637535
0.238594542587
0.239618695623
0.240243194497
0.240803410306
0.24210429054
0.247668413947
0.285504857887
31.2864157773
6.34682736217
0.768315468961
0.157121549223
0.170442401174
0.192665018526
0.188990463558
0.19499829663
0.201175182638
0.211138950786
0.223818775083
0.238412246942
0.247152131158
0.251004893059
0.252006671641
0.252483595252
0.252873954575
0.254001270477
0.257818967821
0.280231109315
33.187811165
8.03765908496
1.0437737087
0.204487997388
0.200915888387
0.212971370713
0.204377105588
0.20663721821
0.210427094527
0.218314742908
0.229965755612
0.245672693274
0.255540692337
0.259742101987
0.260739013891
0.261080528874
0.261336898454
0.262280546766
0.264341545626
0.273008499128
33.9790136325
9.88988062993
1.4078873529
0.266044609538
0.231980458057
0.23165834474
0.21754301594
0.214882564546
0.21576449979
0.221960481754
0.233071211398
0.250019521577
0.261096782702
0.265644796428
0.266647223158
0.266862752217
0.267036540556
0.267786088791
0.268170648607
0.265257145484
33.7195201664
11.7089559138
1.88675088468
0.348615116228
0.262140249384
0.248741808539
0.228198364053
0.219543994948
0.217410910503
0.222737300037
0.234230104926
0.252400400518
0.264687318657
0.269551656532
0.270551445935
0.270638111115
0.270776287646
0.271305912978
0.27010395381
0.257974815081
32.6885945678
13.2351789573
2.44974192689
0.452405288012
0.290199473253
0.264607083661
0.23665287163
0.221165293338
0.216254736397
0.221709262995
0.234276124333
0.253682102955
0.267064407467
0.272167904555
0.273138264219
0.273080737061
0.273213313436
0.273471902385
0.270759631651
0.251658792821
31.2264416327
14.1967891987
3.01780896675
0.574797389763
0.317752504258
0.280385765808
0.243879826862
0.22082317487
0.213515179034
0.219921617806
0.233924839302
0.25454318713
0.268787107303
0.27400917461
0.274912963778
0.274690036696
0.274823896964
0.274757566844
0.270645855314
0.246495330686
29.4965385778
14.6765366798
3.58234213927
0.719843307496
0.348163823402
0.297448719222
0.251107573266
0.219697150951
0.210354736249
0.218147311957
0.233689955275
0.255413859409
0.270204117359
0.275408842984
0.276207197719
0.275802049291
0.275920572861
0.275495635298
0.270122972749
0.242338628339
27.6522724983
14.8173298053
4.1426807538
0.897330162555
0.386281189179
0.31792148105
0.259753148615
0.218854070793
0.207571990398
0.216900855396
0.233900262762
0.256505704847
0.271508891314
0.276567131937
0.277220172376
0.276626129219
0.27669898538
0.27591369347
0.269437348683
0.239194326614
25.8110599545
14.7652637314
4.71092826887
1.12308048715
0.440938749746
0.345424740296
0.271712795219
0.219217639808
0.205611599488
0.216471489289
0.23469830648
0.257890371698
0.272802037463
0.277590890329
0.278062554
0.277282064005
0.277279635672
0.276156885696
0.268734178603
0.236924233597
24.0403539421
14.6271540405
5.31476801298
1.42064283845
0.526994186931
0.385695580219
0.289669949192
0.22149090492
0.204712333235
0.216858219915
0.236098728417
0.259568807601
0.274102886285
0.278521617146
0.278788563287
0.277832017727
0.277734335522
0.276310301345
0.268086243651
0.235319069811
22.4033562373
14.4944599977
5.98137359937
1.81931588983
0.669862485777
0.449972745868
0.317958451234
0.226592094972
0.204947097259
0.217950303391
0.238083639994
0.261481363359
0.27538686585
0.279366355568
0.279421430363
0.278306200886
0.278104722718
0.276419760352
0.267518796272
0.234196675324
20.9405773363
14.3933086034
6.71847624953
2.35165288497
0.907424535901
0.557750957076
0.363937175745
0.235831825566
0.206365312276
0.219714127327
0.240606782275
0.263506345375
0.276634176681
0.280119034872
0.279974488274
0.278718902937
0.27841641475
0.276507740401
0.267030647383
0.233422294013
19.6761605891
14.3775186432
7.56756941017
3.07801787207
1.2971536399
0.742530320012
0.439364093219
0.250947140821
0.209305759427
0.222130693875
0.243512566294
0.265538876787
0.277826951089
0.28077948045
0.280459105928
0.279079446775
0.278686733747
0.276584437344
0.2666084429
0.232902829011
18.6444670179
14.4668620724
8.53929492557
4.04216574129
1.8990959716
1.05522375187
0.562347964959
0.274055692519
0.213685762841
0.225153309464
0.24653354577
0.267561655045
0.278956736916
0.281363172285
0.280884861682
0.279397964849
0.278926822676
0.276654571501
0.266233838425
0.23257849785
17.8313116
14.6577575278
9.63104454443
5.26829434779
2.77762577424
1.55882841936
0.752172793335
0.30402061666
0.219625054543
0.228579898962
0.249552400879
0.269582735096
0.280036293131
0.281900401571
0.281262821942
0.279685220197
0.279142234484
0.276719205125
0.265885863252
0.23241482437
17.1926993366
14.9248884857
10.8180438046
6.74876034309
3.97535738515
2.29357404113
1.00236318879
0.338471658174
0.227090646481
0.232202166581
0.252681944006
0.271622317028
0.281106190207
0.282414372537
0.281610210031
0.279946548633
0.279334925654
0.276772993018
0.265542905362
0.232396980764
16.6754684246
15.2253828573
12.0527833822
8.42899710048
5.45886519222
3.20581645449
1.2452114511
0.376603721895
0.236026376965
0.236196500579
0.256000011181
0.273743801182
0.282210572533
0.282914622514
0.281937399819
0.280183474121
0.279506354807
0.276808407297
0.265187081373
0.232526368904
16.2753235756
15.4936068295
13.2142220364
10.1105894296
6.99075912181
4.04732670226
1.4188440936
0.410670514541
0.245343377772
0.240660351786
0.259604306662
0.275999345937
0.283315252702
0.283395523461
0.282226494984
0.280389558307
0.279653815205
0.276816727934
0.264806058245
0.23282516256
15.9770543782
15.6858541418
14.0828048163
11.3891109443
8.08109822015
4.46354497434
1.42345123085
0.420618782051
0.252226631883
0.245548409495
0.263612630193
0.278373349614
0.284319216321
0.120530164845
0.138453979162
0.184503006167
0.169555339205
0.219676180934
0.188543169352
0.235377957483
0.191731727099
0.239192511826
0.191954580119
0.237438081186
0.192426397116
0.233166784573
0.192494329696
0.227245339634
0.190664861227
0.218799268912
0.186265114724
0.20842498225
0.180924985889
0.197106232154
0.175753045715
0.185664131855
0.171869388834
0.174738052566
0.170598668122
0.164905576733
0.174108600754
0.157616637665
0.182875349162
0.152582291636
0.196832380426
0.150799579985
0.209247338525
0.151017592261
0.221522377569
0.152335816041
0.234760429497
0.154347614458
0.249187310123
0.156891519373
0.264948829931
0.159893392393
0.282222750884
0.163321131605
0.301216472013
0.167167958896
0.322167177893
0.171444988283
0.345341349767
0.176178141686
0.371047939192
0.181406738226
0.399621572828
0.187194783651
0.431500766305
)
;

boundaryField
{
    inletfuel
    {
        type            turbulentIntensityKineticEnergyInlet;
        intensity       0.05;
        value           uniform 13.5;
    }
    inletair
    {
        type            turbulentIntensityKineticEnergyInlet;
        intensity       0.05;
        value           uniform 0.015;
    }
    outlet
    {
        type            inletOutlet;
        inletValue      nonuniform 0();
        value           nonuniform 0();
    }
    axis
    {
        type            empty;
    }
    leftside
    {
        type            kqRWallFunction;
        value           nonuniform List<scalar> 
33
(
0.120530164845
0.138453979162
0.0259973045346
0.0430336023697
0.0593069124863
0.138453979162
0.169555339205
0.188543169352
0.191731727099
0.191954580119
0.192426397116
0.192494329696
0.190664861227
0.186265114724
0.180924985889
0.175753045715
0.171869388834
0.170598668122
0.174108600754
0.182875349162
0.196832380426
0.209247338525
0.221522377569
0.234760429497
0.249187310123
0.264948829931
0.282222750884
0.301216472013
0.322167177893
0.345341349767
0.371047939192
0.399621572828
0.431500766305
)
;
    }
    burnerwall
    {
        type            kqRWallFunction;
        value           nonuniform List<scalar> 7(10.6787528834 9.2230053254 8.72917372781 0.0167849222074 0.0232830443643 0.0559758994104 5.89071466327);
    }
    front
    {
        type            wedge;
    }
    back
    {
        type            wedge;
    }
    procBoundary0to1
    {
        type            processor;
        value           nonuniform List<scalar> 
27
(
14.3441164027
14.512778804
14.8230476022
15.1540198168
0.283838574839
0.282482362439
0.280589741698
0.27981179129
0.276832567922
0.264434488405
0.233372820035
15.6621279343
15.6246634573
14.3686352847
11.8018117857
8.17142327875
4.12085638865
1.20582722567
0.390998805496
0.2542762278
0.250862009156
0.268119783496
0.280810517059
0.283838574839
0.285141283914
0.193661145751
0.467086483061
)
;
    }
}


// ************************************************************************* //
