/*--------------------------------*- C++ -*----------------------------------*\
  =========                 |
  \\      /  F ield         | OpenFOAM: The Open Source CFD Toolbox
   \\    /   O peration     | Website:  https://openfoam.org
    \\  /    A nd           | Version:  7
     \\/     M anipulation  |
\*---------------------------------------------------------------------------*/
FoamFile
{
    version     2.0;
    format      ascii;
    class       volScalarField;
    location    "0.01";
    object      N2;
}
// * * * * * * * * * * * * * * * * * * * * * * * * * * * * * * * * * * * * * //

dimensions      [0 0 0 0 0 0 0];

internalField   nonuniform List<scalar> 
814
(
0
0
0
0
0
0
0
0
0
0.00393302624709
0.013797668727
0.103682054492
0.01170133322
0.0314459815846
0.151006342996
0.0226539885578
0.0515193785904
0.177786409648
0.0374678405129
0.0745697825081
0.19830190715
0.0563090139586
0.0994734776095
0.214460701066
0.0788009440976
0.124537042049
0.227143360044
0.10461903089
0.149475410315
0.238274074876
0.132512747415
0.173870595934
0.249521937411
0.160919852134
0.197293170133
0.261363526856
0.188404284732
0.219355800134
0.273586510956
0.214072713553
0.23990914116
0.285877211101
0.237786375016
0.259254763632
0.298417339085
0.259946224059
0.277914328538
0.311585443455
0.281119412076
0.296330190538
0.325539529612
0.301783704314
0.314816337985
0.340372637343
0.322106627013
0.333416693224
0.355984632785
0.342074549342
0.352038248803
0.372191058513
0.361595443088
0.370504139346
0.38872470415
0.380603248036
0.388662737007
0.405303829836
0.399146767106
0.406502139952
0.421800590219
0.41723522833
0.423962162589
0.438031496021
0.434819459812
0.440953518118
0.453836025703
0.451665105207
0.457210369753
0.468896243421
0.467423423881
0.472370368984
0.482822328517
0.481802284946
0.486148970689
0.495346771939
0.494684638303
0.498444572537
0.506407565851
0.506291404931
0.509501788959
0.516309843548
0.517221794728
0.519944252343
0.525726256181
0.528599741467
0.53090664964
0.535816418249
0.542557731759
0.475649185294
0.40762269083
0.368900261274
0.346252624714
0.333218000449
0.326220448453
0.324351404116
0.326156080708
0.330277202348
0.33569884491
0.342424132407
0.350684706514
0.360406982194
0.371574121994
0.384080377899
0.397714380737
0.412129018606
0.426915696071
0.441819292236
0.456528011362
0.470818949346
0.484331133912
0.496649907657
0.507534911169
0.516975126832
0.525359853373
0.533433866166
0.542388490975
0.767948517021
0.767955163438
0.767954614216
0.767955524995
0.767957041983
0.767958360865
0.767959547037
0.767960313765
0.767961000448
0.767961523068
0.767961975428
0.767962344864
0.767962631452
0.767962848024
0.767963010836
0.767963128429
0.767963223035
0.767963303422
0.767964433227
0.767983131759
0.767862295029
0.767860217591
0.767847717184
0.767865785789
0.76787761096
0.767891873493
0.767897538367
0.767902508962
0.767904221096
0.767905975604
0.767906633615
0.767907447163
0.767907815831
0.767908179457
0.76790838234
0.76790853943
0.767908686817
0.767908846465
0.767912719169
0.767962309167
0.766130541018
0.767678257054
0.767649198421
0.767726198363
0.767771329307
0.767815924581
0.767836006502
0.76784941744
0.767853703151
0.767857077207
0.767857871731
0.767858953396
0.767859194606
0.767859523731
0.767859618012
0.767859697593
0.767859815613
0.767859995858
0.767867027914
0.767941568368
0.732257967765
0.763177917348
0.763286144083
0.766475059524
0.767213637271
0.767592700277
0.767712074766
0.767765998128
0.767781874962
0.767789661645
0.767791167806
0.767792559239
0.767792495436
0.76779260309
0.767792432267
0.767792286157
0.767792269191
0.767792412767
0.767804280644
0.767895715089
0.681132669846
0.59220272947
0.586243342348
0.7178426013
0.752236024724
0.763699420754
0.766862978412
0.767565987892
0.767677003783
0.767703599555
0.767708919605
0.767711218561
0.767710856512
0.767710538703
0.767709951837
0.767709407992
0.767709095502
0.767709110354
0.76772645935
0.767831549805
0.545815100531
0.490604293602
0.490587191948
0.682677870743
0.739756155643
0.759445105942
0.765597508921
0.767212687225
0.767521744119
0.767595598447
0.767613092583
0.76761877018
0.767618808066
0.767618035136
0.767616975956
0.767615910742
0.767615143077
0.767614941188
0.767637212125
0.767751473647
0.519463162185
0.503403877889
0.518732084779
0.671277047084
0.733917553428
0.756575598309
0.764497196583
0.766758174685
0.767308523721
0.767459055956
0.767503911045
0.767519382332
0.767522187856
0.767521478913
0.767520091813
0.767518512393
0.767517221447
0.767516785447
0.767542600605
0.767661104053
0.494908222533
0.512784669228
0.542784351141
0.668632268305
0.731745852377
0.755037052196
0.763645399366
0.766251124188
0.767036587621
0.767284912667
0.76737831211
0.767415636096
0.767426508612
0.767427466544
0.76742622274
0.767424317659
0.767422598226
0.767422018829
0.767449719374
0.767565975968
0.475055690296
0.523017961574
0.566996016757
0.669129787242
0.730969420661
0.754089810627
0.762925135034
0.765713147072
0.766702800835
0.767063322721
0.767230577155
0.767307675975
0.76733562866
0.767341434444
0.767341239569
0.767339374475
0.767337475015
0.767336907929
0.76736468975
0.767469408326
0.458525932067
0.532232932047
0.587824942901
0.671187777159
0.730166572989
0.753202452434
0.762177940427
0.765144525044
0.766300028515
0.766785621534
0.767055285299
0.767194153216
0.767251380791
0.767266801099
0.76726901731
0.76726767865
0.767265913419
0.767265494977
0.767291394081
0.767372494266
0.446532280874
0.53843953651
0.60347961675
0.674651002645
0.729040661851
0.752310352342
0.761466222705
0.764565150444
0.765823848642
0.766448591762
0.766850864343
0.767074484244
0.767174261852
0.76720487279
0.767211142811
0.767210837992
0.76720948136
0.767209259162
0.76723122762
0.76727471336
0.43825458234
0.542083219175
0.614432250859
0.67856138734
0.728019355314
0.751552951919
0.760777587508
0.763963733316
0.765299122701
0.766057981724
0.766621375925
0.76695083988
0.767104600993
0.767155370918
0.767167226751
0.767168360602
0.767167578363
0.767167486422
0.767183571277
0.767175285163
0.432525150324
0.543488613847
0.621688281983
0.681907277006
0.727583611677
0.751076420419
0.760124265057
0.763341546854
0.764757780704
0.765643143776
0.76637846312
0.766828779613
0.767043271501
0.767117155043
0.767135554102
0.767138330083
0.76713815972
0.767138038102
0.767146515607
0.767074590631
0.428262154212
0.543150183756
0.626398323234
0.684812810035
0.727842421778
0.750868057529
0.759515359784
0.76271095032
0.764224187171
0.765256894482
0.76614062913
0.766715952602
0.766991567158
0.767088749931
0.767113781892
0.767118164398
0.767118534893
0.767118168357
0.767117593643
0.766974396437
0.426351232474
0.540777217437
0.629256845362
0.687466462705
0.728798795968
0.750734782275
0.758941143985
0.762096106155
0.763732495163
0.764924207858
0.765927348599
0.766619365422
0.766950594382
0.76706857958
0.767099483096
0.767105236678
0.767106010494
0.767105170184
0.767094379251
0.766877593555
0.426941477872
0.537308613607
0.630569678819
0.689694816514
0.73018812969
0.750695466087
0.758382703528
0.761521499472
0.763312723618
0.764663905703
0.765755451913
0.766543979657
0.766920629966
0.767055051124
0.767090485535
0.767097263585
0.767098283351
0.76709675276
0.767074777699
0.766787223959
0.429641189433
0.533629396153
0.630505881137
0.691938820239
0.73170135843
0.750630558805
0.757825492514
0.761008027883
0.762985111606
0.76448218017
0.765639711274
0.766491856608
0.766900946287
0.767046640664
0.767085036226
0.767092472546
0.76709359736
0.767091165452
0.767056954209
0.76670593948
0.434447460187
0.532080248796
0.630966169254
0.694447483335
0.73301437458
0.750439959742
0.757256303654
0.760565762871
0.762754499705
0.764374948006
0.765575182309
0.76646202354
0.76689009155
0.767041987699
0.767081838111
0.767089609554
0.767090732235
0.767087124587
0.767039783592
0.766634184834
0.441452600052
0.534258205053
0.632534532367
0.697057819532
0.733892387105
0.750056916068
0.756659447555
0.760190782086
0.762609539865
0.764329635024
0.765551983075
0.766451699565
0.76688638078
0.767039990976
0.767080006247
0.767087858128
0.767088903264
0.767083949412
0.767023762588
0.76657019861
0.450423168577
0.5392709603
0.634670958751
0.69913330475
0.73424536017
0.749451361847
0.75601946962
0.759865526168
0.76252789748
0.764329106142
0.765559031372
0.76645734765
0.766888258026
0.76703985182
0.767078982186
0.767086726336
0.767087656658
0.767081339063
0.767009674722
0.766515746257
0.460896459646
0.545933519843
0.636874026935
0.700237256176
0.733966398975
0.748598374418
0.755315976793
0.759564677845
0.762484877917
0.764357695191
0.76558871773
0.76647509058
0.766894391134
0.767040965738
0.767078435033
0.767085937971
0.767086749411
0.767079151862
0.766997836212
0.766470752279
0.472254365586
0.553165785142
0.638769750316
0.700188251762
0.732982064578
0.747484856558
0.754528638583
0.759265442239
0.762462981475
0.764406551809
0.765636069953
0.766501419309
0.766903569205
0.767042899161
0.767078178734
0.767085352139
0.767086057889
0.767077310524
0.766988022787
0.766433129597
0.483982695983
0.560231544109
0.639932167485
0.698978822402
0.731279039338
0.746116561334
0.753646368781
0.758957208177
0.762454685649
0.764471796387
0.765697193534
0.766533888167
0.766914822207
0.767045370054
0.767078116142
0.767084905514
0.767085521431
0.767075762685
0.766979834626
0.766400924409
0.495561452809
0.566550180077
0.640084115982
0.696528651786
0.72878153629
0.744478917633
0.752650116851
0.758632610428
0.762461314181
0.764550886953
0.765769046113
0.766570897927
0.766927361011
0.767048170401
0.767078196786
0.767084572514
0.767085109999
0.767074461756
0.766972852529
0.76637239213
0.506672442484
0.571944011095
0.639223171958
0.692865180098
0.725317840079
0.742285395728
0.751496699555
0.758285173798
0.762485671254
0.76464185839
0.765850955952
0.766610303308
0.766940609738
0.767051182724
0.767078400346
0.767084343946
0.767084806927
0.767073361676
0.766966697397
0.766346121771
0.516926739657
0.575895669943
0.637027966591
0.687735271344
0.720631554142
0.739219238545
0.7501044743
0.757900980216
0.762527776066
0.764748786444
0.765939529064
0.76665029343
0.76695415768
0.767054328858
0.767078720866
0.767084217874
0.767084600756
0.76707241654
0.766961048149
0.76632102561
0.525860620278
0.578386891809
0.633691662092
0.681312670336
0.714514065283
0.734893646078
0.748159612277
0.757479386949
0.762608274083
0.764868798725
0.766028774676
0.766690352171
0.766967714541
0.767057535979
0.767079155743
0.767084192483
0.767084482042
0.767071580662
0.766955638329
0.766296264748
0.533296492539
0.579613777172
0.629366673514
0.673724122378
0.706901346797
0.729268254429
0.745344270714
0.757149824519
0.762720614023
0.764989899897
0.766116682504
0.766729817566
0.766981049912
0.767060738756
0.767079700225
0.767084263597
0.767084439908
0.767070807393
0.766950244414
0.766271182088
0.539330819347
0.579804283462
0.624310823954
0.665278763942
0.69804100956
0.722520314445
0.742100395122
0.757040582698
0.762838098521
0.765107687953
0.766203354926
0.766768082416
0.76699392294
0.76706390252
0.767080344309
0.767084428297
0.767084458303
0.767070049321
0.766944657593
0.766245220499
0.544535149549
0.579356530576
0.618899412088
0.656532223443
0.688759146811
0.715606402855
0.739622898137
0.757105931899
0.762973151077
0.765230521273
0.766288357609
0.766805440363
0.767006312556
0.767067035122
0.767081081997
0.7670846795
0.767084520944
0.767069264369
0.76693867918
0.76621789192
0.549821989968
0.579681963914
0.614307430711
0.64893216881
0.680882724988
0.710341226992
0.738627456143
0.757332765886
0.763182322306
0.765372578054
0.766376479752
0.766842987877
0.767018558161
0.767070169656
0.76708190292
0.767085000721
0.767084606007
0.767068372636
0.766932069537
0.766188674135
0.556438449068
0.582294528742
0.613005462749
0.645064518179
0.676975733871
0.70887254029
0.740176838517
0.758097718327
0.763545380564
0.765558788638
0.766475551317
0.766882636301
0.767031017388
0.76531156107
0.764928347876
0.765872065574
0.76518519278
0.766007518905
0.765181064652
0.765954307679
0.764986687093
0.765848969253
0.764804203365
0.765723824826
0.764687245119
0.765605058085
0.76463153498
0.765481903075
0.764585023911
0.765323387232
0.76446794857
0.765131765521
0.764293012729
0.764906874018
0.764062776379
0.764649478806
0.763775160689
0.764358959236
0.763419393415
0.764038938374
0.762969601352
0.763729889983
0.762405577435
0.763466656202
0.761663281782
0.763279564658
0.761207866348
0.763128481608
0.761002787747
0.76299670175
0.760843591125
0.762873514014
0.760693155562
0.762753845855
0.760542635414
0.762634694804
0.760388978496
0.76251394298
0.76023050212
0.762389974424
0.760065969952
0.76226151981
0.759894381867
0.762127508539
0.759714887179
0.761987019867
0.759526764104
0.761839106912
0.75932927241
)
;

boundaryField
{
    inletfuel
    {
        type            fixedValue;
        value           uniform 0;
    }
    inletair
    {
        type            fixedValue;
        value           uniform 0.768;
    }
    outlet
    {
        type            zeroGradient;
    }
    axis
    {
        type            empty;
    }
    leftside
    {
        type            zeroGradient;
    }
    burnerwall
    {
        type            zeroGradient;
    }
    front
    {
        type            wedge;
    }
    back
    {
        type            wedge;
    }
    procBoundary0to1
    {
        type            processor;
        value           nonuniform List<scalar> 
27
(
0.542406411217
0.544377007329
0.548584712942
0.554249344106
0.767073294157
0.767082700663
0.767085286247
0.767084604651
0.767067182163
0.766924445926
0.766156752971
0.566451187809
0.589287005292
0.616981585441
0.647448741394
0.679826958045
0.713644597907
0.744829074781
0.759650969004
0.764094601603
0.765801384835
0.766588193345
0.76692470782
0.767073294157
0.767043576053
0.761682092813
0.759120852568
)
;
    }
}


// ************************************************************************* //
