/*--------------------------------*- C++ -*----------------------------------*\
  =========                 |
  \\      /  F ield         | OpenFOAM: The Open Source CFD Toolbox
   \\    /   O peration     | Website:  https://openfoam.org
    \\  /    A nd           | Version:  7
     \\/     M anipulation  |
\*---------------------------------------------------------------------------*/
FoamFile
{
    version     2.0;
    format      ascii;
    class       volScalarField;
    location    "0.01";
    object      nut;
}
// * * * * * * * * * * * * * * * * * * * * * * * * * * * * * * * * * * * * * //

dimensions      [0 2 -1 0 0 0 0];

internalField   nonuniform List<scalar> 
814
(
0.00236617499926
0.00146148929122
0.000185536380222
0.00199218470671
0.00125828787855
0.000159329941733
0.00178560495479
0.00116889867439
0.000150167242432
0.00150870382872
0.00099410104213
0.00026288936466
0.00130290716088
0.000916371494446
0.000445916696144
0.00116758678965
0.00090952424196
0.000622591112136
0.00109713956438
0.000958401165417
0.000803264737973
0.00108900394045
0.00104618854156
0.000977296471573
0.00113319417554
0.00115778516254
0.00113926794735
0.00121709880839
0.00128026286743
0.00128810002536
0.00132609762716
0.00140432276301
0.00142483034217
0.00144548648597
0.00152317605278
0.00154920049859
0.00156280011683
0.00163184239483
0.00165959578503
0.00166953992807
0.00172742863991
0.00175517499321
0.00176110141539
0.0018088084837
0.00183599173784
0.00183541070344
0.00187476870699
0.00190081671631
0.00189230364142
0.00192471325113
0.00194859810053
0.00193289519997
0.00195959408593
0.00198078601223
0.00196037067348
0.00198273511102
0.002001677254
0.00197929516601
0.00199854723474
0.00201586971487
0.00199318489862
0.00201009777619
0.00202590231716
0.00200480686562
0.00201963706517
0.00203368528463
0.00201587797555
0.0020287572071
0.00204090829844
0.00202881114182
0.00203984004147
0.00205018054618
0.00204674905184
0.00205625514155
0.0020653181815
0.0020731304754
0.00208157334792
0.0020901587153
0.00211111740036
0.0021190813941
0.00212827722153
0.00216237476981
0.00217051726879
0.00218149266494
0.00222742378889
0.00223628452123
0.00225004096934
0.00230711633644
0.00231720152717
0.0023346392049
0.00240547594534
0.00241726154546
0.00243917952686
0.00252891184408
0.00254238283642
0.00256851248494
0.00243169269756
0.000396801990995
0.000589145892425
0.000762719000557
0.000914563377103
0.00105318006718
0.00118470777634
0.00131242057506
0.00143567839401
0.00155213497776
0.00166011891308
0.00175629530413
0.00183582027286
0.00189594721365
0.00193826565075
0.00196799948292
0.00198931618873
0.00200442424945
0.00201558053351
0.00202504125413
0.00203626554699
0.00205362106992
0.00208136589706
0.00212361157547
0.00218226551151
0.00225739614342
0.00234934265114
0.00246181844095
0.00259811403655
2.68834482185e-05
6.26995914224e-05
6.56473852749e-05
6.50653048835e-05
6.47178646157e-05
6.44694798271e-05
6.46478971659e-05
6.49487656367e-05
6.54881126726e-05
6.60032179625e-05
6.64888805469e-05
6.6906956757e-05
6.72335748164e-05
6.74911517192e-05
6.76827794148e-05
6.78289165355e-05
6.79435476103e-05
6.80333327353e-05
6.92371105219e-05
0.000124079011578
3.5083306254e-05
4.81548360776e-05
4.89675629722e-05
4.85004413586e-05
4.90853489471e-05
4.97037158186e-05
4.99123419322e-05
5.01629648713e-05
5.02945245503e-05
5.04533034535e-05
5.057923131e-05
5.06953174679e-05
5.07888465908e-05
5.08589002996e-05
5.09139839026e-05
5.09532282137e-05
5.09897174423e-05
5.10600489264e-05
5.32935226297e-05
0.000159577943388
6.59001100173e-05
5.5095683661e-05
5.29602005062e-05
5.05039621991e-05
5.03709401523e-05
5.09016646491e-05
5.12648637153e-05
5.1323415007e-05
5.14745068173e-05
5.1438232401e-05
5.15394742934e-05
5.15508467598e-05
5.16305847036e-05
5.16660281938e-05
5.17157636962e-05
5.17484486458e-05
5.17780384349e-05
5.18792517988e-05
5.49284148868e-05
0.000187312699927
0.000157380928292
1.53879402128e-05
3.23700913701e-05
5.1513922724e-05
5.41581795626e-05
5.6556357166e-05
5.8369284244e-05
5.86290375983e-05
5.9132613168e-05
5.89892888129e-05
5.92264367401e-05
5.92045652386e-05
5.93739143434e-05
5.94466033668e-05
5.95580524494e-05
5.96409645594e-05
5.97044088673e-05
5.9902223063e-05
6.40927536092e-05
0.000212895274898
7.12083736183e-05
1.41515997514e-05
4.55558123961e-06
8.52871849432e-06
2.60541024832e-05
5.14317958872e-05
6.70737001435e-05
7.1143213525e-05
7.30910847467e-05
7.32530717476e-05
7.39494594756e-05
7.40750260039e-05
7.44780860153e-05
7.46988099251e-05
7.49584457646e-05
7.51737830088e-05
7.53398597713e-05
7.5736195185e-05
8.15774964141e-05
0.000246731788879
0.000120536167254
2.55066888589e-05
5.5836748491e-06
5.47624885267e-06
2.00382464611e-05
5.08917423332e-05
7.63636785222e-05
8.69179283723e-05
9.2038175259e-05
9.37304236447e-05
9.55725956498e-05
9.6268206152e-05
9.71099559214e-05
9.76287086119e-05
9.81277868873e-05
9.85717119143e-05
9.89352432924e-05
9.96563722097e-05
0.000107789002017
0.000287648576368
0.000190434316913
3.21399236352e-05
6.43174145417e-06
5.46376484908e-06
2.16375459247e-05
5.69467207964e-05
8.79857233561e-05
0.000105181650889
0.000114226805453
0.000119063938758
0.000123020315664
0.000125030402655
0.000126597217747
0.000127583299052
0.000128389555339
0.000129138464269
0.000129791956171
0.000130946629123
0.000141803181325
0.000330598367885
0.000283721316125
4.45559272689e-05
7.99838517941e-06
6.11345071077e-06
2.66122679711e-05
6.74349151796e-05
0.000103024211512
0.000125328217534
0.000138179279717
0.000147269655001
0.000154256097334
0.000158504775679
0.000161146250662
0.000162752602172
0.000163878764201
0.000164946932369
0.000165930947508
0.000167553258903
0.000180958869426
0.000368482428752
0.000406090058914
6.48998915659e-05
1.05398132257e-05
7.065608786e-06
3.40156928496e-05
8.19623506755e-05
0.0001212966837
0.00014677235285
0.000162673841998
0.000176212161767
0.000186787236453
0.000194024251444
0.000198079214655
0.000200399014621
0.000201792178775
0.000203110040233
0.000204376390911
0.00020639427937
0.000221485561668
0.000396848331146
0.000555190784964
9.56915441609e-05
1.45798712259e-05
8.49973640678e-06
4.35510623517e-05
0.000100472912433
0.000141803209795
0.000168803848884
0.000186650237874
0.000204047603074
0.000218211502904
0.000228750554863
0.000234425115907
0.000237465655757
0.00023902558028
0.000240455195773
0.000241874095529
0.000244123455089
0.000259600088442
0.000413633489697
0.000723292849841
0.000139382189072
2.07577086476e-05
1.08748333508e-05
5.51162244913e-05
0.000121859516547
0.000163125191851
0.000190431687636
0.000209298163305
0.000229313471702
0.000246603320238
0.000260261734666
0.000267576061255
0.000271263523649
0.000272879172364
0.000274259679476
0.000275666571682
0.00027794233934
0.000292464178747
0.000419157981681
0.000900898839394
0.000197590816062
2.98048365567e-05
1.4426733129e-05
6.87837782411e-05
0.000144502900706
0.000183841600777
0.000210335607846
0.000229688232536
0.000250946268747
0.000270590013431
0.000286881852194
0.000295744011623
0.000299965273562
0.000301546898385
0.000302748341487
0.000303998227153
0.000306116807498
0.000318617289758
0.000415383686231
0.00108080500736
0.0002717927171
4.27351463384e-05
1.90981618033e-05
8.39350710231e-05
0.000166673755443
0.000202775986834
0.000227349663929
0.000246699934398
0.000268192392659
0.00028931691223
0.000307778839591
0.000318109874822
0.000322773956178
0.000324276558995
0.000325230245578
0.000326234377846
0.000328072042223
0.000337892544312
0.000404938252012
0.00125874229017
0.000363530418555
6.08922510468e-05
2.49889628551e-05
9.91290820458e-05
0.000186704327254
0.000218812356142
0.000240474990418
0.000259225024745
0.000280555673578
0.000302505489487
0.000322916025755
0.000334730700612
0.00033980921842
0.000341235976682
0.000341933186892
0.000342668759597
0.000344168520338
0.000351036458172
0.000390624960778
0.00141698609044
0.00047879118618
8.6355491619e-05
3.22796783107e-05
0.00011315485342
0.000203186615414
0.000230903702427
0.000248927763097
0.00026661307169
0.00028781506858
0.000310484473377
0.000332923124521
0.000346312395071
0.000351831416603
0.000353212696929
0.000353681571211
0.000354178374423
0.000355330171488
0.000359245918597
0.000374932689431
0.00154792191488
0.000613366709465
0.000121606106679
4.14820867669e-05
0.000124717580526
0.000215366368932
0.000238456812805
0.000252325428931
0.000268817870867
0.000290453412637
0.000314281123181
0.000338886359707
0.000353926775303
0.000359915925395
0.000361281296543
0.000361558932682
0.000361874337539
0.000362685995565
0.000363794129011
0.000359752273214
0.00164999881629
0.000760624338305
0.000170541659436
5.39943954166e-05
0.00013293234209
0.00022299822919
0.000241403133446
0.000250959273966
0.000266619033622
0.000289576950684
0.000315335447464
0.000342068374844
0.000358725707068
0.000365171397775
0.000366530481329
0.000366643812522
0.000366837788958
0.000367309101913
0.000365784096692
0.000346262199824
0.00172822705528
0.000905684506986
0.000232131284985
7.0496326053e-05
0.000137757578406
0.000226337379143
0.000240260757981
0.000245796804632
0.000261404716534
0.000286658936483
0.000314885376076
0.000343645129636
0.000361733774219
0.000368554482254
0.000369891819784
0.000369851075989
0.00036996937977
0.000370072380392
0.000366077739503
0.000334903917953
0.00178969887003
0.00103090176077
0.000301637089275
9.1361493358e-05
0.000140295492504
0.000226162979625
0.000236026763012
0.000238169692202
0.00025471148216
0.000283055720517
0.000313957042272
0.000344552590621
0.000363736271365
0.000370786651837
0.000372067918452
0.000371870366687
0.000371935849558
0.000371635852596
0.000365401603072
0.000325637236962
0.00183602397323
0.00113561246525
0.000378343262161
0.000117371127333
0.00014214844818
0.00022342261407
0.000229789716487
0.000229301349004
0.00024777304848
0.000279702625451
0.000313257325424
0.000345408792982
0.000365252344349
0.000372353807682
0.000373535202153
0.000373174639793
0.000373186964067
0.000372467294349
0.000364283724298
0.000318319730567
0.00187030943632
0.00122447727349
0.000462323511674
0.000150187649196
0.000145081368512
0.000219257335697
0.000222527926504
0.000220041328119
0.00024125055734
0.000277119175171
0.000313225348823
0.000346532203892
0.000366586268476
0.000373556029274
0.000374590180305
0.000374064115389
0.000374008828646
0.000372880472322
0.000363057487053
0.000312747519824
0.00189660065001
0.00130435255065
0.000554640311611
0.000192633744178
0.000151849326045
0.000215296828807
0.000215197026638
0.000210869772891
0.000235330255099
0.000275528031637
0.000314034117999
0.000348031155273
0.000367894260519
0.000374559984697
0.000375403904161
0.00037471537908
0.000374576061021
0.000373070752687
0.000361889146767
0.000308528980351
0.00191891369002
0.00138174374227
0.000658306648983
0.00024904532309
0.000166687404435
0.000213994407761
0.000208990855504
0.00020203630414
0.000229956763296
0.000274862636159
0.000315648710711
0.000349902031905
0.000369220688081
0.000375441888799
0.000376066121929
0.000375224365782
0.000374990620613
0.000373150466179
0.000360842571657
0.000305283312863
0.00194273061336
0.00146344124993
0.000776731371813
0.000325128966019
0.000196152668395
0.000219695243656
0.000205933171934
0.000193938550597
0.000225034674108
0.000274920422716
0.000317954554028
0.000352067410874
0.000370546739846
0.000376226793914
0.000376619717215
0.000375640229583
0.000375309839436
0.000373178900263
0.000359924583551
0.000302702335144
0.00197303492999
0.00155257923276
0.000912157387171
0.000428153405913
0.000249877626449
0.00023928841852
0.000209494890938
0.000187397607369
0.000220558483455
0.000275554730652
0.000320852403697
0.000354371967904
0.000371844427606
0.000376917563012
0.000377087067729
0.000375987285794
0.000375566455088
0.00037318423915
0.000359114909114
0.000300559795922
0.00201453925588
0.00165554784823
0.00107164849988
0.000569891045368
0.000340842490509
0.000282955540002
0.000224549903988
0.000183523552965
0.0002167576964
0.000276851114579
0.000324101021495
0.00035667542735
0.000373084881353
0.000377515536678
0.000377482501665
0.000376279217947
0.000375780188691
0.000373178110268
0.000358383526418
0.000298697294691
0.00207283542813
0.00177661540206
0.00125934214762
0.000760108617752
0.000482677257695
0.000364565148319
0.000257090730621
0.000183460297729
0.00021417533939
0.000278708304559
0.000327326482513
0.000358937371171
0.000374249121149
0.00037803131813
0.000377815998503
0.000376526896348
0.000375962619356
0.000373164262467
0.000357698466529
0.000297007259128
0.00215005491678
0.0019183593941
0.00147858294888
0.00100584103846
0.000688564371262
0.000497919114581
0.000312014061363
0.00018723734381
0.000212564249774
0.000280581116088
0.00033037929528
0.000361142787645
0.000375337947217
0.000378486427341
0.000378097492294
0.000376740171323
0.000376119133733
0.000373141781492
0.000357028020418
0.00029541873593
0.0022459609805
0.00208142657768
0.0017300133551
0.00130782729048
0.000963827286303
0.000686989910409
0.000385059584658
0.000193084038552
0.000210783939606
0.000282060812628
0.000333382875185
0.000363295304933
0.00037637517525
0.000378898534949
0.00037834128457
0.000376924024343
0.00037625117911
0.000373104029754
0.000356341067245
0.000293885475488
0.0023595053032
0.00226419371818
0.00200929753397
0.0016550398892
0.00129325300712
0.000911454535827
0.0004525489536
0.000198945407759
0.000208604440198
0.000283417608901
0.000336445600346
0.000365461064846
0.000377395901379
0.000379276730166
0.000378556566867
0.000377080465195
0.000376359581878
0.00037304272744
0.000355610318318
0.000292380070266
0.00249356097725
0.00246104744152
0.00229757443337
0.00200788702285
0.00161923491005
0.00110737324929
0.000492309124407
0.000202499389674
0.000207072859876
0.00028537404973
0.000339876150142
0.00036773442324
0.000378390356523
0.000379620055697
0.000378731450484
0.000377205483416
0.000376442177303
0.000372946500536
0.000354811296815
0.000290889856697
0.00264782393601
0.00266152617546
0.00255656035247
0.00229242390873
0.00184543708751
0.00119437922534
0.00047877876528
0.000199736937952
0.00020861425004
0.00028982471829
0.00034426547149
0.000370212278456
0.000379304231952
8.24955272661e-05
0.000223554290604
0.00019010891084
0.000274198277332
0.000252324273775
0.000304933945837
0.000276677350185
0.000309744262052
0.000285066125112
0.000309727197282
0.000288361907208
0.000310316050065
0.00029031164139
0.000310332686795
0.000289263391089
0.000307286492298
0.000279805506883
0.000299979819514
0.000264617784257
0.00029106504639
0.000245790008998
0.000282345154512
0.000224883509519
0.000275622392125
0.000202683449611
0.000272990488151
0.000179162546547
0.000277836420968
0.000155245178119
0.00029082220108
0.00012957287739
0.000311628446866
0.000116393879493
7.66691878112e-05
0.000111293630927
7.88868932872e-05
0.000108246480073
8.12096967047e-05
0.000106016410506
8.36675227896e-05
0.000104229317828
8.62725517505e-05
0.00010272017512
8.90398852678e-05
0.000101397125121
9.19865252373e-05
0.000100204369421
9.51308003436e-05
9.91083594618e-05
9.84917879539e-05
9.80879609014e-05
0.000102090605658
9.7132712018e-05
0.000105947342476
9.62381726091e-05
0.000110090776433
)
;

boundaryField
{
    inletfuel
    {
        type            calculated;
        value           uniform 0.0100623058987;
    }
    inletair
    {
        type            calculated;
        value           uniform 0.000335410196625;
    }
    outlet
    {
        type            calculated;
        value           nonuniform 0();
    }
    axis
    {
        type            empty;
    }
    leftside
    {
        type            nutkWallFunction;
        Cmu             0.09;
        kappa           0.41;
        E               9.8;
        value           nonuniform List<scalar> 
33
(
1.52733984756e-06
0
8.30449542309e-06
1.36719639989e-05
1.77443281629e-05
0
0
0
0
0
0
0
0
0
0
0
0
0
0
0
0
2.68362386334e-07
6.21501717682e-07
9.94062923373e-07
1.38790532405e-06
1.80415918255e-06
2.24482467176e-06
2.71225970264e-06
3.20903054791e-06
3.73778601425e-06
4.30143370684e-06
4.90265075605e-06
5.54542947625e-06
)
;
    }
    burnerwall
    {
        type            nutkWallFunction;
        Cmu             0.09;
        kappa           0.41;
        E               9.8;
        value           uniform 0;
    }
    front
    {
        type            wedge;
    }
    back
    {
        type            wedge;
    }
    procBoundary0to1
    {
        type            processor;
        value           nonuniform List<scalar> 
27
(
0.00267200495696
0.00268565109686
0.00271245980215
0.00274361818863
0.000379880664901
0.000378832386396
0.000377280287174
0.000376486377344
0.000372796997457
0.000353916968211
0.000289402987691
0.00279795847099
0.0028227210113
0.00271981839548
0.00241781366054
0.00187006464688
0.00110153873567
0.000403454168122
0.000189553482678
0.000216798107594
0.000298994552126
0.000350144364738
0.000372910521193
0.000379880664901
0.000380053687798
9.54154153083e-05
0.000114539046763
)
;
    }
}


// ************************************************************************* //
