/*--------------------------------*- C++ -*----------------------------------*\
  =========                 |
  \\      /  F ield         | OpenFOAM: The Open Source CFD Toolbox
   \\    /   O peration     | Website:  https://openfoam.org
    \\  /    A nd           | Version:  7
     \\/     M anipulation  |
\*---------------------------------------------------------------------------*/
FoamFile
{
    version     2.0;
    format      ascii;
    class       volScalarField;
    location    "0.01";
    object      O2;
}
// * * * * * * * * * * * * * * * * * * * * * * * * * * * * * * * * * * * * * //

dimensions      [0 0 0 0 0 0 0];

internalField   nonuniform List<scalar> 
814
(
0
0
0
0
0
0
0
0
0
0.000516806144426
0.00215581040875
0.0185599541922
0.000714517805091
0.00220843792302
0.0104124421775
0.000591376802865
0.00147641628238
0.00476205844701
0.00029173429557
0.00066850690589
0.00175285824999
0
4.77981199392e-05
0.000314928064523
0
0
0
0
0
0
0
0
0
0
0
0
0
0
0
0
0
0
0
0
0
0
0
0
0
0
0
0
0
0
0
0
0
0
0
0
0
0
0
0
0
0
0
0
0
0
0
0
0
0
0
0
0
0
0
0
0
0
0
0
0
0
0
0
0
0
0
0
0
0
0
0
0.13440546143
0.0426046301996
0.0136478759558
0.0041601661422
0.000944943724545
0
0
0
0
0
0
0
0
0
0
0
0
0
0
0
0
0
0
0
0
0
0
0
0
0.231594713996
0.231649721521
0.231648800891
0.23165682001
0.231667054686
0.231674480307
0.2316812184
0.23168585009
0.231690722591
0.23169470656
0.231698259585
0.231701184886
0.231703458268
0.231705176822
0.231706468834
0.231707402016
0.23170815278
0.231708790698
0.231717756199
0.231866137981
0.230860778271
0.230907333754
0.230859838672
0.230997431799
0.231076972277
0.231169657018
0.231200700553
0.231231706542
0.231241608115
0.231254260723
0.23125915452
0.23126554431
0.231268459583
0.231271343938
0.231272953816
0.231274200427
0.231275370063
0.231276637037
0.231307369426
0.231700896464
0.227138384119
0.229941558844
0.229810973901
0.230187037807
0.230401461241
0.230642916254
0.230743955727
0.230821451155
0.230844189015
0.230867126901
0.230872394498
0.230880745
0.230882617951
0.230885224028
0.230885971541
0.230886603007
0.230887539611
0.230888970126
0.230944774698
0.231536303649
0.192047129325
0.21893491307
0.224058444231
0.228128266311
0.228959142599
0.229705257877
0.230017871684
0.230224994179
0.230291339967
0.230336633712
0.230344165659
0.230354076744
0.23035333776
0.230354154757
0.230352794554
0.230351634601
0.230351499961
0.230352639621
0.230446821436
0.231172420307
0.0525776553474
0.074434450395
0.147617898822
0.194855170673
0.217032923671
0.225591758194
0.228319218987
0.229287527262
0.229560968605
0.229673914632
0.22969657449
0.229709708498
0.229705652677
0.229702918054
0.229698232647
0.229693913908
0.229691433778
0.229691552046
0.229829233263
0.230663209887
0.0284679785177
0.040021409441
0.075077971127
0.138691647695
0.198967362046
0.219181901187
0.225634160261
0.227899506473
0.228612181346
0.228880157648
0.228953878443
0.228980527366
0.228976020694
0.228968921923
0.228960376239
0.228951907888
0.228945814362
0.228944212571
0.229120956451
0.230027720576
0.00757651447723
0.0120686599699
0.0291261935069
0.0798280059348
0.181474045435
0.21208319916
0.222408346381
0.22606576431
0.227401046028
0.227938145419
0.228134728925
0.228205477704
0.228212208457
0.228203094996
0.228191528792
0.22817893099
0.228168680302
0.228165220236
0.228370093533
0.22931052877
0.00179290007219
0.00366051670567
0.0122591486878
0.0519692068579
0.166299279124
0.2051760973
0.218834687048
0.223816260524
0.225880798319
0.226808095392
0.227238507854
0.227415453143
0.227460995934
0.227458384109
0.227446714707
0.227431374933
0.227417709322
0.227413110081
0.22763294833
0.228555562514
1.35443412756e-05
0.000909414040424
0.00612603949394
0.0370805578442
0.15292416076
0.198670685603
0.215263166459
0.221177356455
0.223994008758
0.225435556897
0.226244146108
0.226624836571
0.226757642489
0.226779006285
0.226772691934
0.226757257288
0.226742122907
0.226737618328
0.226958104068
0.227789166482
0
4.09591804472e-05
0.00396508727607
0.0289199482179
0.142179797816
0.192970550428
0.211839918728
0.218163595009
0.221682259948
0.223764945342
0.225123821677
0.225833597058
0.226121416103
0.226193433359
0.226200457112
0.226188322475
0.226174161997
0.226170830219
0.226376376915
0.227020021203
0
0
0.00323830474095
0.0251527635998
0.132597819904
0.187768424936
0.208404986048
0.215034589373
0.218933754552
0.221765413037
0.223861963733
0.225038393435
0.225558190425
0.225712911835
0.225742810487
0.225737363277
0.225726277621
0.225724490507
0.225898844952
0.226243999547
0
0
0.00301803952679
0.023820425256
0.124588624365
0.183146001645
0.204837032124
0.211796155353
0.215970861486
0.219454038315
0.222466499617
0.224244250783
0.225067234026
0.225334783294
0.225396652566
0.225400484094
0.225393709087
0.225392936674
0.225520598882
0.225454907366
0
0
0.00289972061101
0.0229204731174
0.118787548511
0.179281629797
0.201152480411
0.208442248344
0.212983959168
0.216993949482
0.220983150255
0.223470513838
0.22464684544
0.225047948375
0.225148048234
0.225162441495
0.225160228743
0.225159198369
0.225226487361
0.22465576463
0
0
0.0028043436758
0.02207536095
0.115040715097
0.176044466391
0.197397293384
0.204996011588
0.210032462599
0.214702773315
0.219494887298
0.222747016805
0.224296031908
0.224837684411
0.224977857154
0.225002676001
0.225004479012
0.225001484573
0.224996932886
0.223860587631
0
0
0.00271784362835
0.0212765925859
0.113089795115
0.173057532808
0.193565904306
0.201503472747
0.207204749052
0.212654460346
0.218092832627
0.222102291124
0.224013406988
0.22468866855
0.224866282834
0.224900270921
0.224905078519
0.224898311221
0.224812680674
0.223092315597
0
0
0.00259379498962
0.0202130963475
0.112126519826
0.170017424575
0.189599934623
0.198011117309
0.204578925114
0.210900390223
0.216864801656
0.221558651341
0.223795206969
0.224586602829
0.224795768047
0.224837065542
0.224843744948
0.224831496571
0.224657104848
0.222375088327
0
0
0.00247500784727
0.0196688803136
0.111314094231
0.16660536397
0.185424420032
0.19455273965
0.202211219404
0.209452718138
0.215912477748
0.221128912668
0.2236349194
0.224519178979
0.224752364877
0.224798992027
0.224806541054
0.224787145932
0.224515642125
0.2217299542
0
0
0.00260811893282
0.0198118930307
0.109723211412
0.162509674794
0.180943291299
0.191130382119
0.200120296126
0.208299964435
0.215215675985
0.220814514942
0.223524533609
0.224476544864
0.224725965001
0.22477612664
0.224783784479
0.224755070726
0.22437936125
0.221160448405
0
0
0.00292045445818
0.0204145747491
0.106564869363
0.157447234286
0.176030527404
0.187707393069
0.198281127771
0.207409072763
0.214738469678
0.220610377786
0.223456497145
0.224451490423
0.224709836374
0.224762028739
0.224769250366
0.224729867588
0.224252204151
0.220652597272
0
0
0.00325145808254
0.0207395716178
0.101374267739
0.151169615026
0.170535893187
0.184205961211
0.196634108791
0.206732195213
0.214441471509
0.220508071858
0.223424814757
0.224439271315
0.224699842979
0.224752830785
0.224759340048
0.224709148152
0.224140389564
0.220220414808
0
3.95387296855e-05
0.00348070277228
0.020346102188
0.0935354739978
0.143363692061
0.16426279897
0.180516658254
0.195108926658
0.206227102829
0.214305406348
0.220495179231
0.223424633891
0.224436534596
0.224693605228
0.224746368914
0.22475212584
0.224691787605
0.224046427608
0.219863302845
0
0.000119549508705
0.0035318155222
0.0189891489338
0.0824284698101
0.133670034653
0.156980148811
0.176533784837
0.193664441298
0.205883658865
0.214322552105
0.220557991626
0.223450850202
0.224440922688
0.224689819476
0.224741540032
0.224746626249
0.224677172418
0.223968538685
0.219564697516
0
0.000165024328994
0.00332878657478
0.0166318160749
0.0676377360034
0.121717344297
0.148467512508
0.172211117738
0.192308590561
0.20571426867
0.214484013264
0.220685883808
0.223498682681
0.224450857155
0.224687810854
0.224737846504
0.224742359665
0.224664886897
0.22390354976
0.219309092085
0
0.000142053900853
0.00281456633174
0.013127563982
0.049022989457
0.106976184589
0.138472027837
0.167538110919
0.191104683238
0.205730378671
0.214778519959
0.220870504974
0.223563338199
0.224465004249
0.224687215092
0.224735085645
0.224739087429
0.224654561265
0.223848133855
0.219082640133
0
6.76673027219e-05
0.00217447157623
0.00965772062788
0.0327837299885
0.0888150183625
0.126658548697
0.162548377606
0.190131936602
0.205936522658
0.215205977865
0.221096134373
0.223640590693
0.22448247945
0.224687864
0.224733181989
0.224736676969
0.22464582992
0.223799282157
0.218874142808
0
0
0.00153790981141
0.00683487093705
0.0226195480871
0.0665931679648
0.112497250548
0.157268607156
0.189448562094
0.206374955638
0.215739352023
0.221347229507
0.223726811671
0.224502547587
0.224689679733
0.224732115687
0.224735036996
0.224638328512
0.223754446309
0.218674966932
0
0
0.000983387085937
0.00459595866616
0.0148578322005
0.0418158133239
0.0951260989389
0.151835748777
0.189262377986
0.207024354518
0.216325594748
0.221617124855
0.22381891361
0.224524430944
0.224692602498
0.224731867511
0.224734092207
0.224631694434
0.223711511459
0.21847845417
0
0
0.000537108223699
0.00294206588138
0.00960729588706
0.0268726404529
0.0751360076978
0.147374220776
0.189553071528
0.207778108987
0.216940190477
0.221897514335
0.223914094559
0.224547374453
0.224696554958
0.22473239976
0.224733755985
0.224625557437
0.223668703519
0.218279389149
0
0
0.000207286678285
0.00179857697236
0.00624389861162
0.0181645616838
0.0554817355593
0.145049747678
0.19009970736
0.208581954383
0.21757576828
0.222180461944
0.224009437035
0.224570867146
0.224701421611
0.224733685278
0.224733900766
0.224619541252
0.223624365171
0.218073349963
0
0
8.74228486152e-06
0.00109771327044
0.00430801053634
0.0133860748449
0.0432679184328
0.144619343588
0.190958333096
0.209486246978
0.218222047199
0.222465618479
0.224103877927
0.224594767794
0.224707126722
0.224735667781
0.22473439988
0.224613314642
0.223576922404
0.217856466444
0
0
0
0.000845092907364
0.00372155868982
0.0125285348555
0.0424888790487
0.146787636396
0.192544711423
0.210593467873
0.21891289959
0.222759719593
0.2241994598
0.224619318353
0.22471371491
0.224738363156
0.224735227792
0.224606392923
0.223524643832
0.217624836429
0
0
4.09690179017e-05
0.00108420216248
0.0044744056729
0.0154528880356
0.0557057065413
0.153548683564
0.195472230807
0.212098978388
0.219709237099
0.223077072374
0.224299033027
0.210664558401
0.207622992883
0.215112734149
0.209661583108
0.216187685248
0.209628993633
0.215765354814
0.208086423831
0.214929337191
0.206638212413
0.213936158
0.205710031763
0.212993624873
0.205267963069
0.212016292946
0.204898925173
0.210758350007
0.203969915884
0.209237671992
0.20258174118
0.207452936661
0.20075470976
0.205410183217
0.19847225656
0.20310443743
0.195648720546
0.200564452569
0.192078673464
0.198111534705
0.187601963662
0.196022276042
0.181710604687
0.194537370607
0.178096122082
0.193338282235
0.17646846184
0.192292411557
0.175204989665
0.191314742473
0.174011072608
0.190365013484
0.172816495216
0.189419394206
0.17159702932
0.188461075485
0.17033931868
0.187477231851
0.169033550404
0.186457788975
0.167671786573
0.185394249771
0.16624727543
0.184279310096
0.164754295479
0.183105822264
0.163187589777
)
;

boundaryField
{
    inletfuel
    {
        type            fixedValue;
        value           uniform 0;
    }
    inletair
    {
        type            fixedValue;
        value           uniform 0.232;
    }
    outlet
    {
        type            zeroGradient;
    }
    axis
    {
        type            empty;
    }
    leftside
    {
        type            zeroGradient;
    }
    burnerwall
    {
        type            zeroGradient;
    }
    front
    {
        type            wedge;
    }
    back
    {
        type            wedge;
    }
    procBoundary0to1
    {
        type            processor;
        value           nonuniform List<scalar> 
27
(
0
0
0
0
0.224648166216
0.22472429743
0.224744837125
0.22473941066
0.224601227974
0.223469253075
0.217380013055
0
0
0.000391743104568
0.00200016325698
0.00675057876392
0.0220963534997
0.0833578982823
0.165661540888
0.200076935746
0.214138568152
0.220648782788
0.223427989152
0.224648166216
0.22440584708
0.18187909187
0.161560508019
)
;
    }
}


// ************************************************************************* //
