/*--------------------------------*- C++ -*----------------------------------*\
  =========                 |
  \\      /  F ield         | OpenFOAM: The Open Source CFD Toolbox
   \\    /   O peration     | Website:  https://openfoam.org
    \\  /    A nd           | Version:  7
     \\/     M anipulation  |
\*---------------------------------------------------------------------------*/
FoamFile
{
    version     2.0;
    format      ascii;
    class       volScalarField;
    location    "0.01";
    object      one_over_tauStar;
}
// * * * * * * * * * * * * * * * * * * * * * * * * * * * * * * * * * * * * * //

dimensions      [0 0 -1 0 0 0 0];

internalField   nonuniform List<scalar> 
814
(
805.242067298
1153.91686487
5179.95999793
993.24252146
1366.68318885
5209.59436427
1092.41153443
1520.75706503
5231.4144488
1323.71494978
2197.80919018
7299.53604027
1599.59266054
2807.1539045
7379.67603492
1894.18986463
3271.32277086
6722.2317398
2184.53184576
3564.17620543
6039.94285486
2424.49585272
3677.22992792
5402.92682154
2586.14163537
3649.1510187
4829.96506038
2661.16377378
3522.85157243
4323.79540546
2657.78589947
3335.06848777
3883.57384913
2593.17296286
3114.81411307
3501.50141406
2486.21270865
2883.17452084
3166.48359522
2352.95878452
2653.35707781
2868.12429413
2204.93126196
2431.76380038
2599.15980339
2049.98011142
2220.95232502
2354.04571622
1893.59385486
2022.09714285
2128.54794054
1739.09339599
1835.4779463
1920.49759713
1589.80344794
1662.1171589
1729.76546375
1448.80278106
1503.14663551
1557.50386244
1318.63485625
1359.99542082
1404.44267377
1200.99271001
1233.08644325
1269.98364175
1095.84720575
1121.24915972
1152.30370552
1002.32458425
1022.70265613
1048.89391638
918.877160803
935.354063513
957.444065439
844.115355075
857.488237684
876.031377741
776.89568059
787.737947206
803.213405537
716.181731315
724.95476772
737.853805069
661.156111302
668.216565926
678.934098132
610.895204879
616.596143548
625.482882667
564.659621149
569.272050205
576.665426012
521.913763622
525.699201072
531.96638463
919.142207897
5298.48732714
5466.40690892
5193.70529389
4832.73901944
4454.3474604
4082.86652593
3731.54503693
3405.62888317
3105.16965517
2828.03941575
2573.29181409
2338.0059949
2119.30072068
1915.88151
1728.92218618
1560.13394877
1410.07633603
1278.02238929
1161.88307383
1059.13330767
967.674109483
885.782531176
812.24829072
746.120188066
686.414038056
632.181737476
582.670093438
537.478092206
56.1931010925
25.2415859885
24.0753977977
24.2986892368
24.7053071728
25.13315995
25.0312114991
24.9421028846
24.5881384938
24.321948231
24.0473512096
23.8371441498
23.6718448645
23.5465454526
23.4540451736
23.3849580826
23.3313234949
23.3021938519
23.2090553925
18.8619322884
59.7306434878
47.0427475076
47.7627058956
44.6860922836
43.8339308736
42.7185774208
42.5493041009
42.0950299495
41.8472819509
41.419943813
41.1727374472
40.8895176896
40.7336355613
40.5895471983
40.5026689362
40.4341188499
40.3773959817
40.3429853208
39.7391329883
24.2798145536
76.4407940278
64.9031311777
61.0215302009
56.2521335667
53.5498695358
52.0560597467
51.4670186541
50.8416954938
50.5763977585
50.1068048535
49.8912916593
49.6128566791
49.4884808714
49.3633613247
49.2981493346
49.2456669266
49.1989156702
49.1664618393
48.1136141311
28.5080349572
676.870008885
306.477784279
105.905698589
67.1820841038
60.2339363843
58.4934056148
58.1905114021
57.6750232179
57.4861644896
57.047345712
56.8684493626
56.6122143723
56.5113080826
56.4051751863
56.3552182883
56.3159547227
56.2785197887
56.2461946298
54.8001178818
35.7264936185
3031.72566127
2164.16018525
1169.90825263
376.488230316
134.948725115
77.4474279805
65.635508916
62.6084493684
62.1305338467
61.6465369518
61.4879327329
61.2451701889
61.147108853
61.0454788553
60.9962803673
60.9591783322
60.9236649719
60.8848657477
59.2575087648
42.3229901308
3441.64329255
2399.78101653
1569.06845595
612.62106739
186.644310473
92.3618165566
71.1890444408
65.7598654693
64.8523459857
64.3214759517
64.1963926118
63.9669705462
63.8641259899
63.7558004861
63.698611127
63.6552940642
63.6145171124
63.5653944133
61.944842887
47.8219522644
3230.95518608
2162.60543136
1444.86491519
601.813269327
188.019524491
97.731481419
73.7767434985
67.567720291
66.2204049423
65.7126413977
65.6340187256
65.4435109968
65.3465336216
65.2323501256
65.167233799
65.1155645319
65.0665715191
65.0076032516
63.5024986782
52.0972243831
3072.75895637
2067.29406825
1402.06338617
566.672828787
175.135059156
97.42439732
74.8013603498
68.4614909573
66.7908784101
66.3408334563
66.305358337
66.1881335384
66.1149270598
66.0052160628
65.9370593348
65.8790935909
65.8226598165
65.7571379997
64.4211298697
55.2066663544
2931.61635585
1987.51142792
1375.57207096
554.541625213
162.664947067
95.7116060402
75.1431119369
68.8767740759
66.9793419139
66.5624170234
66.5504337572
66.518571185
66.4821669999
66.3898231506
66.3244699371
66.2646578866
66.2033689484
66.1363806652
64.9926399569
57.5251372492
2787.38523335
1901.24437927
1340.7515561
562.470558307
155.173730087
94.381003761
75.1196501661
69.191768049
67.0874632508
66.6280552698
66.5862707277
66.6238956563
66.6231957584
66.5578990588
66.5000687902
66.4438928152
66.3807890266
66.3184952077
65.3706761694
59.3417977277
2641.97741459
1813.24418785
1295.65626001
566.262735383
151.641823637
93.3669114534
75.134586588
69.6716135781
67.3622348094
66.7016762537
66.5517375173
66.618298932
66.6393620972
66.6046530852
66.5573555463
66.5097962159
66.4479953141
66.396592562
65.6349410618
60.8661876153
2500.1687204
1727.85072985
1243.85458855
564.151371248
150.75790432
92.6166824116
75.496557035
70.4439226296
67.9294302681
66.9010553328
66.5287445875
66.5690684783
66.594160598
66.5872950506
66.5517501657
66.5162357872
66.4588204114
66.4237411648
65.8297155582
62.2317730775
2365.59013823
1647.22150926
1189.62365236
563.839095109
151.715681458
92.3342201065
76.353307457
71.5537931536
68.7909370994
67.2566234063
66.5488469787
66.5122713715
66.528387563
66.5425856335
66.5185411255
66.4963626251
66.4462580869
66.431021561
65.983157501
63.4721073903
2237.07756166
1571.4222009
1135.56057402
565.260434548
154.738060553
92.8931111104
77.7561247107
73.0016858923
69.8651136127
67.7484459579
66.6049859703
66.4629210208
66.4672367827
66.4943742148
66.4805960935
66.4706151103
66.4304716418
66.4358366742
66.1154854988
64.582567965
2108.04959113
1510.86601863
1087.72338204
569.561995021
159.794008887
94.3567281216
79.6854617398
74.73324123
71.0535353176
68.2843280751
66.6757604689
66.4284947042
66.425007552
66.4578076158
66.4519391746
66.4507742275
66.4227366996
66.4464675609
66.2390132823
65.5512674303
1975.70759942
1451.05702913
1041.82026211
576.692708346
167.396917759
96.8342142623
82.1341155839
76.6696903725
72.2584015995
68.7940789175
66.7599546702
66.4144089004
66.4092433397
66.4414392312
66.4400394897
66.4426751892
66.4280278694
66.4653778401
66.3583939418
66.3774279085
1839.28822955
1385.29618405
995.541361642
580.642047715
177.474520214
100.419866116
85.1075609303
78.7600331163
73.4102496851
69.2437488019
66.8676832416
66.4233158272
66.4219904662
66.4484079067
66.4474672936
66.4481756394
66.4469919888
66.4915044364
66.4732164551
67.0698766005
1702.33371288
1315.05637055
949.592914538
577.204721315
189.597128491
105.252981364
88.6827753319
81.0088426267
74.4763207559
69.6256727998
66.9764731466
66.4544249844
66.4613102332
66.4775598998
66.4732404636
66.4664992035
66.47754765
66.5219307926
66.5811711592
67.6465699988
1570.36779675
1239.28830753
900.311104366
565.971035577
203.856383461
111.620357098
93.0333208125
83.4746625107
75.4650469579
69.9433357002
67.0737811274
66.5044922047
66.5218437894
66.5244529879
66.5138904874
66.4951643057
66.5158770019
66.5534971528
66.6763362062
68.143992312
1446.01064967
1163.07787879
852.105700224
551.820884575
220.474461716
119.871746041
98.3940565488
86.2622163028
76.4300785776
70.2106885764
67.1560672001
66.5666205166
66.5950081677
66.5828978517
66.5645624179
66.5310232362
66.5573983545
66.5832882053
66.7516758798
68.5343630402
1330.82315023
1089.07136904
806.441235889
537.673650691
239.691917194
130.564801005
105.107800777
89.5492703802
77.4583738739
70.4603130458
67.2233308682
66.6344707082
66.6731040142
66.6477664596
66.6205560707
66.5711600498
66.5984820212
66.6104072995
66.8070657007
68.8501250065
1225.05415531
1018.8417439
764.470975053
524.74701894
261.439568637
144.480649175
113.698729734
93.6019623744
78.6577772892
70.7269736292
67.2789355289
66.7056435468
66.7524753302
66.7151746739
66.678157528
66.6130558197
66.6371756464
66.6351030819
66.8477909798
69.1290181802
1127.78751435
952.832465609
726.700407354
513.500426646
284.673779875
162.319086822
124.820085852
98.7108743804
80.1447916873
71.0249420232
67.3341905603
66.7808090385
66.8298122303
66.7816067694
66.7345154349
66.6546392128
66.6726644853
66.6578824218
66.8800231747
69.3905597813
1038.13198429
891.526809861
693.206699175
503.7680984
307.508923239
184.468138125
139.052735492
105.204984534
81.9929386958
71.3677792663
67.4079269956
66.859123604
66.9025643324
66.8443851785
66.787668704
66.6944682146
66.7047861753
66.6792051741
66.9086822151
69.6483831227
955.454054593
834.521521561
663.075735759
494.517653936
327.009135218
209.934992994
156.461773523
113.321054865
84.2371035842
71.7799462639
67.507162228
66.9387457434
66.9710362483
66.9016317555
66.8369069526
66.7317044252
66.7339085851
66.699467838
66.9371743775
69.9129217042
879.27112774
781.795844829
635.755403548
486.303025408
342.698105437
236.348907542
176.227399127
123.133227282
86.9366531899
72.2297962838
67.6378062226
67.0194216952
67.0361510335
66.9531339752
66.882448633
66.7661860209
66.7607100361
66.7190706526
66.9677396282
70.1923118549
809.741851968
733.072853891
610.491685512
478.820347705
354.283139749
260.676041308
197.001175931
134.519058978
89.8262717971
72.7248773607
67.8022924126
67.1043661425
67.099333742
67.0007531308
66.9248315834
66.7984126418
66.7858050559
66.7384799757
67.001746803
70.4934592559
746.61561331
687.880817279
586.455695123
471.597738094
363.226814812
281.934632988
217.105275927
146.212185263
93.0221705746
73.338794433
67.9984370028
67.1983351733
67.1635676502
67.0479302205
66.9649565533
66.8292125024
66.8095584999
66.7580989862
67.0398545425
70.822707876
689.132342297
645.546852022
562.995174222
464.62053221
371.380869394
300.644804699
234.416890991
157.846590209
96.994341882
74.1094643984
68.230721502
67.3055345048
67.2343518154
67.0970813208
67.0044224698
66.8589916053
66.8321871739
66.7778190899
67.0824684323
71.1868200529
636.225360262
605.375528841
540.057410798
458.548107415
380.064531916
316.716642905
247.76599551
170.44422749
101.858030839
75.0216120652
68.4970191538
67.4291686481
67.3159053873
67.148868343
67.0440809339
66.8877758701
66.8539088697
66.7973162785
67.1302471645
71.5932786436
587.563126846
566.746057073
517.786395136
453.356387204
388.725854079
329.095402817
259.503086383
182.57524381
106.645683021
75.911441975
68.759477255
67.5643069024
67.4016996775
67.2021070262
67.0817762445
66.9147440347
66.8744707962
66.816536947
67.1847546262
72.0526356652
543.177835495
530.542936383
495.901398824
447.281460923
394.255001251
336.477066922
267.674451365
189.532132846
108.798491389
76.2573945762
68.9297006538
67.6890603784
67.4773885556
131.518985368
55.7413654946
87.3578308136
55.6546338149
78.3698971733
55.6480101115
76.5875793001
55.706480534
75.5431534652
55.780610965
74.1317884525
55.8049042468
72.3070968167
55.8252761344
70.7251533064
55.8439828773
70.4000856308
55.8845121603
70.913287433
55.9452088846
72.2022510386
56.0240353173
74.3375024129
56.1219559361
77.6314709218
56.2440965589
82.8900664112
56.4003566394
91.4461666945
56.595296798
106.09074286
56.8479025753
116.63399808
245.676761215
122.13752102
252.775983678
126.666015486
260.219695301
131.034746209
268.097427913
135.475001981
276.448172216
140.092538525
285.320324738
144.959916168
294.768399127
150.137374233
304.851183195
155.678377124
315.629585581
161.637161668
327.171019301
168.067432975
339.540030508
175.038188565
352.829144809
)
;

boundaryField
{
    inletfuel
    {
        type            calculated;
        value           uniform 120.747670785;
    }
    inletair
    {
        type            calculated;
        value           uniform 4.0249223595;
    }
    outlet
    {
        type            calculated;
        value           nonuniform 0();
    }
    axis
    {
        type            empty;
    }
    leftside
    {
        type            calculated;
        value           nonuniform List<scalar> 
33
(
131.518985368
55.7413654946
18.8619322884
24.2798145536
28.5080349572
55.7413654946
55.6546338149
55.6480101115
55.706480534
55.780610965
55.8049042468
55.8252761344
55.8439828773
55.8845121603
55.9452088846
56.0240353173
56.1219559361
56.2440965589
56.4003566394
56.595296798
56.8479025753
245.676761215
252.775983678
260.219695301
268.097427913
276.448172216
285.320324738
294.768399127
304.851183195
315.629585581
327.171019301
339.540030508
352.829144809
)
;
    }
    burnerwall
    {
        type            calculated;
        value           nonuniform List<scalar> 7(5179.95999793 5209.59436427 5231.4144488 56.1931010925 59.7306434878 76.4407940278 919.142207897);
    }
    front
    {
        type            wedge;
    }
    back
    {
        type            wedge;
    }
    procBoundary0to1
    {
        type            processor;
        value           nonuniform List<scalar> 
27
(
483.233554223
486.431142107
491.921286018
497.195937832
67.2608707649
67.1246175303
66.9491860813
66.9043595001
66.8471392203
67.2600278751
72.593337565
503.891131814
498.286139338
475.584917552
439.435040904
393.379021957
336.785891837
269.028881414
185.575498262
105.512020662
75.512405018
68.9300233486
67.7872443615
67.2608707649
67.5388004847
182.642348845
367.095605669
)
;
    }
}


// ************************************************************************* //
