/*--------------------------------*- C++ -*----------------------------------*\
  =========                 |
  \\      /  F ield         | OpenFOAM: The Open Source CFD Toolbox
   \\    /   O peration     | Website:  https://openfoam.org
    \\  /    A nd           | Version:  7
     \\/     M anipulation  |
\*---------------------------------------------------------------------------*/
FoamFile
{
    version     2.0;
    format      ascii;
    class       volScalarField;
    location    "0.01";
    object      p;
}
// * * * * * * * * * * * * * * * * * * * * * * * * * * * * * * * * * * * * * //

dimensions      [1 -1 -2 0 0 0 0];

internalField   nonuniform List<scalar> 
814
(
100846.095185
100837.355696
100853.854232
100819.212194
100814.569071
100817.564165
100790.176394
100787.470866
100790.087688
100780.382822
100777.684639
100782.733395
100794.334142
100793.387627
100792.702102
100784.587399
100784.193782
100783.838673
100782.009119
100781.984507
100782.20572
100782.678101
100782.523963
100782.538539
100782.27133
100782.150306
100782.05936
100781.805447
100781.743623
100781.580204
100781.658933
100781.618643
100781.480592
100782.046652
100781.983749
100781.909272
100782.964985
100782.873862
100782.825051
100784.212555
100784.126131
100784.061971
100785.504492
100785.445565
100785.378253
100786.71922
100786.669806
100786.62696
100787.966274
100787.916865
100787.879366
100789.060674
100789.020352
100789.000856
100790.202345
100790.180987
100790.160803
100791.510032
100791.488005
100791.474343
100792.98728
100792.964899
100792.961296
100794.765811
100794.74461
100794.735368
100796.779015
100796.760347
100796.756589
100799.066523
100799.050848
100799.044594
100801.594847
100801.58114
100801.577582
100804.363889
100804.353852
100804.350586
100807.386439
100807.379683
100807.373526
100810.677316
100810.673341
100810.668078
100814.306747
100814.300504
100814.295298
100818.326598
100818.320722
100818.315949
100822.848403
100822.841337
100822.834974
100827.978951
100827.968366
100827.962165
100772.348538
100794.221419
100783.815151
100782.239681
100782.365181
100781.883243
100781.440238
100781.399672
100781.866475
100782.785908
100784.003151
100785.325209
100786.585873
100787.834614
100788.964279
100790.129627
100791.458484
100792.952379
100794.722923
100796.74845
100799.034248
100801.570395
100804.344605
100807.365951
100810.661582
100814.287854
100818.308575
100822.825659
100827.952592
100780.772166
100780.557881
100780.851856
100781.193769
100782.365768
100783.263609
100783.641759
100782.503279
100780.329595
100778.284776
100777.820862
100778.54318
100778.684275
100777.315038
100776.310883
100776.861281
100776.679268
100775.794058
100775.724273
100776.761405
100785.48311
100783.777323
100781.909126
100777.691276
100776.23491
100776.384225
100778.899642
100781.229353
100782.290527
100780.914596
100779.087452
100778.207216
100778.052324
100777.391299
100776.592208
100776.507266
100776.260402
100776.101608
100776.514192
100776.208656
100790.129302
100789.712789
100789.681645
100785.701425
100779.772484
100775.494075
100776.840953
100779.845606
100782.537226
100782.108839
100779.814985
100778.038176
100777.734245
100777.565752
100776.887413
100776.308365
100775.989931
100776.247672
100776.16443
100774.230205
100787.343968
100779.533128
100789.998439
100788.317158
100784.800751
100776.764331
100775.870412
100778.647933
100782.26446
100782.659473
100780.284199
100777.998564
100777.605629
100777.781296
100777.169178
100776.203216
100775.786815
100776.250493
100775.641667
100772.95432
100790.33621
100791.142069
100792.179165
100792.764596
100791.78796
100781.702241
100776.667551
100777.829264
100781.769765
100782.818537
100780.613782
100778.051426
100777.60087
100778.040292
100777.458328
100776.139944
100775.576027
100776.0779
100775.005942
100771.764719
100784.173557
100784.407251
100785.765982
100786.70824
100788.108094
100782.762774
100777.003019
100777.281096
100781.202271
100782.727029
100780.852336
100778.220312
100777.731121
100778.320491
100777.732613
100776.133224
100775.400527
100775.779587
100774.322245
100771.1521
100782.70039
100783.365248
100783.683656
100784.088125
100784.136626
100781.466199
100776.754561
100777.344641
100780.910328
100782.671338
100781.066568
100778.49697
100777.971305
100778.595109
100777.971291
100776.172849
100775.293028
100775.464046
100773.709406
100771.48221
100782.132517
100782.535201
100782.196967
100782.065696
100781.551007
100779.604306
100776.725914
100777.887968
100781.072562
100782.778703
100781.293544
100778.840227
100778.278292
100778.840293
100778.155764
100776.234914
100775.269229
100775.272553
100773.277818
100772.207462
100781.407776
100781.647048
100781.189328
100780.989427
100780.120964
100778.652723
100777.345465
100778.918065
100781.64888
100783.006115
100781.512088
100779.191119
100778.612611
100779.046894
100778.281117
100776.298511
100775.329018
100775.330354
100773.087463
100771.628149
100780.90986
100781.096213
100780.672898
100780.396635
100779.55076
100778.82704
100778.49613
100780.263397
100782.417668
100783.241605
100781.671532
100779.518395
100778.942218
100779.22771
100778.364908
100776.361604
100775.466117
100775.72538
100773.529188
100770.873195
100780.912042
100781.052824
100780.684711
100780.514209
100779.953536
100779.758314
100780.089136
100781.72425
100783.108499
100783.359964
100781.73607
100779.807892
100779.272221
100779.416779
100778.448971
100776.452236
100775.675625
100776.40751
100774.712104
100770.945633
100781.471704
100781.568136
100781.308308
100781.250432
100780.972812
100781.101352
100781.767852
100783.078521
100783.699898
100783.327546
100781.688426
100780.07821
100779.634067
100779.653895
100778.588286
100776.628799
100775.962865
100777.215478
100776.587853
100771.782459
100782.450266
100782.534182
100782.398666
100782.456428
100782.407866
100782.595937
100783.395392
100784.114989
100784.083305
100783.226467
100781.700831
100780.423616
100780.056565
100779.962262
100778.829767
100776.963978
100776.347189
100777.870825
100778.667193
100774.249813
100783.706061
100783.755714
100783.728228
100783.807216
100783.90363
100784.227836
100784.706396
100784.719878
100784.337446
100783.176372
100781.894736
100780.887878
100780.576351
100780.337386
100779.193233
100777.517361
100776.881672
100778.20809
100779.966616
100777.777423
100785.145633
100785.012376
100785.141816
100785.155299
100785.370301
100785.461282
100785.626072
100785.192939
100784.531833
100783.232856
100782.465803
100781.550656
100781.184568
100780.755978
100779.667328
100778.309339
100777.648704
100778.389068
100780.243662
100780.473025
100786.513553
100786.275439
100786.469662
100786.465262
100786.567856
100786.414827
100786.280506
100785.672053
100784.92493
100783.817489
100783.122718
100782.418831
100781.859225
100781.20662
100780.224734
100779.310921
100778.72133
100778.761627
100780.078602
100781.562556
100787.791921
100787.544122
100787.684699
100787.643478
100787.654974
100787.315328
100786.968827
100786.309889
100785.592476
100784.697458
100784.090932
100783.491108
100782.614926
100781.721637
100780.851136
100780.441479
100780.096581
100779.62181
100780.133651
100781.76457
100788.954231
100788.680243
100788.835085
100788.767942
100788.627005
100788.234009
100787.806298
100787.184503
100786.557813
100785.861329
100785.262111
100784.778745
100783.520616
100782.396227
100781.573428
100781.580692
100781.626167
100781.040707
100780.859888
100782.07081
100790.101785
100789.969795
100790.029249
100789.944969
100789.802516
100789.300156
100788.893426
100788.305146
100787.787226
100787.221343
100786.601687
100786.253497
100784.719284
100783.380916
100782.481081
100782.647016
100783.065126
100782.80651
100782.345314
100782.837201
100791.433069
100791.346303
100791.317846
100791.231874
100791.084871
100790.583273
100790.221934
100789.685706
100789.247259
100788.748251
100788.135177
100787.801246
100786.192774
100784.779507
100783.722579
100783.724539
100784.308557
100784.527802
100784.273121
100784.45125
100792.935083
100792.857278
100792.81703
100792.717655
100792.608643
100792.123578
100791.81705
100791.3096
100790.904578
100790.408569
100789.747571
100789.396528
100787.864821
100786.590916
100785.438465
100785.07134
100785.483555
100786.016998
100786.211719
100786.350332
100794.697014
100794.626174
100794.569768
100794.486305
100794.403271
100793.958747
100793.68254
100793.183862
100792.764968
100792.234912
100791.634009
100790.825982
100789.627263
100788.677046
100787.62263
100786.937719
100786.999276
100787.486959
100787.995203
100788.348132
100796.728726
100796.668036
100796.598144
100796.557042
100796.49868
100796.096155
100795.832121
100795.312163
100794.83168
100794.150163
100793.527332
100792.554046
100791.58344
100790.878185
100790.102563
100789.268059
100789.135474
100789.423681
100789.959926
100790.435635
100799.012437
100798.95717
100798.897901
100798.858048
100798.814886
100798.516819
100798.232318
100797.725254
100797.195822
100796.38427
100795.755803
100794.697897
100793.837002
100793.203287
100792.595163
100791.917297
100791.714984
100791.879444
100792.419122
100792.83776
100801.553424
100801.510782
100801.465463
100801.441245
100801.419546
100801.202457
100800.940231
100800.463661
100799.97838
100799.16925
100798.439843
100797.461865
100796.693115
100796.015321
100795.437114
100794.788934
100794.565037
100794.623378
100795.227412
100795.658639
100804.32978
100804.291989
100804.256726
100804.243014
100804.188521
100804.109874
100803.886035
100803.447599
100803.027468
100802.308257
100801.541341
100800.882773
100800.235642
100799.584122
100799.007056
100798.293984
100797.987403
100797.8479
100798.39971
100798.911291
100807.349948
100807.315684
100807.282389
100807.266602
100807.186774
100807.121426
100807.002853
100806.586614
100806.233178
100805.704096
100804.999503
100804.605928
100804.198436
100803.722926
100803.301779
100802.696485
100802.349322
100802.003128
100802.351576
100802.801784
100810.647664
100810.615778
100810.588024
100810.56188
100810.501395
100810.441981
100810.340013
100810.026864
100809.650169
100809.227498
100808.718837
100808.446183
100808.304925
100808.085715
100808.011088
100807.676576
100807.522116
100807.150864
100807.334725
100807.58626
100814.273229
100814.239476
100814.213026
100814.181118
100814.130579
100814.053134
100814.043426
100813.689196
100813.478491
100813.089555
100812.780637
100812.619259
100812.675944
100812.68465
100812.927854
100812.919257
100813.098205
100812.930221
100813.15966
100813.276102
100818.292866
100818.261403
100818.227133
100818.198993
100818.152312
100818.076502
100817.996576
100817.91321
100817.705473
100817.534919
100817.437687
100817.474623
100817.701494
100817.877946
100818.292257
100818.478324
100818.945344
100819.065761
100819.523331
100819.687389
100822.804946
100822.770228
100822.735897
100822.67664
100822.680872
100822.570172
100822.621453
100822.527989
100822.570201
100822.56476
100822.896657
100823.094666
100823.593844
100823.901724
100824.383996
100824.609813
100825.315749
100825.641257
100826.376495
100826.693488
100827.929926
100827.895086
100827.857312
100827.825421
100827.798046
100827.777528
100827.821484
100827.806426
100828.0669
100828.282406
100828.940446
100829.393493
100830.14675
100774.227077
100775.566916
100775.920877
100777.22082
100778.690309
100779.868048
100779.526598
100777.908669
100773.584829
100761.95914
100781.683886
100779.686801
100782.475254
100782.945491
100779.959033
100781.132091
100778.228843
100779.297786
100776.773395
100777.388179
100776.944767
100777.034784
100778.766475
100778.616253
100780.587688
100780.479224
100781.633769
100781.602743
100782.316996
100782.465627
100783.007697
100783.096468
100784.551993
100784.701097
100786.40776
100786.418121
100788.429478
100788.423097
100790.597673
100790.596539
100793.043252
100793.046185
100795.892347
100795.896385
100799.203124
100799.213244
100803.129224
100803.145493
100807.878319
100807.891479
100813.503757
100813.507073
100819.885445
100819.881016
100826.908769
100826.902135
)
;

boundaryField
{
    inletfuel
    {
        type            zeroGradient;
    }
    inletair
    {
        type            zeroGradient;
    }
    outlet
    {
        type            fixedValue;
        value           nonuniform 0();
    }
    axis
    {
        type            empty;
    }
    leftside
    {
        type            zeroGradient;
    }
    burnerwall
    {
        type            zeroGradient;
    }
    front
    {
        type            wedge;
    }
    back
    {
        type            wedge;
    }
    procBoundary0to1
    {
        type            processor;
        value           nonuniform List<scalar> 
27
(
100833.743146
100833.729456
100833.723367
100833.714672
100830.617104
100831.205751
100831.574729
100832.384188
100832.901739
100833.862671
100834.305709
100833.692458
100833.657011
100833.615468
100833.578272
100833.543637
100833.54348
100833.549574
100833.759591
100834.039748
100834.626053
100835.458915
100836.2656
100830.617104
100837.19671
100834.559429
100834.553938
)
;
    }
}


// ************************************************************************* //
