/*--------------------------------*- C++ -*----------------------------------*\
  =========                 |
  \\      /  F ield         | OpenFOAM: The Open Source CFD Toolbox
   \\    /   O peration     | Website:  https://openfoam.org
    \\  /    A nd           | Version:  7
     \\/     M anipulation  |
\*---------------------------------------------------------------------------*/
FoamFile
{
    version     2.0;
    format      ascii;
    class       volScalarField;
    location    "0.01";
    object      PaSR<psiReactionThermo>:kappa;
}
// * * * * * * * * * * * * * * * * * * * * * * * * * * * * * * * * * * * * * //

dimensions      [0 0 0 0 0 0 0];

internalField   nonuniform List<scalar> 
814
(
5.70533220992e-12
7.97090260437e-12
2.59352865771e-11
6.97621633945e-12
9.3299852273e-12
2.49549393037e-11
7.6454839059e-12
1.03374739548e-11
2.45915291722e-11
9.15250614253e-12
1.47092280945e-11
4.00911660448e-11
1.09545526847e-11
1.86656541335e-11
4.43986665776e-11
1.28665107849e-11
2.17234484628e-11
4.22587104778e-11
1.47610134749e-11
2.37648263851e-11
3.90387024358e-11
1.63685909278e-11
2.46840337632e-11
3.55563550107e-11
1.75072323105e-11
2.46641728759e-11
3.21624911266e-11
1.80981323592e-11
2.39506847448e-11
2.90220045452e-11
1.81614130128e-11
2.27759424498e-11
2.62115776219e-11
1.77891261457e-11
2.1336928015e-11
2.37229078437e-11
1.70993930454e-11
1.97857397579e-11
2.15064093585e-11
1.62039946569e-11
1.82223547676e-11
1.95090122672e-11
1.5186805217e-11
1.66995491201e-11
1.76910047664e-11
1.41072626744e-11
1.52380255218e-11
1.60186831773e-11
1.30076150145e-11
1.38495549631e-11
1.44672496547e-11
1.19154784981e-11
1.25397176615e-11
1.30266491131e-11
1.08559127721e-11
1.13184697955e-11
1.17003725116e-11
9.85521489059e-12
1.019838807e-11
1.05007615097e-11
8.93216864242e-12
9.18980024463e-12
9.43450230366e-12
8.10035267967e-12
8.29787527401e-12
8.49928237192e-12
7.3595493148e-12
7.51407394485e-12
7.68279148863e-12
6.70374493605e-12
6.82658711666e-12
6.96850093497e-12
6.12284658066e-12
6.22134709099e-12
6.34107417561e-12
5.60700895014e-12
5.68661664132e-12
5.78767033814e-12
5.14878447913e-12
5.21334391276e-12
5.29862876064e-12
4.74031468379e-12
4.79292384811e-12
4.86540587176e-12
4.37494227159e-12
4.41788069199e-12
4.47974202767e-12
4.04550785245e-12
4.08072112369e-12
4.13377416861e-12
3.74573360611e-12
3.77507889331e-12
3.82095801564e-12
3.47211282824e-12
3.49673208755e-12
3.53717900844e-12
6.18016744896e-12
2.99112706416e-11
3.23489608621e-11
3.18936313609e-11
3.04280785795e-11
2.85352769339e-11
2.64830860122e-11
2.44349645087e-11
2.24646048358e-11
2.05996581166e-11
1.88456055115e-11
1.72044933551e-11
1.56607815987e-11
1.42031382769e-11
1.28312062757e-11
1.15600718894e-11
1.04078052253e-11
9.38065088468e-12
8.47673341683e-12
7.6830053009e-12
6.98376755179e-12
6.36561260031e-12
5.81745600864e-12
5.33137200869e-12
4.89998599289e-12
4.51517653879e-12
4.16902028683e-12
3.85567711618e-12
3.57153635466e-12
3.30145778958e-13
1.67055088015e-13
1.60054785703e-13
1.61412564837e-13
1.64044092598e-13
1.66833466073e-13
1.66211687183e-13
1.65701517895e-13
1.63487842542e-13
1.61845394376e-13
1.60135360796e-13
1.588343305e-13
1.57808833851e-13
1.57032432765e-13
1.56458952115e-13
1.56030936688e-13
1.55698691815e-13
1.55524290403e-13
1.55166800094e-13
1.31683815416e-13
3.63663562152e-13
2.99914780354e-13
3.04917977024e-13
2.85380801562e-13
2.806167624e-13
2.74186692377e-13
2.73331842724e-13
2.70671254933e-13
2.69193240028e-13
2.66583555836e-13
2.65086885921e-13
2.63355058286e-13
2.62418392597e-13
2.61542369732e-13
2.61021487859e-13
2.60607479738e-13
2.60267746613e-13
2.60092785718e-13
2.57586840469e-13
1.71525318778e-13
4.91324529324e-13
4.1716103979e-13
3.89320982387e-13
3.57992857414e-13
3.41434039694e-13
3.33216552095e-13
3.30086926147e-13
3.26389571284e-13
3.24880298947e-13
3.21914873116e-13
3.20625238583e-13
3.18873047794e-13
3.18140863052e-13
3.17373060625e-13
3.16994188023e-13
3.16683253568e-13
3.16408082757e-13
3.1627988893e-13
3.1180576041e-13
2.02626856892e-13
4.12635457554e-12
1.28256900536e-12
5.81708272917e-13
4.20150896613e-13
3.8206864672e-13
3.75758706359e-13
3.76330695963e-13
3.73923404421e-13
3.73294560931e-13
3.70501003232e-13
3.69533110712e-13
3.67887350939e-13
3.67349130559e-13
3.66714800521e-13
3.66464118885e-13
3.66262383313e-13
3.66062914112e-13
3.65994197517e-13
3.5956792381e-13
2.54868286677e-13
8.21010784269e-12
2.32359037783e-12
1.03186445395e-12
7.42422181713e-13
6.01241464029e-13
4.66761906904e-13
4.24285905298e-13
4.1117519859e-13
4.10130509747e-13
4.07398381617e-13
4.06805442079e-13
4.05309372832e-13
4.04865694895e-13
4.04304522312e-13
4.04103283903e-13
4.03957491775e-13
4.03802290701e-13
4.03754115997e-13
3.96179201674e-13
3.03007551793e-13
1.00142563557e-11
2.80408303439e-12
9.84275933991e-13
6.01526003897e-13
5.83571487881e-13
5.13695629565e-13
4.56065498931e-13
4.35922915244e-13
4.34521560836e-13
4.32450638869e-13
4.32536145828e-13
4.31326904094e-13
4.30934593151e-13
4.3037707693e-13
4.30150806479e-13
4.29995046027e-13
4.29833791936e-13
4.29754809311e-13
4.21893353611e-13
3.43445032629e-13
1.11480784001e-11
2.7102558542e-12
8.72261379147e-13
4.55418856893e-13
5.13492046004e-13
5.17357427099e-13
4.68654956756e-13
4.50394337597e-13
4.48444320842e-13
4.47847383067e-13
4.48872144646e-13
4.48254578263e-13
4.47997313007e-13
4.47436996424e-13
4.4716027796e-13
4.46955656443e-13
4.46751363364e-13
4.46610288882e-13
4.39039222557e-13
3.75007715879e-13
1.23616021198e-11
3.03220190039e-12
9.09807828454e-13
4.11850447871e-13
4.70750604064e-13
5.0620802454e-13
4.72766002615e-13
4.57478133366e-13
4.55239588046e-13
4.56357716708e-13
4.58411678374e-13
4.58729763723e-13
4.58766114681e-13
4.58269498617e-13
4.57960140865e-13
4.57701005772e-13
4.57441293642e-13
4.57235519822e-13
4.50302430489e-13
3.97904372792e-13
1.34247246448e-11
3.53244991889e-12
1.01924686868e-12
4.09313660824e-13
4.51733534465e-13
4.98205662502e-13
4.74574894596e-13
4.60261834054e-13
4.57824968915e-13
4.60399224357e-13
4.63448915092e-13
4.6487534215e-13
4.65352650947e-13
4.6502042373e-13
4.64716576761e-13
4.64424221751e-13
4.64115432073e-13
4.63867813118e-13
4.57780423557e-13
4.14773641433e-13
1.41080837396e-11
4.11174303609e-12
1.17431594251e-12
4.38015025909e-13
4.5585354191e-13
4.99190805847e-13
4.75331007852e-13
4.61402784122e-13
4.58431574516e-13
4.6191284751e-13
4.65716396154e-13
4.68228076013e-13
4.69203469297e-13
4.6912653287e-13
4.68868021685e-13
4.68579167256e-13
4.68237378996e-13
4.67987378013e-13
4.62839548469e-13
4.27690262039e-13
1.43947188748e-11
4.71004587024e-12
1.36012322947e-12
4.87369586568e-13
4.71584486978e-13
5.03692733095e-13
4.76217379676e-13
4.63241079701e-13
4.58963447554e-13
4.62262672894e-13
4.66448423189e-13
4.69854245531e-13
4.71293005138e-13
4.71523770677e-13
4.71342920091e-13
4.71095438594e-13
4.70741878463e-13
4.70534053623e-13
4.66323591545e-13
4.38172209228e-13
1.43638139795e-11
5.27780662633e-12
1.56572791439e-12
5.51886461764e-13
4.96251012212e-13
5.09416232445e-13
4.78423773675e-13
4.66438245985e-13
4.60775146434e-13
4.62466981207e-13
4.66441607682e-13
4.70461321244e-13
4.72295061278e-13
4.72838734035e-13
4.72755476511e-13
4.72578411203e-13
4.7223662266e-13
4.72112472706e-13
4.68764199272e-13
4.47194823762e-13
1.41244618648e-11
5.78545059239e-12
1.78686562493e-12
6.27831957062e-13
5.28482093816e-13
5.16732336662e-13
4.82719089655e-13
4.7110432989e-13
4.64114859642e-13
4.63060136319e-13
4.66105186688e-13
4.70496159487e-13
4.72677060252e-13
4.73502694942e-13
4.73524144852e-13
4.73431667749e-13
4.73125337209e-13
4.73113514148e-13
4.70518763261e-13
4.55022927399e-13
1.37487981145e-11
6.21605786992e-12
2.02178803365e-12
7.13270734766e-13
5.67749345739e-13
5.26912136188e-13
4.89314147266e-13
4.77093988329e-13
4.68346548689e-13
4.64374338948e-13
4.65568089922e-13
4.70222633381e-13
4.72756459083e-13
4.73813907509e-13
4.7393642203e-13
4.73924570011e-13
4.73675933036e-13
4.73785265783e-13
4.7184357706e-13
4.61670641297e-13
1.32165288522e-11
6.63674514671e-12
2.28281976565e-12
8.09853741683e-13
6.14033500551e-13
5.39421540219e-13
4.97817223404e-13
4.83906115937e-13
4.72793112463e-13
4.65824491034e-13
4.6484805448e-13
4.6982254577e-13
4.72743019586e-13
4.73977882258e-13
4.74185550091e-13
4.74232950267e-13
4.74060679597e-13
4.7427784562e-13
4.72907401601e-13
4.67129789526e-13
1.25508143158e-11
6.9519098288e-12
2.5595067667e-12
9.19989167437e-13
6.67476846366e-13
5.54541577116e-13
5.07848760192e-13
4.9088640627e-13
4.76820852786e-13
4.67008725239e-13
4.64122114706e-13
4.69444170776e-13
4.72774361869e-13
4.74129713903e-13
4.74395066898e-13
4.74467165951e-13
4.74383449507e-13
4.74675970806e-13
4.73801923226e-13
4.71493746147e-13
1.17830696322e-11
7.10957891342e-12
2.84423968661e-12
1.04760935e-12
7.254040901e-13
5.72406740852e-13
5.19093773154e-13
4.97619407915e-13
4.80074587752e-13
4.67795368388e-13
4.63697817026e-13
4.69198319546e-13
4.72928377344e-13
4.74347182665e-13
4.74635873934e-13
4.74691712856e-13
4.74699451255e-13
4.75020974367e-13
4.74563774282e-13
4.74929700353e-13
1.09627182335e-11
7.0996721415e-12
3.10160404887e-12
1.18403414796e-12
7.8329823136e-13
5.9325665537e-13
5.31667920108e-13
5.04117990898e-13
4.82521026118e-13
4.68270819681e-13
4.63487372982e-13
4.69149342807e-13
4.73236966942e-13
4.74661960468e-13
4.74939232838e-13
4.74938393753e-13
4.7503032624e-13
4.75326065582e-13
4.75205903889e-13
4.77635046083e-13
1.01441103959e-11
6.92100967092e-12
3.28374303383e-12
1.31884510562e-12
8.40000713853e-13
6.18016045642e-13
5.46228755009e-13
5.10779909406e-13
4.84421500224e-13
4.68586450248e-13
4.63446556017e-13
4.69323762862e-13
4.73692988629e-13
4.75069554548e-13
4.7530695839e-13
4.75215598549e-13
4.7537394164e-13
4.75593922733e-13
4.75721547385e-13
4.79893245468e-13
9.35413379797e-12
6.64777678445e-12
3.4068812758e-12
1.45169414312e-12
8.96221220528e-13
6.47617851549e-13
5.63642730395e-13
5.1822748639e-13
4.86278165007e-13
4.68910426884e-13
4.63567738476e-13
4.69700706518e-13
4.74254101047e-13
4.75543178066e-13
4.75721711651e-13
4.75518209898e-13
4.7571411701e-13
4.75822013702e-13
4.76090141652e-13
4.81559456303e-13
8.61119797792e-12
6.33040783826e-12
3.48332090567e-12
1.58491125205e-12
9.52777520388e-13
6.83618919703e-13
5.85101592107e-13
5.27363771066e-13
4.88693719126e-13
4.69493221933e-13
4.63871736491e-13
4.70239955911e-13
4.74874880137e-13
4.76056177107e-13
4.76160537175e-13
4.75836362196e-13
4.76035487081e-13
4.76016377457e-13
4.76328710685e-13
4.82882488961e-13
7.923672286e-12
6.00236924829e-12
3.52709640787e-12
1.72161655521e-12
1.01221731995e-12
7.28464932451e-13
6.12510091901e-13
5.39441610168e-13
4.92334620982e-13
4.70600707045e-13
4.64389038332e-13
4.70913819958e-13
4.75531145183e-13
4.76585727607e-13
4.76602968565e-13
4.76158590219e-13
4.76330685374e-13
4.76186585336e-13
4.76481204825e-13
4.84101446793e-13
7.28980364024e-12
5.68039947978e-12
3.55103518306e-12
1.86535558554e-12
1.07870579862e-12
7.84534970159e-13
6.4840655301e-13
5.55781327203e-13
4.97921267187e-13
4.72342689632e-13
4.65177153802e-13
4.71712468493e-13
4.76196081191e-13
4.77108401743e-13
4.77031788737e-13
4.76473705689e-13
4.76597815079e-13
4.76340720142e-13
4.76591755897e-13
4.85317479935e-13
6.70716248107e-12
5.37578775046e-12
3.5632279823e-12
2.01462402101e-12
1.15963102161e-12
8.54689224335e-13
6.95529590154e-13
5.78002715191e-13
5.05979895342e-13
4.74792160916e-13
4.66330946668e-13
4.72613285109e-13
4.76845201327e-13
4.77604801631e-13
4.77434427064e-13
4.76773304525e-13
4.768379103e-13
4.76484255666e-13
4.76692601328e-13
4.86590534682e-13
6.17317753971e-12
5.08855739932e-12
3.56351815671e-12
2.16529686166e-12
1.27812935831e-12
9.39443854723e-13
7.55864009845e-13
6.07664505095e-13
5.16858903829e-13
4.78088010434e-13
4.67880173122e-13
4.73573458849e-13
4.77474701224e-13
4.78060799436e-13
4.77806664355e-13
4.77052358747e-13
4.77054833039e-13
4.76620833526e-13
4.76804020705e-13
4.87963633404e-13
5.68566600443e-12
4.821953761e-12
3.55632846818e-12
2.31962668316e-12
1.44565115099e-12
1.04011395949e-12
8.2945810827e-13
6.45983021034e-13
5.31115274162e-13
4.82097391247e-13
4.69799035259e-13
4.74563859802e-13
4.7808591922e-13
4.784742855e-13
4.78150683415e-13
4.77310336326e-13
4.77254191106e-13
4.76753448165e-13
4.76937887213e-13
4.89470130726e-13
5.24650357926e-12
4.57495371698e-12
3.53999652367e-12
2.46817711388e-12
1.63692231798e-12
1.16326848616e-12
9.14194515636e-13
6.93917992345e-13
5.47818162527e-13
4.86817210328e-13
4.71997942904e-13
4.75597071585e-13
4.78684892766e-13
4.78858289111e-13
4.78470749025e-13
4.77551295651e-13
4.77440817213e-13
4.76885267306e-13
4.77100204393e-13
4.91140250783e-13
4.852960379e-12
4.34468098792e-12
3.51139193385e-12
2.59956506784e-12
1.83591407112e-12
1.33467008684e-12
1.00703060322e-12
7.48377422006e-13
5.67588763489e-13
4.92488005578e-13
4.74419071295e-13
4.76696535718e-13
4.79290073329e-13
4.79237596191e-13
4.78773647331e-13
4.77781503441e-13
4.77617442766e-13
4.77018769785e-13
4.77292224352e-13
4.93004491133e-13
4.49819787806e-12
4.12638028011e-12
3.46732852345e-12
2.70698749225e-12
2.02938817875e-12
1.52972655335e-12
1.10096798188e-12
8.08321214993e-13
5.92344722834e-13
4.99220707419e-13
4.77094876866e-13
4.77883700805e-13
4.79938904733e-13
4.79629772218e-13
4.79071275257e-13
4.78003996621e-13
4.77785500074e-13
4.77152485063e-13
4.77513443113e-13
4.9509877446e-13
4.17323468307e-12
3.91484541688e-12
3.40778642172e-12
2.7910710681e-12
2.20763798808e-12
1.71656477431e-12
1.18920525068e-12
8.75490045828e-13
6.22788162638e-13
5.07032067589e-13
4.80005167878e-13
4.79184795304e-13
4.80662185526e-13
4.8003985397e-13
4.79370042781e-13
4.78218961389e-13
4.77946437237e-13
4.77283379146e-13
4.77765357372e-13
4.97465857749e-13
3.87513656046e-12
3.70458425837e-12
3.33272444653e-12
2.84941232075e-12
2.35554196734e-12
1.86317609713e-12
1.27782802139e-12
9.43853614024e-13
6.54682979062e-13
5.15083309887e-13
4.82947347193e-13
4.80576945248e-13
4.81415113076e-13
4.80459604258e-13
4.79654057056e-13
4.78420365902e-13
4.78098337166e-13
4.7741007557e-13
4.78055804929e-13
5.00170478119e-13
3.60312258131e-12
3.50069618139e-12
3.23910842049e-12
2.86962682697e-12
2.4473661573e-12
1.94576242889e-12
1.34721852143e-12
9.94548262426e-13
6.75587570453e-13
5.20391619521e-13
4.85407725529e-13
4.81924118304e-13
4.82095769403e-13
7.46943811149e-13
3.6334130028e-13
5.79613798352e-13
3.72985625997e-13
5.35562498526e-13
3.75978708759e-13
5.26358747987e-13
3.7474965671e-13
5.19024744442e-13
3.73335765486e-13
5.0820536596e-13
3.72360241507e-13
4.94443010917e-13
3.71920747081e-13
4.81932211553e-13
3.71237867384e-13
4.76430283825e-13
3.69438433362e-13
4.75075482826e-13
3.66859560596e-13
4.77188166443e-13
3.63682250924e-13
4.82802900483e-13
3.6014534274e-13
4.93147511508e-13
3.56579050437e-13
5.11826948831e-13
3.53527112258e-13
5.45501641133e-13
3.51186752774e-13
6.05423785203e-13
3.49266673038e-13
6.45425858182e-13
1.05473383382e-12
6.64326476323e-13
1.08501621677e-12
6.80177796281e-13
1.11992999373e-12
6.96006659009e-13
1.15793052955e-12
7.12527400972e-13
1.19877793383e-12
7.30012984289e-13
1.24261880174e-12
7.48640106454e-13
1.28971559704e-12
7.68559887238e-13
1.34038462793e-12
7.89913906423e-13
1.39497292266e-12
8.12856902176e-13
1.45387941819e-12
8.37550297554e-13
1.5174990508e-12
8.64228340482e-13
1.58640280724e-12
)
;

boundaryField
{
    inletfuel
    {
        type            calculated;
        value           uniform 0;
    }
    inletair
    {
        type            calculated;
        value           uniform 0;
    }
    outlet
    {
        type            calculated;
        value           nonuniform 0();
    }
    axis
    {
        type            empty;
    }
    leftside
    {
        type            calculated;
        value           uniform 0;
    }
    burnerwall
    {
        type            calculated;
        value           uniform 0;
    }
    front
    {
        type            wedge;
    }
    back
    {
        type            wedge;
    }
    procBoundary0to1
    {
        type            processor;
        value           uniform 0;
    }
}


// ************************************************************************* //
