/*--------------------------------*- C++ -*----------------------------------*\
  =========                 |
  \\      /  F ield         | OpenFOAM: The Open Source CFD Toolbox
   \\    /   O peration     | Website:  https://openfoam.org
    \\  /    A nd           | Version:  7
     \\/     M anipulation  |
\*---------------------------------------------------------------------------*/
FoamFile
{
    version     2.0;
    format      ascii;
    class       surfaceScalarField;
    location    "0.01";
    object      phi;
}
// * * * * * * * * * * * * * * * * * * * * * * * * * * * * * * * * * * * * * //

dimensions      [1 0 -1 0 0 0 0];

internalField   nonuniform List<scalar> 
1567
(
-4.19785241192e-09
8.87759275123e-08
-1.39379339884e-08
2.63835015979e-07
4.10537414649e-07
2.09389213461e-09
8.69559848655e-08
2.0061044779e-09
2.64396462374e-07
4.12624875208e-07
2.91130963951e-10
8.66869162162e-08
-2.74331814522e-09
2.67538633195e-07
4.09983181845e-07
-2.68637050333e-09
8.94850503987e-08
-3.15886836692e-09
2.68842186042e-07
3.76141082746e-07
4.72322612823e-08
-9.26277517058e-10
9.04291044035e-08
5.86863944539e-09
2.62366442366e-07
3.6027526793e-07
2.71374357946e-08
1.12624754499e-09
8.92978415497e-08
9.44607288697e-09
2.54058409962e-07
3.4190875439e-07
2.86362817496e-08
7.29695157878e-10
8.85460918559e-08
6.18648327165e-09
2.48547614205e-07
3.30767422515e-07
1.73114749207e-08
1.35896168184e-09
8.71653770651e-08
6.55348472087e-09
2.43286201376e-07
3.20886080519e-07
1.6361193019e-08
1.93858894036e-09
8.52100790387e-08
8.37111905862e-09
2.36804605426e-07
3.11128631591e-07
1.8064038403e-08
2.36838078517e-09
8.28413444512e-08
1.10796796599e-08
2.28081177931e-07
3.01757071631e-07
2.04146167322e-08
2.81922915679e-09
8.00355337551e-08
1.23153935683e-08
2.1861059178e-07
2.92899906312e-07
2.11823315031e-08
3.23958874257e-09
7.68185589155e-08
1.21643214756e-08
2.09747257551e-07
2.84684148683e-07
2.04587672204e-08
3.56746259961e-09
7.32811904148e-08
1.20439854734e-08
2.01366367631e-07
2.76741746124e-07
2.01425557961e-08
3.84262394537e-09
6.94774339804e-08
1.29972911887e-08
1.9233779334e-07
2.68151858183e-07
2.18042595453e-08
3.95653390394e-09
6.55709358945e-08
1.39370134114e-08
1.82510262029e-07
2.58632177098e-07
2.3695724536e-08
3.99227685887e-09
6.16362161114e-08
1.4142459792e-08
1.7251999709e-07
2.4813110478e-07
2.48512289118e-08
4.04984128251e-09
5.76440635187e-08
1.44502922009e-08
1.62264136351e-07
2.36546165776e-07
2.61688715401e-08
3.90825557459e-09
5.37866111056e-08
1.40472408387e-08
1.52235176915e-07
2.24322907748e-07
2.63159447203e-08
3.57022319519e-09
5.02599360555e-08
1.33349000177e-08
1.42552201095e-07
2.12586323151e-07
2.505373018e-08
3.19864777543e-09
4.70996795869e-08
1.18091130745e-08
1.34008178499e-07
2.02402375049e-07
2.19507398812e-08
2.70914526216e-09
4.44297822873e-08
9.70554149851e-09
1.27081765461e-07
1.93973996285e-07
1.8105296136e-08
2.2930957783e-09
4.21801929647e-08
8.18310436478e-09
1.21277977169e-07
1.87090253047e-07
1.50692965857e-08
1.86032319568e-09
4.03645435484e-08
6.47988071047e-09
1.16749865944e-07
1.81636653012e-07
1.19571296342e-08
1.5237338639e-09
3.88825430034e-08
5.31756214446e-09
1.13043835265e-07
1.77234639703e-07
9.74674014058e-09
1.21454299661e-09
3.77012684891e-08
4.1299734518e-09
1.10195781674e-07
1.7390110139e-07
7.47511601459e-09
9.27547391987e-10
3.67966948031e-08
3.13781471006e-09
1.08028483545e-07
1.71491358278e-07
5.5372266094e-09
7.39471607278e-10
3.60707258198e-08
2.58891732789e-09
1.06199317318e-07
1.69671097634e-07
4.38026996652e-09
5.90095373026e-10
3.54877235707e-08
2.1300717562e-09
1.04666344176e-07
1.68207821321e-07
3.55671967638e-09
5.99639346786e-10
3.48935390723e-08
2.09829681776e-09
1.03171564634e-07
1.66553945077e-07
3.72570526857e-09
6.94228536825e-10
3.4210419653e-08
2.54579010141e-09
1.01347753676e-07
1.64200930825e-07
4.91656034402e-09
1.00728628525e-09
3.32288709867e-08
3.8656960044e-09
9.85618534288e-08
1.60216964287e-07
7.96064737994e-09
1.5063794652e-09
5.80441906857e-09
1.2386796083e-08
2.53328070294e-07
-1.90004546245e-07
2.35036574067e-07
4.77654367791e-08
2.36757995054e-07
2.70339865459e-08
2.4811724251e-07
5.96073837171e-09
2.56670047941e-07
7.73969732588e-09
2.61092743583e-07
1.35139001502e-08
2.62663750579e-07
1.87008277782e-08
2.62558561463e-07
2.12061511179e-08
2.61729405428e-07
2.13177510535e-08
2.60177570044e-07
2.18363745221e-08
2.5741482692e-07
2.47664329198e-08
2.53192409238e-07
2.81024958567e-08
2.47261422107e-07
3.08759202121e-08
2.39369635118e-07
3.40238859407e-08
2.30460053195e-07
3.50631923526e-08
2.21592050287e-07
3.36843600809e-08
2.13773921814e-07
2.95153796701e-08
2.07589687515e-07
2.40666927051e-08
2.0270758358e-07
1.97798924037e-08
1.99036853878e-07
1.549758581e-08
1.9628905825e-07
1.23871429043e-08
1.94441674029e-07
9.21591237006e-09
1.9333852697e-07
6.52895959392e-09
1.92787183498e-07
4.81719420841e-09
1.92453614897e-07
3.78233585122e-09
1.91812009433e-07
4.28121668997e-09
1.90069625769e-07
6.63952012755e-09
1.86226355292e-07
1.19143274557e-08
1.94684316701e-08
1.56043438007e-07
7.39548688933e-07
3.87526167697e-07
1.19136268752e-06
7.27942330538e-07
1.74840244408e-06
9.33725013776e-07
2.7142704094e-06
1.24505281947e-06
3.62996774234e-06
1.33313696059e-06
5.09159350563e-06
1.4632994942e-06
6.54364734309e-06
1.39602523172e-06
8.54748913923e-06
1.3446063417e-06
1.07458451894e-05
1.2070056252e-06
1.35700353295e-05
1.13593650896e-06
1.6845743521e-05
1.04805243038e-06
2.08498869466e-05
9.52212926441e-07
2.55573236897e-05
7.78008565753e-07
3.12681105113e-05
6.56314313295e-07
3.80896362412e-05
5.89886225511e-07
4.63182393265e-05
5.47514845578e-07
5.61703615953e-05
5.34146256965e-07
6.79476287762e-05
2.4239002747e-07
8.22462726375e-05
9.96354034914e-05
4.6259842078e-07
2.60218677179e-07
2.97406578455e-07
1.31622736767e-06
5.57397480399e-07
1.41777086244e-06
6.49059371518e-07
2.53838654662e-06
8.80337621811e-07
3.32148740152e-06
1.02290286245e-06
4.89044542411e-06
1.15610694158e-06
6.35360276522e-06
1.17426301579e-06
8.45230609472e-06
1.13522578116e-06
1.0646289998e-05
1.00440997539e-06
1.34898842153e-05
8.70556286123e-07
1.67235312909e-05
7.41259955957e-07
2.06911462916e-05
6.35005435637e-07
2.53100612235e-05
5.18761606506e-07
3.09227213106e-05
4.42105192322e-07
3.76048370957e-05
4.22733103763e-07
4.56814586024e-05
4.32362481091e-07
5.53645347946e-05
4.70468981678e-07
6.69361447331e-05
8.73274141603e-08
8.15634474045e-05
9.94557482873e-05
-1.91817570681e-08
2.91854971799e-07
3.9693026308e-07
8.90856553906e-07
8.13013614643e-07
9.6688024957e-07
8.69729782936e-07
2.41311842953e-06
1.0300973074e-06
3.07163090987e-06
9.89937694228e-07
4.856977837e-06
9.86306494923e-07
6.30139490229e-06
9.20866537269e-07
8.45933601326e-06
8.40778939831e-07
1.06326675163e-05
7.0988648502e-07
1.34648567684e-05
5.70378786232e-07
1.66545050437e-05
4.52491046399e-07
2.05698643958e-05
3.61540211677e-07
2.51237481309e-05
2.89157015378e-07
3.06467652843e-05
2.42263840262e-07
3.72206929138e-05
2.44881751821e-07
4.5163789624e-05
2.78836667314e-07
5.46990789412e-05
3.35804380131e-07
6.6113815432e-05
1.07160519969e-07
8.10067764874e-05
9.92511796259e-05
-3.56369808454e-07
4.34893443423e-07
2.52520013914e-07
3.65820540456e-07
3.11229277722e-07
9.40108331563e-07
1.02681636059e-06
1.66189770002e-06
1.12334907033e-06
2.86846840269e-06
1.28265280138e-06
4.5781906758e-06
1.22728762269e-06
6.26567495953e-06
1.14040836993e-06
8.46748425265e-06
1.00103056863e-06
1.06644229361e-05
8.18659505486e-07
1.34685690279e-05
6.14465831072e-07
1.66093440712e-05
4.51718489419e-07
2.04431603577e-05
3.26742623536e-07
2.49214748809e-05
2.47410608716e-07
3.03226753752e-05
1.96705256104e-07
3.67682115253e-05
2.1534593879e-07
4.45384151583e-05
2.96287207954e-07
5.38713135508e-05
4.22037998519e-07
6.50857684909e-05
6.99372280796e-07
7.98034523369e-05
9.79310372401e-05
1.43581576869e-06
1.14274529588e-07
3.75443883675e-07
1.9896138195e-07
3.0516282667e-07
6.59989557594e-07
5.59442265237e-07
1.40825198473e-06
1.15055555148e-06
1.91953652253e-06
2.63413911895e-06
2.13296952158e-06
4.4605114275e-06
1.79336434095e-06
6.56406673406e-06
1.52784888999e-06
8.651182664e-06
1.19307041756e-06
1.08882329541e-05
9.24754918419e-07
1.35593318994e-05
6.45339314718e-07
1.66363215216e-05
4.39257225911e-07
2.03557780606e-05
2.8302177412e-07
2.47541945795e-05
1.97809026189e-07
3.00151187602e-05
1.43488617757e-07
3.63297464928e-05
1.75651724686e-07
4.39118544477e-05
3.04198214404e-07
5.30105428528e-05
5.12864625218e-07
6.39922106688e-05
1.21926413507e-06
7.81688584069e-05
9.53739976076e-05
2.96856034668e-06
4.76728545927e-08
3.5672450735e-07
5.98099219717e-08
3.00844835815e-07
1.942059202e-07
4.44917523963e-07
6.70160235311e-07
8.24388005153e-07
1.35544105183e-06
2.27969707463e-06
1.92526835311e-06
4.16486619887e-06
1.86143356216e-06
6.67733594259e-06
1.68059718093e-06
8.76368107565e-06
1.30684338491e-06
1.11516811784e-05
1.01260306348e-06
1.36906780587e-05
6.79203814759e-07
1.67435188046e-05
4.41616165217e-07
2.033673741e-05
2.62009097572e-07
2.46629887666e-05
1.71347659531e-07
2.97837944391e-05
1.15773275161e-07
3.59793970494e-05
1.57969984804e-07
4.33850891483e-05
3.26679531147e-07
5.22472891306e-05
6.07033199263e-07
6.29932497812e-05
1.58757775009e-06
7.64025577415e-05
9.2832322642e-05
3.24807524958e-06
-5.74809766171e-09
3.69242402382e-07
3.84194960333e-10
3.00210064733e-07
5.00188289135e-08
4.05280741685e-07
2.96598508062e-07
6.932643258e-07
8.97880058001e-07
1.97546699756e-06
1.42926029519e-06
3.93094526379e-06
1.66047615004e-06
6.53068492092e-06
1.59389485072e-06
8.76572883538e-06
1.32040970331e-06
1.13077095434e-05
1.05575929436e-06
1.3807599494e-05
7.14560790607e-07
1.6903453946e-05
4.68954728792e-07
2.03963767847e-05
2.81480386536e-07
2.46764320129e-05
1.89968599203e-07
2.96795467658e-05
1.36896819225e-07
3.57845433379e-05
1.86413426844e-07
4.30498509332e-05
3.78831245074e-07
5.17101196007e-05
6.95868687025e-07
6.22619612047e-05
1.67274103758e-06
7.49323113873e-05
9.09361463835e-05
2.81244988502e-06
-1.66797187266e-08
3.93301135541e-07
-1.36912708787e-08
3.02387242715e-07
1.37434002151e-08
3.87417094001e-07
1.43618983037e-07
6.40740968507e-07
5.36665206409e-07
1.80926116047e-06
9.75275703234e-07
3.70945924958e-06
1.28976559143e-06
6.27065698276e-06
1.3476316144e-06
8.61399248501e-06
1.2263227574e-06
1.12844833607e-05
1.03576692127e-06
1.38514322128e-05
7.51044872831e-07
1.70545959299e-05
5.28063681558e-07
2.05250738437e-05
3.53637604484e-07
2.48069640075e-05
2.67798857188e-07
2.97395715266e-05
2.22555364761e-07
3.57961713519e-05
2.7565013912e-07
4.2978501621e-05
4.71787507622e-07
5.15026671011e-05
7.9224634927e-07
6.19350971041e-05
1.64154470689e-06
7.40235400329e-05
8.99037873673e-05
2.29136683965e-06
-1.71399349624e-08
4.22863573724e-07
-2.1877640132e-08
3.12873430438e-07
-5.81299646318e-09
3.85044824709e-07
6.99487826306e-08
6.14453488411e-07
3.03206214385e-07
1.72641798635e-06
6.35382798687e-07
3.50391170046e-06
8.96141151117e-07
6.02498417467e-06
1.04001708371e-06
8.32323873996e-06
1.04678240798e-06
1.10822391381e-05
9.6859839048e-07
1.37616180135e-05
7.82157913354e-07
1.71459014723e-05
6.16728848661e-07
2.0695931802e-05
4.75604929503e-07
2.50544139101e-05
4.03982470498e-07
2.99838692877e-05
3.71223368326e-07
3.60459896134e-05
4.22977136624e-07
4.32185294235e-05
6.03575590055e-07
5.16910048129e-05
8.98356182597e-07
6.20984124538e-05
1.6202342136e-06
7.37782426207e-05
8.93503823277e-05
2.07456405379e-06
-1.49328679693e-08
4.55380784357e-07
-2.92232451226e-08
3.32065951186e-07
-2.32728010684e-08
3.91833235393e-07
2.97200955885e-08
6.02239396331e-07
1.67830503011e-07
1.66560974771e-06
3.62459034671e-07
3.35567238837e-06
5.62695059175e-07
5.7899504215e-06
7.16528031184e-07
7.97565373982e-06
8.20845464514e-07
1.07156609678e-05
8.54183047351e-07
1.352139608e-05
7.95339749949e-07
1.71366487205e-05
7.14245404306e-07
2.08818624486e-05
6.27557483238e-07
2.54060366345e-05
5.79020992829e-07
3.04165269313e-05
5.6152913169e-07
3.65467861115e-05
6.07058890415e-07
4.37905358777e-05
7.56711080338e-07
5.23010255195e-05
9.99506941488e-07
6.27864819468e-05
1.58714625165e-06
7.42687070161e-05
8.93541628233e-05
2.00892389592e-06
-1.31917405735e-08
4.889536377e-07
-3.37451823751e-08
3.56123474534e-07
-3.66262281769e-08
4.04884114267e-07
4.95720198591e-09
6.04845063976e-07
8.09508178469e-08
1.60884259902e-06
1.73349142029e-07
3.25922353486e-06
3.12450542873e-07
5.56689078504e-06
4.15836824112e-07
7.65485784268e-06
5.62452188987e-07
1.02497536845e-05
6.84719123834e-07
1.3151739379e-05
7.70422444948e-07
1.70061572713e-05
7.92654743826e-07
2.10628513808e-05
7.79238309569e-07
2.58437277133e-05
7.61391229948e-07
3.10291986623e-05
7.59346849273e-07
3.72951990612e-05
7.95015394151e-07
4.46907113642e-05
9.03575569323e-07
5.33256110098e-05
1.07064258067e-06
6.39936141613e-05
1.51547334036e-06
7.54908788618e-05
8.98102289248e-05
2.03429169999e-06
-1.15836762001e-08
5.21394747656e-07
-3.66733140137e-08
3.83191493769e-07
-4.4959843886e-08
4.20983113633e-07
-1.28920457305e-08
6.15536684164e-07
3.5614881469e-08
1.56870278986e-06
6.46698938868e-08
3.21615328545e-06
1.43257002962e-07
5.36654344152e-06
1.98179983662e-07
7.36139373087e-06
3.30006513248e-07
9.79736923009e-06
4.87708202739e-07
1.27246420527e-05
7.00456258306e-07
1.67812228112e-05
8.30441938351e-07
2.12390565854e-05
9.01122105192e-07
2.63538963807e-05
9.1786949895e-07
3.18067438271e-05
9.29320234014e-07
3.82751586746e-05
9.51603378139e-07
4.58984300913e-05
1.01496503529e-06
5.47359525037e-05
1.08219901157e-06
6.56922111168e-05
1.40013422372e-06
7.73804579789e-05
9.09475537379e-05
1.81199875956e-06
-8.72440474828e-09
5.51729141959e-07
-3.71329779531e-08
4.12225093871e-07
-4.7923327014e-08
4.37961214725e-07
-2.22227829294e-08
6.28720163132e-07
8.05937401508e-09
1.55911295848e-06
1.55212245255e-09
3.216719421e-06
1.87270716686e-08
5.20584818908e-06
3.89958483267e-08
7.0900262206e-06
1.30768556545e-07
9.39813004532e-06
3.04363996351e-07
1.2321641536e-05
5.99549697636e-07
1.65292299036e-05
8.15107522455e-07
2.14432618018e-05
9.73026610067e-07
2.6928414939e-05
1.02333455106e-06
3.27318183813e-05
1.04393305238e-06
3.94630747268e-05
1.04865526396e-06
4.73844225944e-05
1.06799797075e-06
5.64945495176e-05
1.03277757058e-06
6.78290977776e-05
1.21599718433e-06
7.98110028656e-05
9.27287992717e-05
1.60533732488e-06
-1.3180939158e-09
5.7747514729e-07
-3.41277960967e-08
4.44637035889e-07
-4.58137363856e-08
4.55579646981e-07
-2.28372227407e-08
6.44585157802e-07
-4.26400856892e-09
1.57830290198e-06
-4.55146873022e-08
3.25312548286e-06
-6.71978522177e-08
5.07930389573e-06
-9.09661598163e-08
6.86247874634e-06
-2.70003121364e-08
9.06207694177e-06
1.29969146286e-07
1.20020089713e-05
4.66630622432e-07
1.6318773902e-05
7.69634563761e-07
2.16835043115e-05
9.90253701046e-07
2.75853826325e-05
1.06632003622e-06
3.37899418489e-05
1.08831071559e-06
4.08343333944e-05
1.06982112648e-06
4.91179003629e-05
1.04600533171e-06
5.85674767942e-05
9.20491679727e-07
7.03551847608e-05
9.54833716101e-07
8.26537249978e-05
9.49427347512e-05
1.35101258466e-06
8.38776880774e-09
5.96577713687e-07
-2.73063485401e-08
4.78942162267e-07
-4.14380150757e-08
4.7627596322e-07
-1.83950803173e-08
6.62804155388e-07
-1.22475940425e-08
1.6293097538e-06
-7.37066420012e-08
3.3132596369e-06
-1.33908270225e-07
4.98383832359e-06
-1.93260407065e-07
6.67761063293e-06
-1.65595012203e-07
8.80431288037e-06
-1.49982812178e-08
1.17868113904e-05
3.31812075925e-07
1.6210659128e-05
6.94299513663e-07
2.19931389073e-05
9.57606259298e-07
2.83355507849e-05
1.0492162873e-06
3.49688100374e-05
1.06177670305e-06
4.2368253645e-05
1.01227556581e-06
5.10710992961e-05
9.41424139349e-07
6.09274737246e-05
7.39317419199e-07
7.32371516022e-05
6.27953412615e-07
8.58630324122e-05
9.74177231448e-05
1.04923689787e-06
1.92146742051e-08
6.07118325423e-07
-1.69324282229e-08
5.12805333131e-07
-3.29604232688e-08
5.00310389563e-07
-5.2763086012e-09
6.80399291245e-07
-2.27690924845e-08
1.71907954202e-06
-1.02409696194e-07
3.38050193078e-06
-1.89136276886e-07
4.90498479349e-06
-2.7425262446e-07
6.53207372552e-06
-2.79103726426e-07
8.62902611625e-06
-1.73490987778e-07
1.16999935522e-05
2.05819398989e-07
1.62067833989e-05
6.01182832819e-07
2.24004018812e-05
8.90284509151e-07
2.91853382846e-05
9.85280664998e-07
3.62616719257e-05
9.75903263474e-07
4.4051052012e-05
8.84764897639e-07
5.32215962973e-05
7.56680046874e-07
6.35523322885e-05
4.82069456328e-07
7.64553304072e-05
2.58446753474e-07
8.94272534322e-05
0.000100158165312
7.65566509553e-07
2.95554536981e-08
6.09949210614e-07
-2.91940463487e-09
5.42199452443e-07
-1.86842214342e-08
5.25928651091e-07
-3.20902189333e-09
7.1482649378e-07
-3.95341493209e-08
1.83315302963e-06
-1.28105859133e-07
3.43424793162e-06
-2.33809023768e-07
4.83411338236e-06
-3.31120940835e-07
6.41677259187e-06
-3.58541979555e-07
8.53079116861e-06
-2.72743481537e-07
1.17171012782e-05
9.80689010607e-08
1.63383557842e-05
5.05092300756e-07
2.29235406241e-05
8.04696626465e-07
3.01400559206e-05
8.9128900262e-07
3.7667914643e-05
8.49171351676e-07
4.58755639756e-05
7.04139939755e-07
5.55525303476e-05
5.02973989326e-07
6.64228480007e-05
1.44639341233e-07
8.00028025188e-05
-1.50821961894e-07
9.33454619101e-05
0.000103338205063
4.21621648938e-07
3.69783752788e-08
6.06039476619e-07
3.44815520872e-09
5.72143134862e-07
-2.10750476461e-08
5.62873484952e-07
-1.16982270802e-08
7.60815604882e-07
-5.89661702887e-08
1.95013431822e-06
-1.51307470207e-07
3.4610211813e-06
-2.66660554531e-07
4.76095328999e-06
-3.65197897112e-07
6.32173564407e-06
-4.09171380751e-07
8.50277051509e-06
-3.33527177986e-07
1.18248619076e-05
2.34664046614e-08
1.66047506195e-05
4.26850040301e-07
2.35745529251e-05
7.16470243438e-07
3.1212505462e-05
7.85088569416e-07
3.91914725424e-05
7.01000874595e-07
4.78427799164e-05
4.91534731019e-07
5.80527777527e-05
2.00546520012e-07
6.95190757883e-05
-2.36951332298e-07
8.38444522844e-05
-5.62353057754e-07
9.76159582168e-05
0.000106942839554
1.49658881468e-07
3.33862956094e-08
6.04244930612e-07
7.46726179332e-10
6.01447735986e-07
-2.932093891e-08
6.0697110738e-07
-3.30664883469e-08
8.21719425379e-07
-6.44282664775e-08
2.03353258003e-06
-1.58927673077e-07
3.45674187678e-06
-2.78392612599e-07
4.67958883541e-06
-3.75849421261e-07
6.24288197446e-06
-4.30247880094e-07
8.53344155478e-06
-3.6677068595e-07
1.20175012398e-05
-4.89651627225e-08
1.70108611414e-05
3.77088948836e-07
2.43316238518e-05
6.45042899687e-07
3.24104762254e-05
6.80521282564e-07
4.08462880063e-05
5.45980841949e-07
4.99616764172e-05
2.67506031151e-07
6.07183050511e-05
-1.42608163398e-07
7.28397944787e-05
-6.74153037098e-07
8.795626207e-05
-1.06985067911e-06
0.000102308918529
0.00011057971385
1.45965990415e-07
2.75975674036e-08
6.04182513983e-07
-3.63403108673e-09
6.29956444075e-07
-3.92612225615e-08
6.5733499924e-07
-5.66701835274e-08
8.93043970799e-07
-7.06049628437e-08
2.07223021563e-06
-1.61755108691e-07
3.41501050247e-06
-2.75489238725e-07
4.57889347512e-06
-3.67395578627e-07
6.17070868523e-06
-4.26895527219e-07
8.60874566846e-06
-3.74511152373e-07
1.2285750215e-05
-6.42253582753e-08
1.75210544934e-05
3.6329813673e-07
2.52140329313e-05
5.88248609084e-07
3.37521285766e-05
5.81035214632e-07
4.26406504949e-05
3.92009369104e-07
5.22415407133e-05
4.56312704836e-08
6.35565702795e-05
-4.93630054189e-07
7.63888718164e-05
-1.13031156296e-06
9.2315994781e-05
-1.64476135858e-06
0.000107470408394
0.000115167089483
-4.37529718468e-07
2.08148128533e-08
6.05698685184e-07
-9.57586429932e-09
6.58361044712e-07
-4.95422117668e-08
7.1157710614e-07
-8.04760812717e-08
9.69130541194e-07
-7.72091160475e-08
2.05835289885e-06
-1.58685219138e-07
3.32952620803e-06
-2.62568287244e-07
4.4525083569e-06
-3.42150783335e-07
6.09226878766e-06
-3.97461770625e-07
8.71157270696e-06
-3.34568652655e-07
1.26070754366e-05
-2.0888273691e-08
1.81365708332e-05
3.65163496251e-07
2.62578271482e-05
5.42657270305e-07
3.52366195962e-05
4.89345012558e-07
4.45721478205e-05
2.44839118095e-07
5.46851677467e-05
-1.65389217346e-07
6.65802465807e-05
-8.1153913467e-07
8.01669819411e-05
-1.54523859297e-06
9.69110172956e-05
-2.11497548703e-06
0.00011300467065
0.000120169233273
-6.08496044778e-07
1.50842171034e-08
6.08946319448e-07
-1.5621304141e-08
6.8786213225e-07
-6.05950016992e-08
7.6922539269e-07
-9.99794245527e-08
1.04194258533e-06
-8.04069486854e-08
1.99112349879e-06
-1.50804156212e-07
3.19999943187e-06
-2.39144866147e-07
4.2937009578e-06
-3.03937676706e-07
6.00145941331e-06
-3.47855086957e-07
8.8323427131e-06
-2.63899200471e-07
1.29787119167e-05
3.66171146816e-08
1.88829641803e-05
3.88841706834e-07
2.74588651692e-05
5.27016403141e-07
3.68515250542e-05
4.17934029758e-07
4.66417235982e-05
1.13295182011e-07
5.72902662522e-05
-3.60433477715e-07
6.9799632272e-05
-1.09019812481e-06
8.41844725516e-05
-1.91240488672e-06
0.00010176725693
-2.48174655581e-06
0.000118845208366
0.000125533474345
-7.30890028032e-07
1.00740671116e-08
6.13170916612e-07
-2.20440948544e-08
7.1929185732e-07
-7.29186413043e-08
8.29422562175e-07
-1.22996785299e-07
1.1101626328e-06
-9.30771394684e-08
1.88070322416e-06
-1.45156223664e-07
3.02013024418e-06
-2.14235288352e-07
4.09971187343e-06
-2.59610457972e-07
5.89602468101e-06
-2.78652880034e-07
8.96380530087e-06
-1.93107226612e-07
1.34312106848e-05
1.06375106176e-07
1.97603344022e-05
4.48057595121e-07
2.88000107863e-05
5.48646059576e-07
3.85966470283e-05
3.79058853874e-07
4.88486864922e-05
6.04098425307e-09
6.0051967464e-05
-5.31771453265e-07
7.32083151084e-05
-1.33360506215e-06
8.84389545722e-05
-2.23459716959e-06
0.000106908105013
-2.77395161986e-06
0.000124989340385
0.000131246106417
-8.20849187347e-07
6.13625251409e-09
6.18389915019e-07
-2.74332349407e-08
7.52288747649e-07
-8.29434970552e-08
8.89979771467e-07
-1.3838577283e-07
1.16883619161e-06
-1.18195668984e-07
1.76244644104e-06
-1.49932920977e-07
2.7848289831e-06
-1.9907190816e-07
3.86937376316e-06
-2.22026197041e-07
5.77695126666e-06
-2.0647488995e-07
9.10924509463e-06
-1.0524741789e-07
1.39669641156e-05
2.08688814046e-07
2.07715780707e-05
5.45907614183e-07
3.02873193109e-05
6.11547987799e-07
4.04769295007e-05
3.84761819606e-07
5.11977811591e-05
-4.71782005853e-08
6.29635971407e-05
-6.64345533417e-07
7.68090191187e-05
-1.53891556844e-06
9.29170512346e-05
-2.51696811492e-06
0.0001123241532
-3.02001936861e-06
0.000131429820905
0.000137299614654
-8.87379263672e-07
1.43791659811e-09
6.25183189778e-07
-3.41512171999e-08
7.8696363363e-07
-9.47330017404e-08
9.50733079947e-07
-1.57598225028e-07
1.22198488664e-06
-1.49401368923e-07
1.68438351812e-06
-1.60523236163e-07
2.50018337383e-06
-1.8653859214e-07
3.59873787672e-06
-1.87439907738e-07
5.65370399044e-06
-1.22129844164e-07
9.27207621662e-06
1.53785493811e-08
1.45827349718e-05
3.47645401863e-07
2.19427329402e-05
6.85716534957e-07
3.19170312954e-05
7.17862489638e-07
4.24988689846e-05
4.37403034026e-07
5.37004387912e-05
-5.91486442858e-08
6.60483931879e-05
-7.51028427166e-07
8.06108063071e-05
-1.70059653333e-06
9.76267046996e-05
-2.75805882607e-06
0.000118015692474
-3.23782541717e-06
0.000138156229215
0.000143677147282
-9.40257613946e-07
-2.30781949403e-09
6.33059096105e-07
-3.80878267289e-08
8.21098801936e-07
-9.78003211753e-08
1.00612433964e-06
-1.61026951792e-07
1.26572518646e-06
-1.8262774097e-07
1.63800996351e-06
-1.89738347913e-07
2.21194717822e-06
-1.79627312662e-07
3.26996498425e-06
-1.49902884603e-07
5.52807382238e-06
-3.57360522572e-08
9.46810852577e-06
1.22723325305e-07
1.53021748955e-05
5.33475459274e-07
2.3245591145e-05
8.79778122968e-07
3.36702275428e-05
8.76279880059e-07
4.46618202441e-05
5.48264341352e-07
5.63554151098e-05
-2.41052261845e-08
6.9332607901e-05
-7.88199771282e-07
8.46362917412e-05
-1.8198894461e-06
0.000102604225525
-2.95872564273e-06
0.000124019851256
-3.43069835662e-06
0.000145200343005
0.000150377068528
-9.83135075373e-07
-4.62893837346e-09
6.41583384766e-07
-3.90634289615e-08
8.53151509547e-07
-9.57595518297e-08
1.05530610671e-06
-1.56845674664e-07
1.30193027614e-06
-1.90841885438e-07
1.60619721893e-06
-1.85906657454e-07
1.99086111024e-06
-1.49521148431e-07
2.90120022773e-06
-6.7170955747e-08
5.40680602187e-06
8.00188583876e-08
9.74223025473e-06
2.95808087645e-07
1.61292302714e-05
8.0428964121e-07
2.46644645278e-05
1.17800294646e-06
3.55294144527e-05
1.11423869331e-06
4.69823477849e-05
7.3373540711e-07
5.915768869e-05
7.52913448777e-08
7.28225479237e-05
-7.724496416e-07
8.88989082134e-05
-1.89993843508e-06
0.000107877068809
-3.12779693491e-06
0.000130375199547
-3.60351988431e-06
0.000152613502573
0.000157421005089
-1.0162288357e-06
-5.03403674821e-09
6.49537471045e-07
-3.62666448205e-08
8.81512681992e-07
-8.72261909984e-08
1.09699623493e-06
-1.43427804474e-07
1.33158620876e-06
-1.83689307099e-07
1.58631072009e-06
-1.84408818063e-07
1.86644191317e-06
-1.04418855501e-07
2.53896517501e-06
5.8042502645e-08
5.32358893337e-06
2.59682362861e-07
1.01011288201e-05
5.82729491309e-07
1.70404105388e-05
1.19133287036e-06
2.62317013495e-05
1.58008351855e-06
3.7514847414e-05
1.46921724485e-06
4.94449911033e-05
1.0108826335e-06
6.21258778078e-05
2.65316452728e-07
7.65063702422e-05
-6.95612871268e-07
9.34118124998e-05
-1.93672845409e-06
0.000113445440702
-3.27313852205e-06
0.000137092287003
-3.7669658553e-06
0.000160419254436
0.000164823452761
-1.04223345223e-06
-2.10822808202e-09
6.55185503523e-07
-2.80730991628e-08
9.04590787472e-07
-7.1323074456e-08
1.13084268123e-06
-1.19130128375e-07
1.35482574377e-06
-1.53997106724e-07
1.57047711466e-06
-1.54455121323e-07
1.77852940089e-06
2.22694650784e-09
2.2601331255e-06
2.31310437612e-07
5.30722570686e-06
5.69946740837e-07
1.05165330569e-05
1.02797426105e-06
1.80610385057e-05
1.74953122519e-06
2.79254026075e-05
2.1279512447e-06
3.96703831234e-05
1.97428722559e-06
5.20574625305e-05
1.40971110297e-06
6.52999587202e-05
5.58553183806e-07
8.0407368652e-05
-5.40200808273e-07
9.81934847123e-05
-1.92013633534e-06
0.000119315440775
-3.40064854504e-06
0.000144179742865
-3.92918474153e-06
0.000168610429674
0.000172575476346
-1.06614443799e-06
5.82930894848e-09
6.55552362398e-07
-9.89898043436e-09
9.18100797193e-07
-3.96814523086e-08
1.15293224721e-06
-7.04405441326e-08
1.36671528137e-06
-8.19009477999e-08
1.54701445551e-06
-6.14172744427e-08
1.71244530573e-06
1.12679018925e-07
2.16910690184e-06
5.02459419176e-07
5.34908134317e-06
1.03760659152e-06
1.10284170403e-05
1.69303903623e-06
1.92390788057e-05
2.53063375552e-06
2.97923771717e-05
2.88814795794e-06
4.20350369189e-05
2.63734307926e-06
5.48900118643e-05
1.94995394177e-06
6.87141595086e-05
9.5810592095e-07
8.45793903175e-05
-2.98803211108e-07
0.000103280075254
-1.84514782223e-06
0.000125522152206
-3.5035996645e-06
0.000151665614635
-4.08509668375e-06
0.000177184799346
0.000180663567485
-1.0880633396e-06
1.99130534968e-08
6.47755331493e-07
2.07002091449e-08
9.16752486831e-07
1.23046022731e-08
1.15796798121e-06
6.95362059111e-09
1.36342242639e-06
1.41014035867e-08
1.52753331943e-06
5.68328854512e-08
1.67703810155e-06
3.28525653878e-07
2.22259322617e-06
9.59606775377e-07
5.55785111752e-06
1.76444444118e-06
1.18026648193e-05
2.67978129206e-06
2.06921118871e-05
3.57417060363e-06
3.19897731346e-05
3.87427670408e-06
4.46671819167e-05
3.47004523696e-06
5.80040217796e-05
2.60996431562e-06
1.45017037753e-06
1.64973792417e-08
-1.72073241076e-06
-3.5708383161e-06
-4.2326738512e-06
-1.10570121029e-06
3.88387681456e-08
5.92078393375e-08
7.85557044085e-08
1.03115731428e-07
1.44619478644e-07
2.23101076159e-07
7.17216600659e-07
1.6706565579e-06
2.81336979755e-06
3.97555484089e-06
4.8834285057e-06
5.03245922827e-06
-1.14640229366e-06
2.80786994769e-06
-9.35843169263e-07
1.21081726953e-06
4.60447969229e-06
3.07633951097e-07
1.67332024835e-06
6.14609232169e-06
1.8147586135e-06
1.69346352153e-06
7.48428821722e-06
3.3246482909e-06
1.74911850088e-06
8.62368492254e-06
4.83562237921e-06
1.41938142143e-06
9.64090558297e-06
6.05357866062e-06
1.34582002795e-06
1.03997768088e-05
7.06898250857e-06
1.26522173215e-06
1.11350146283e-05
8.03739624868e-06
1.09697104025e-06
1.17379487746e-05
8.785177609e-06
9.58340191093e-07
1.22269896843e-05
9.34158756845e-06
8.13806825202e-07
1.26312757637e-05
9.73158140174e-06
6.56103867831e-07
1.29414044816e-05
9.9313457359e-06
5.2443178539e-07
1.31419327621e-05
9.92155090301e-06
3.98628683725e-07
1.32433605199e-05
9.66707895183e-06
3.47921171079e-07
1.33779829431e-05
9.23229364656e-06
5.30612979771e-07
1.36382772307e-05
8.74974455264e-06
-2.22755780189e-07
1.4169071429e-05
9.00217721948e-06
-3.38852316469e-07
1.47766876474e-05
9.38797940446e-06
-3.91128337313e-07
1.53974448189e-05
9.78923644428e-06
-4.28945633185e-07
1.60298539668e-05
1.01895481918e-05
-4.57113207955e-07
1.66808110172e-05
1.05930859232e-05
-4.79397052737e-07
1.7354605302e-05
1.10046713819e-05
-4.97142041195e-07
1.80546993726e-05
1.14288441962e-05
-5.1015713128e-07
1.87865424724e-05
1.18718007942e-05
-5.19431071227e-07
1.95546144859e-05
1.23386482058e-05
-5.2720937059e-07
2.03591291263e-05
1.28304709132e-05
-5.33761965012e-07
2.11991186118e-05
1.33469876499e-05
-5.37582934767e-07
)
;

boundaryField
{
    inletfuel
    {
        type            calculated;
        value           nonuniform List<scalar> 3(-8.49427261243e-08 -2.54806308657e-07 -4.24747074992e-07);
    }
    inletair
    {
        type            calculated;
        value           nonuniform List<scalar> 
20
(
-9.02861636832e-07
-1.44224133382e-06
-2.11415113745e-06
-2.94596716385e-06
-3.9704119312e-06
-5.22646618778e-06
-6.76062042042e-06
-8.62819805745e-06
-1.08951771534e-05
-1.36402196996e-05
-1.69570899775e-05
-2.09571291799e-05
-2.57723679983e-05
-3.15597399274e-05
-3.85065995307e-05
-4.68356452373e-05
-5.68098239581e-05
-6.87422271717e-05
-8.30057773575e-05
-0.00010004267591
)
;
    }
    outlet
    {
        type            calculated;
        value           nonuniform 0();
    }
    axis
    {
        type            empty;
        value           nonuniform 0();
    }
    leftside
    {
        type            calculated;
        value           uniform 0;
    }
    burnerwall
    {