/*--------------------------------*- C++ -*----------------------------------*\
  =========                 |
  \\      /  F ield         | OpenFOAM: The Open Source CFD Toolbox
   \\    /   O peration     | Website:  https://openfoam.org
    \\  /    A nd           | Version:  7
     \\/     M anipulation  |
\*---------------------------------------------------------------------------*/
FoamFile
{
    version     2.0;
    format      ascii;
    class       volScalarField;
    location    "0.01";
    object      Qdot;
}
// * * * * * * * * * * * * * * * * * * * * * * * * * * * * * * * * * * * * * //

dimensions      [1 -1 -3 0 0 0 0];

internalField   nonuniform List<scalar> 
814
(
2594088.94619
4171548.7763
25816203.3293
4060422.5738
6482652.85705
25906303.8332
5564022.88459
7678773.86205
25928132.7838
10035023.0755
26039088.2489
329230700.81
13784048.8743
46035345.2783
461260631.069
15261797.8497
41609265.6703
208074931.082
14392933.2302
30822580.6249
88504481.0394
12513263.7595
20165196.9896
37653165.5475
13501563.1353
19245420.3308
25473880.341
14050462.0541
18669622.1642
22651919.4229
14157629.6295
17722789.5133
20204298.6265
13894018.2653
16548644.6533
18091803.0091
13342515.5793
15273675.8459
16249652.6617
12606706.9902
13986513.8874
14626254.9104
11759701.2229
12750004.9284
13179984.7837
10860491.8084
11569424.3768
11871066.7681
9948931.67549
10456905.9362
10674057.6584
9060836.59567
9419668.33781
9577983.2206
8199324.0172
8455117.03585
8573896.98905
7399065.04518
7583620.34489
7672235.60955
6664469.03069
6798643.1282
6873623.49586
6011664.80461
6114231.89609
6180058.73677
5438036.8226
5518324.84502
5580338.42202
4936533.28295
5002450.24505
5061514.70564
4499949.56338
4553936.12325
4609695.06308
4114617.82776
4159891.85485
4212476.86974
3775407.83394
3813415.17088
3861624.19662
3473859.50028
3506140.32717
3549823.45107
3204319.43625
3231945.34204
3271038.446
2963301.14709
2985722.3448
3020624.96462
2743217.59806
2763267.76474
2794346.43303
2548304.20942
2564597.14416
2592912.02591
166240232.822
1491361667.14
442716075.154
140356856.567
48108127.4401
22492784.157
20405071.5721
18498815.1253
16768837.3185
15205229.6727
13789397.6467
12508058.03
11330544.6367
10242556.8399
9235868.89968
8306785.97692
7472710.62546
6731499.02427
6085521.57072
5523469.63778
5032703.24316
4600797.0168
4217387.20385
3875488.6465
3569212.11858
3293562.26712
3044060.20024
2818497.86613
2617535.32018
2552552.2061
1101021.35536
1051093.07098
1054467.13451
1063675.45932
1075760.07427
1065677.76664
1057969.69013
1038937.46003
1024448.97703
1010042.35316
998904.099356
990194.402375
983601.308197
978724.028509
975119.81483
972299.903085
970584.689062
959764.061534
686353.329045
4099725.82023
3168612.80498
3291337.11021
2889960.72728
2725032.96872
2529574.32116
2476587.8478
2408082.11146
2380458.1805
2339362.62754
2318932.81923
2294642.65835
2282118.47093
2270321.13812
2263380.03709
2257940.58294
2253266.07307
2249711.89398
2176898.81163
1019045.85976
11939679.3834
6244097.67759
6139110.099
5034207.63747
4443826.94377
3935553.72925
3728101.14054
3559989.88005
3505091.99576
3436939.12071
3413920.67333
3382085.77507
3370765.01302
3358328.24494
3352766.79269
3348226.57272
3343632.26603
3339267.90428
3184696.79423
1352344.06324
259010271.358
101373773.356
27273479.923
10320839.4758
7654774.97853
6087551.04404
5481810.36657
5068131.72752
4934217.02286
4819333.23766
4791005.13098
4752798.74562
4745519.17813
4735344.68698
4733415.11644
4731984.40357
4729060.97752
4724468.29489
4450917.83833
2117663.3234
1195562658.26
963638297.461
710474815.678
198047585.259
49982539.5163
17014529.0669
9481027.64436
7192411.76835
6620919.76159
6367871.21314
6310237.59102
6262275.58265
6258870.39807
6253188.27041
6256058.03186
6259405.475
6259906.43942
6255672.09611
5861709.20762
3181011.47739
516793267.243
401140620.888
582258778.243
382711060.763
93560465.4628
30454969.0775
14919729.2955
9970819.57199
8548890.14951
8007705.9284
7861238.59464
7786095.34469
7780099.219
7778613.169
7785694.7809
7794102.33137
7799041.84437
7795464.65369
7311388.80436
4493467.87873
128922753.926
108936542.816
189680423.315
379661400.863
108281485.787
39865070.0091
19947156.0804
13111860.2829
10690718.4617
9723045.9633
9382035.48011
9234915.68236
9207732.36784
9205539.5207
9214432.96467
9226552.17258
9235530.8045
9232175.92476
8700787.15543
5934500.40181
38579589.3086
37078560.8463
79315754.2159
207852204.816
110119824.237
45182164.5772
24196149.588
16310843.4213
13012831.8042
11539284.0968
10866443.8859
10565975.0764
10478950.3064
10463671.5519
10469855.2133
10482947.689
10494021.1918
10489730.8941
9951494.59894
7373542.64976
13173131.9375
14841291.3552
42638590.0087
136566743.371
97613312.943
44256983.2918
23660739.0572
19396919.3587
15488147.0767
13488089.0209
12345952.2043
11777339.9615
11568060.3842
11517100.0095
11513583.8388
11524236.7282
11534565.054
11528341.8503
11017549.3087
8755582.91163
12273737.4524
7885598.4545
29825898.1598
104083754.249
70221386.4762
33517658.6061
21459158.0897
22333876.7722
18089846.8196
15583753.4576
13854588.0141
12891216.5826
12479024.1571
12360037.3314
12337358.7479
12342225.4172
12349131.3169
12341033.7869
11886071.3307
10070890.9722
11634218.1548
7310515.65791
25200273.3546
89540611.9691
54077409.7094
26325057.4574
19934399.5339
21590159.8967
20769882.9075
17797206.5018
15401579.4103
13931049.6499
13233031.4487
13009105.028
12956417.6619
12952717.7174
12954549.3037
12945943.2066
12569691.976
11337800.563
11039694.8273
7039273.7998
23268772.379
83869956.5855
44437139.9647
21346514.7109
18667488.8333
20126894.5689
21551749.96
20062481.4533
16965224.5265
14904951.3229
13855153.4022
13493434.308
13400721.9749
13386644.7365
13383054.9768
13376341.8617
13096173.4879
12577702.7112
10487681.1726
6760594.01478
21727997.5279
80222189.4122
38613592.0446
17795619.7657
17643633.1934
18926761.2024
20182581.6644
21930777.1783
18487820.4226
15801504.7401
14365892.3066
13845643.39
13706360.7288
13681245.7662
13673039.3375
13670976.7427
13499669.3323
13788133.9487
9971237.36524
6486341.7533
20249860.3403
77165419.9178
35173985.6007
15265164.2723
16840191.5927
17952670.7029
19093660.9485
20757797.5015
19889948.3424
16598100.5657
14779641.5361
14096167.4561
13908916.8104
13873173.9607
13861923.8776
13867004.2129
13814222.5213
14948216.7436
9442216.78919
6272866.77301
18915596.4743
74738019.6039
33385997.8364
15070844.8479
16213836.2216
17169814.2352
18239498.5119
19864511.5026
21107174.9874
17276849.7268
15107121.5404
14271097.8367
14039450.8151
13994203.869
13981801.8337
13995862.5373
14068976.7676
16027572.1272
8885180.40884
6067193.61969
17448452.1458
71580539.3575
32911777.8672
15012996.32
15725610.692
16545248.3628
17577834.0033
19195964.6426
21716646.5845
17828578.0228
15358840.8774
14391760.7069
14122731.2065
14069366.4877
14057568.8364
14081733.0306
14286594.5579
17000324.1164
8300924.05056
5840517.84072
16045658.4904
70008740.138
33455136.0703
15036204.2476
15347804.2614
16054617.4582
17073646.364
18704089.7086
21197810.315
18253228.54
15545973.4987
14474728.3404
14176965.0886
14116777.345
14106876.67
14141851.3227
14485281.952
17849250.5044
7706323.0154
5600201.96484
15899738.0005
70424691.4627
34678673.178
15112528.16
15068164.3241
15680946.7708
16696222.9582
18352103.5466
20848784.8746
18559494.9257
15679443.5593
14532110.1416
14214441.42
14148490.2238
14141178.5851
14188147.3011
14675450.8124
18578972.9071
7128506.32335
5335698.1953
16490002.5078
71932616.7712
36556707.8771
15240989.5427
14886173.4896
15411618.2155
16418657.2546
18108467.6757
20628755.3555
18759069.9895
15768086.9697
14571865.3905
14242645.7583
14171800.0544
14167205.532
14226432.4475
14850873.7504
19216875.936
6582085.15603
5067234.34559
17111613.3364
72121640.0616
39398320.5197
15427132.9358
14803608.5118
15235711.7006
16220719.6114
17946782.2957
20506413.5344
18863182.6575
15817618.1886
14598489.7632
14265567.8433
14190715.8745
14188307.789
14258858.6788
15002526.6273
19744275.7674
6076436.07367
5000550.51698
17292620.7162
69572731.5814
43717031.3669
15682784.8226
14825481.4019
15150192.6543
16091243.6467
17852695.1877
20467344.0872
18884360.1917
15832283.0626
14614982.264
14285096.0818
14207247.8777
14206040.1843
14286533.5647
15127615.9038
20174620.9237
5615090.35239
5106181.95817
16805112.9749
63652207.1856
50088026.7693
16018675.4333
14968295.8194
15167628.902
16033708.6761
17826600.1941
20506693.8943
18835487.6644
15817236.9404
14623374.0367
14302005.7453
14222219.1164
14221214.9265
14310265.0167
15229736.6444
20536784.6154
5194184.5784
5036538.04879
15441588.0508
54582210.2845
59212610.2129
16403759.2976
15252442.921
15312905.6402
16066050.7258
17872939.0467
20622728.1761
18726319.9137
15777139.9519
14624797.6946
14316487.0298
14235783.6879
14234278.5891
14330732.2359
15314323.1102
20852543.6648
4808289.26526
4680289.34066
13097921.027
42267592.6136
73163496.1833
16730400.9016
15666218.9335
15618526.6372
16210854.7558
17996819.9395
20816247.3827
18563254.9057
15716686.812
14620293.8136
14328527.7671
14247869.9359
14245465.876
14348503.4786
15386625.9907
21139704.936
4452413.65944
4145695.8181
10488504.403
30672801.3778
80813444.5799
21105030.4904
16114523.5253
16105764.1107
16486922.2091
18205258.4188
21092523.317
18359053.3576
15640608.8249
14610567.8478
14338232.8092
14258381.3861
14254989.7533
14364086.8669
15451043.8143
21412202.5619
4122959.57426
3676589.90388
8056914.37229
21639808.2117
54827685.6994
33123921.7001
16401154.7353
16765761.0469
16913438.955
18508659.0436
21443164.321
18127119.967
15553095.9627
14596511.9186
14345803.7284
14267361.3467
14263131.6779
14378036.3629
15511134.1571
21680664.0402
3820202.16319
3477365.53442
6042588.16639
14836569.3671
35659285.1948
60180854.1871
19223307.3665
17573409.0398
17487561.1755
18907140.9844
21843771.3451
17873529.0967
15457825.7101
14579470.037
14351448.0517
14274976.0021
14270150.4191
14390954.0055
15569770.0359
21953449.9234
3543038.00276
3285404.36045
4488287.16724
10047680.0577
23159438.0896
53449286.4756
30242723.4807
18505075.9082
18224948.375
19386685.469
22283126.0756
17606710.2645
15358576.8932
14561079.2056
14355427.7844
14281407.6022
14276214.1261
14403398.0798
15629226.5194
22237397.4153
3288509.17816
3100612.91781
3375459.43869
6882830.82247
15479758.8584
36680920.2624
47726299.7996
19620274.6148
19161374.9577
19940405.7171
21886355.4774
17335035.8557
15259946.339
14542490.8586
14358194.9968
14286730.8894
14281475.8736
14415778.8161
15691514.9583
22538697.6988
3052907.16304
2922988.91784
2702785.3225
5015113.75513
11253021.0776
27800473.9076
68795405.9681
20953159.1185
20338056.7945
20588124.8348
21426604.4137
17059006.2153
15164117.3912
14524044.2
14360044.3919
14291008.9179
14286125.5279
14428410.4083
15758579.3939
22863251.285
2837219.37634
2754117.17984
2573981.8681
4332362.5825
10082385.9691
26740960.598
86227242.855
25116836.6078
21715109.2192
21339578.5093
20899463.8181
16769312.0266
15067113.7795
14505216.1864
14360488.7781
14294090.152
14290188.6092
14441920.851
15832794.8104
23218020.8174
2645162.54267
2602841.31798
2587841.35805
4850185.79772
11887506.8095
33666069.0682
110793525.185
30119166.2132
23064103.5153
22166182.4901
20216663.7884
16443691.8962
14962275.4509
35707908.8826
14153909.0746
26827361.4158
14727353.2019
24934151.4246
14620757.2088
24193760.4679
14084164.2071
23402500.8927
13639884.1905
22410553.8963
13371597.3126
21342823.0643
13249061.1076
20364394.3591
13154196.7317
19655706.4656
12916306.1726
19108974.6245
12575617.0435
18706648.0972
12154190.8625
18465244.2039
11667516.0903
18448452.2273
11119701.6913
18830647.7048
10501830.8216
19960063.6063
9833037.1007
22431117.5771
9105128.91366
24097043.573
37647631.6104
24760030.4064
38051498.6518
25265305.7544
38669267.8907
25754854.4554
39374679.246
26260297.2661
40140342.6291
26792159.2664
40961734.6726
27356260.9176
41839998.0366
27957058.73
42778227.6251
28598343.6449
43780355.309
29284101.2372
44851387.0396
30018091.8983
45995984.0637
30806142.5787
47222466.3134
)
;

boundaryField
{
    inletfuel
    {
        type            zeroGradient;
    }
    inletair
    {
        type            zeroGradient;
    }
    outlet
    {
        type            zeroGradient;
    }
    axis
    {
        type            empty;
    }
    leftside
    {
        type            zeroGradient;
    }
    burnerwall
    {
        type            zeroGradient;
    }
    front
    {
        type            wedge;
    }
    back
    {
        type            wedge;
    }
    procBoundary0to1
    {
        type            processor;
        value           nonuniform List<scalar> 
27
(
2378782.65376
2394256.62729
2421407.92408
2448237.66329
14483074.3848
14357959.3624
14294942.5871
14292948.7312
14456638.2257
15916410.641
23612389.0569
2486055.10807
2482268.67442
3376747.90172
6987509.14678
17212310.6205
49634842.5441
110243122.18
31352047.8678
24043951.7862
23026279.5774
19312308.4294
16066759.3426
14483074.3848
14845622.899
31662067.5819
48543678.2343
)
;
    }
}


// ************************************************************************* //
