/*--------------------------------*- C++ -*----------------------------------*\
  =========                 |
  \\      /  F ield         | OpenFOAM: The Open Source CFD Toolbox
   \\    /   O peration     | Website:  https://openfoam.org
    \\  /    A nd           | Version:  7
     \\/     M anipulation  |
\*---------------------------------------------------------------------------*/
FoamFile
{
    version     2.0;
    format      ascii;
    class       volScalarField;
    location    "0.01";
    object      T;
}
// * * * * * * * * * * * * * * * * * * * * * * * * * * * * * * * * * * * * * //

dimensions      [0 0 0 1 0 0 0];

internalField   nonuniform List<scalar> 
814
(
294.378852801
294.549144662
295.518256821
294.697623413
294.986597847
296.518586482
294.969780695
295.33804752
297.16926711
295.766599703
297.279526773
312.032166251
297.250412428
301.37276943
337.781871217
299.52331997
306.862199619
355.721282362
302.821483974
313.878796023
371.097370038
307.477183017
322.524563694
385.252006252
314.152515732
333.309404818
399.511231095
323.420089921
346.353351961
414.306352486
335.688388174
361.669322822
430.045610812
351.072460848
379.100511391
446.954369736
369.350649619
398.325447622
464.83384379
390.109856821
419.035378433
483.389279668
413.061392791
441.282293401
503.020514798
438.210206745
465.444719687
524.565567713
465.814937154
491.988932525
548.64479336
496.263670718
521.416679686
575.856001352
529.693958525
553.915174887
606.381219249
565.976794618
589.391115761
640.132128165
604.72639184
627.430649852
676.672082089
645.484487673
667.512227095
715.35357801
688.049698151
709.428749061
755.920801206
732.300577201
752.993160272
798.033235927
778.137841648
798.065454091
841.458290645
825.038835256
844.051454552
885.45501514
871.987784043
889.870161203
928.784032999
917.776237632
934.303139994
970.198222616
961.364833456
976.340895715
1008.77734372
1002.55167684
1015.86991379
1044.65025914
1042.27403147
1053.94448846
1079.11276292
1083.14938025
1093.26619302
1115.05780714
386.278897573
557.225446253
557.612277998
545.884158204
537.353713041
534.79179518
537.711351557
544.676591098
554.661844079
566.444312876
578.98796434
593.021449704
609.726506808
629.605664374
653.180718342
680.600506225
711.736690708
746.031458327
782.639193457
821.177713782
861.076001067
901.990799634
943.007120789
982.675143752
1019.71469566
1053.33017342
1084.02459328
1113.45508501
1144.76517487
299.428724857
298.641938303
298.65266547
298.526120965
298.374119871
298.27144421
298.174470972
298.107096653
298.032186948
297.971436351
297.917983067
297.874934672
297.840039925
297.812098433
297.791551874
297.778361404
297.766976802
297.756791201
297.628586786
295.322484385
309.278728334
309.034687597
310.001764539
307.938509027
306.780311558
305.438054457
305.013669984
304.57309598
304.434170062
304.246712841
304.173017756
304.077905861
304.033432521
303.987918218
303.962003791
303.943802271
303.925980186
303.907317573
303.471568259
297.445418707
348.959967439
320.724753641
324.137218394
319.304201645
316.405187704
312.982100769
311.595795067
310.508937082
310.203205583
309.871168312
309.794366927
309.670177309
309.641123239
309.599058003
309.585161901
309.575659101
309.560974793
309.540687668
308.748360916
299.651091266
553.09184833
437.688623526
390.284413103
344.62404654
335.740291016
326.099704771
321.986987914
319.144318058
318.265928271
317.630970442
317.532183873
317.387323326
317.397547381
317.380569351
317.396751333
317.413535895
317.4142948
317.39969223
316.05437054
304.343159901
1349.57893942
2500
2500
772.672359351
513.082863291
388.845834201
347.157844789
332.709879167
328.847099034
327.282657881
326.995387869
326.814190886
326.877137332
326.911445029
326.975617997
327.039308484
327.07444636
327.077591777
325.103579317
311.213692411
2500
2500
2500
1306.52231701
742.554047885
481.90284461
386.859767721
352.834938558
342.518906628
338.781022292
337.81673529
337.469347814
337.552143063
337.652756516
337.77405464
337.900607393
337.989708993
338.022879093
335.484293781
319.981890247
1227.32912996
1904.17033722
1896.15858565
1791.83671
929.453155037
576.506349209
433.086765785
379.24520545
359.917448104
352.378883052
349.730381294
348.803135625
348.752428648
348.892592313
349.061470203
349.252622738
349.405331972
349.472587459
346.528565511
330.051055849
1138.79036928
1900.1902524
2064.35385324
2027.27107178
1076.25822631
662.632425845
482.809756008
411.327625052
381.717945298
368.669978571
362.749461325
360.372375194
359.810037252
359.877756713
360.055496949
360.29266077
360.499611879
360.591231653
357.431183417
340.82326573
1059.84679236
1862.38975157
2158.58023414
2188.54505111
1197.63833751
739.717649883
530.89304828
448.639403659
408.752429731
388.457699294
377.175394401
371.953371381
370.198538123
369.954466476
370.066318762
370.311433034
370.544460964
370.640998264
367.465701424
351.909499466
997.217148258
1813.69087253
2213.97972441
2311.60507481
1287.27010208
802.861959773
574.976037484
490.942301761
441.865662231
412.542333533
393.396414949
383.520008389
379.607003223
378.678339799
378.613769415
378.816869588
379.039124007
379.121243466
376.144149694
363.148954946
949.609440504
1759.95256863
2246.69702873
2396.76127006
1367.61557448
856.547897986
617.891083785
534.344925554
481.18180341
441.330940563
411.609170774
395.093798032
387.919035132
385.853199149
385.479630787
385.590620731
385.76943216
385.826864184
383.266832508
374.549576585
914.557632027
1702.93697083
2263.08562957
2451.37604798
1437.22803513
900.822654281
661.764347646
578.731571248
523.238581148
474.520485081
431.659868767
406.581514181
395.125972407
391.496008442
390.686859062
390.667696075
390.783060893
390.818655662
388.88273431
386.143452429
887.858757461
1644.21346753
2265.67325384
2491.00560038
1487.7690563
935.417247656
706.849165174
624.169489046
565.121728926
509.613708358
452.858588401
417.69496111
401.24882877
395.761622065
394.429931749
394.262143175
394.309028937
394.337199519
393.208634528
397.839977239
865.558745765
1585.04618136
2255.87552184
2519.47790855
1518.21261835
963.540127297
752.909234363
670.26001126
605.902221945
541.894910628
474.007109443
428.01083506
406.31191961
398.869878432
396.990289412
396.676152326
396.661945577
396.704562854
396.539942333
409.403413132
851.752727163
1519.18813936
2233.21991544
2539.31239171
1529.2854224
990.10402996
800.086936763
716.255453
644.27671265
570.3221166
493.809643013
437.140310112
410.353382654
401.055812672
398.664912647
398.222634952
398.162153035
398.24380542
399.17451059
420.487666282
846.816417207
1453.39252976
2197.45902858
2555.80924777
1528.85434035
1019.72294297
848.858371857
761.321332067
679.136113861
594.251181131
511.045098101
444.792037814
413.447513518
402.540520778
399.719508147
399.175527926
399.085772678
399.230528209
401.371063802
430.751272876
849.057028154
1393.29755547
2149.04666357
2557.8993283
1527.09668333
1055.40919026
899.650645222
804.757880892
709.731515641
613.63170044
524.300693974
450.81160676
415.704917264
403.513716893
400.365808116
399.747851721
399.644034926
399.875809302
403.351187092
439.916732533
857.903372763
1349.04648877
2097.77219566
2540.64082839
1535.04136365
1099.59196456
952.992719053
846.2834351
735.864057877
628.728582205
533.907900658
455.196002861
417.251942868
404.125783685
400.757290074
400.090143862
399.983718866
400.333483687
405.250431725
447.96980522
873.169640813
1327.8267649
2051.35576772
2506.4439948
1561.42305085
1154.27052748
1009.74243735
886.139853312
757.931608105
640.067550147
540.398660574
458.023460474
418.202807782
404.48553974
400.996137893
400.300279401
400.198991353
400.687035118
407.020604423
455.127124852
894.268519998
1322.91737102
2008.92393371
2465.04534292
1611.90415257
1221.28458502
1071.12881862
925.13764273
776.784355627
648.341379796
544.335412715
459.41296064
418.645088464
404.663916707
401.145196751
400.437288997
400.344597806
400.974433497
408.577577634
461.192237063
920.211107888
1328.54071585
1970.01275589
2422.88056655
1693.72338918
1303.37751003
1139.02900099
964.525805596
793.408189753
654.151250559
545.988515174
459.542412602
418.647611156
404.71018439
401.240630559
400.534376822
400.450140516
401.213732631
409.88650494
466.179344349
949.517263546
1339.27878525
1933.48219539
2382.48475653
1814.64230189
1404.50340305
1215.84761096
1005.51144409
808.429225042
657.685260613
545.473820484
458.609420032
418.282143827
404.658383674
401.302063516
400.608439282
400.530883497
401.41483147
410.971651171
470.326031427
981.157462747
1351.32516508
1897.38477978
2343.27409378
1979.82002932
1530.26007359
1304.04397823
1048.53674628
821.892684664
658.856156861
542.940489569
456.767622991
417.616703729
404.531096908
401.339325608
400.666667785
400.594115255
401.584296585
411.8773622
473.854047052
1013.89492064
1361.93299537
1860.33787045
2305.11093625
2185.11856499
1690.31929535
1406.71326536
1093.50648022
833.183799616
657.607569265
538.578973261
454.137531425
416.720300939
404.347333135
401.357341821
400.711638995
400.643017604
401.727230417
412.650162424
476.961126761
1047.04129007
1370.52098441
1822.25643327
2260.56166258
2345.33466669
1895.27789334
1528.63457228
1139.69051663
841.540596639
653.978593562
532.410722186
450.946965848
415.653538338
404.11961648
401.358527034
400.744196979
400.679489914
401.848567306
413.331906398
479.80656893
1079.4178739
1375.03717547
1780.85619522
2203.03687311
2409.14115334
2145.70064559
1677.75977814
1186.61896825
846.548142423
647.460254316
524.825299963
447.417542686
414.467448871
403.85781383
401.343756222
400.764866068
400.705440748
401.95380972
413.958504105
482.51278641
1109.00127289
1375.53643081
1736.57123648
2132.38132079
2410.26538562
2395.72058375
1865.08409865
1233.32437723
846.043352559
638.34869557
516.557446034
443.641262588
413.204855152
403.571686335
401.313160968
400.773979958
400.722495238
402.048521153
414.560172287
485.174156304
1134.46628847
1371.66798076
1689.29459613
2049.94796084
2357.21748278
2491.73031682
2080.13709504
1270.04707834
840.900906378
627.999858254
507.937225993
439.734934851
411.904268391
403.270623952
401.267092581
400.771752128
400.731809448
402.137748335
415.161961395
487.864317137
1155.38602475
1363.5252496
1639.62914651
1959.54263008
2265.51750272
2480.89724703
2275.49782527
1291.74247162
834.223585439
617.154620342
499.079383258
435.810914747
410.605949915
402.961252246
401.207008683
400.758555244
400.734836092
402.226144253
415.786754323
490.645063487
1173.28108309
1352.01850297
1589.02827642
1866.89958022
2155.31159506
2414.13166329
2369.65783476
1306.2081862
825.741432684
605.283459153
490.14992776
431.875608475
409.324309997
402.645699391
401.134535064
400.735651714
400.733295685
402.317897045
416.456239284
493.569966862
1190.72052702
1342.82770972
1543.06123705
1782.72171624
2050.31333877
2326.35055518
2338.65466967
1300.59314133
810.368246512
591.117136657
480.697879412
427.836602961
408.030391359
402.321052829
401.049907244
400.703582798
400.727992923
402.419953475
417.194906071
496.693435046
1211.31035232
1341.24618307
1512.63458723
1723.45365649
1974.67903126
2252.01073267
2189.53497486
1246.35042145
779.439648296
571.953590285
469.873215974
423.49273151
406.684416169
612.484650089
654.39193511
541.888533692
628.324999742
523.115387215
632.950610864
526.787949057
657.567585762
537.010944308
679.400507864
550.21826012
693.473410902
563.395512381
700.084107982
577.403522747
705.274694875
595.293646133
718.593902772
616.550867967
738.565298455
640.961613559
764.850952454
668.176055137
797.624710379
697.944149343
838.02303847
729.489670776
888.749127021
758.585057387
950.940304254
782.496755504
1029.10045896
800.359694108
1073.88920743
815.345206949
1092.36114318
828.363333651
1105.89145141
840.352890474
1118.30579825
851.813663583
1130.47661571
863.06195724
1142.66784421
874.323331631
1154.99852702
885.767138847
1167.53998262
897.522543405
1180.33769964
909.695392025
1193.41898473
922.373659787
1206.79605783
935.644057489
1220.47248313
)
;

boundaryField
{
    inletfuel
    {
        type            fixedValue;
        value           uniform 294;
    }
    inletair
    {
        type            fixedValue;
        value           uniform 294;
    }
    outlet
    {
        type            zeroGradient;
    }
    axis
    {
        type            empty;
    }
    leftside
    {
        type            fixedValue;
        value           uniform 294;
    }
    burnerwall
    {
        type            zeroGradient;
    }
    front
    {
        type            wedge;
    }
    back
    {
        type            wedge;
    }
    procBoundary0to1
    {
        type            processor;
        value           nonuniform List<scalar> 
27
(
1130.58620633
1139.34808483
1158.23226668
1184.02312042
401.935238285
400.908696675
400.618614638
400.675397013
402.497020692
417.978114653
499.996159905
1241.80338682
1355.12941509
1508.04517111
1704.02191715
1950.60706023
2218.51903693
1936.11275078
1128.36265679
726.529037869
545.563497076
457.09260317
418.690335314
401.935238285
405.236984853
949.457607203
1234.21304034
)
;
    }
}


// ************************************************************************* //
