# Probe 0 (1e-08 0 0.2)
# Probe 1 (1e-08 0 0.3)
# Probe 2 (1e-08 0 0.4)
#             Probe                   0                   1                   2
#              Time
