/*--------------------------------*- C++ -*----------------------------------*\
  =========                 |
  \\      /  F ield         | OpenFOAM: The Open Source CFD Toolbox
   \\    /   O peration     | Website:  https://openfoam.org
    \\  /    A nd           | Version:  7
     \\/     M anipulation  |
\*---------------------------------------------------------------------------*/
FoamFile
{
    version     2.0;
    format      ascii;
    class       volScalarField;
    location    "0";
    object      G;
}
// * * * * * * * * * * * * * * * * * * * * * * * * * * * * * * * * * * * * * //

dimensions      [1 0 -3 0 0 0 0];

internalField   uniform 0;

boundaryField
{
    inletfuel
    {
        type            MarshakRadiation;
        T               T;
        emissivityMode  lookup;
        emissivity      uniform 1;
        value           nonuniform 0();
    }
    inletair
    {
        type            MarshakRadiation;
        T               T;
        emissivityMode  lookup;
        emissivity      uniform 1;
        value           nonuniform 0();
    }
    outlet
    {
        type            MarshakRadiation;
        T               T;
        emissivityMode  lookup;
        emissivity      uniform 1;
        value           uniform 0;
    }
    axis
    {
        type            empty;
    }
    leftside
    {
        type            MarshakRadiation;
        T               T;
        emissivityMode  lookup;
        emissivity      uniform 1;
        value           uniform 0;
    }
    burnerwall
    {
        type            MarshakRadiation;
        T               T;
        emissivityMode  lookup;
        emissivity      uniform 1;
        value           nonuniform 0();
    }
    front
    {
        type            wedge;
    }
    back
    {
        type            wedge;
    }
    procBoundary1to0
    {
        type            processor;
        value           uniform 0;
    }
}


// ************************************************************************* //
