/*--------------------------------*- C++ -*----------------------------------*\
  =========                 |
  \\      /  F ield         | OpenFOAM: The Open Source CFD Toolbox
   \\    /   O peration     | Website:  https://openfoam.org
    \\  /    A nd           | Version:  7
     \\/     M anipulation  |
\*---------------------------------------------------------------------------*/
FoamFile
{
    version     2.0;
    format      ascii;
    class       volScalarField;
    location    "0.07";
    object      alphat;
}
// * * * * * * * * * * * * * * * * * * * * * * * * * * * * * * * * * * * * * //

dimensions      [1 -1 -1 0 0 0 0];

internalField   nonuniform List<scalar> 
815
(
0.000275826554447
0.000275050963279
0.00027542801594
0.000318337603873
0.000318729412247
0.000319084227564
0.000364033350568
0.000363887831274
0.000364553128877
0.000397616683339
0.000398343569423
0.000398925284706
0.000409403779775
0.000409193820662
0.000409508447664
0.000392166222573
0.000392521975149
0.000393204076938
0.000357070109093
0.000356697053559
0.000357133465473
0.000300915274336
0.00030101228286
0.000300915309016
0.000225124757789
0.000224805729695
0.000224367085075
0.000163883331636
0.000163792865315
0.000163398350094
0.000155039442306
0.000154938523083
0.000154622480609
0.000205503962101
0.000205368995145
0.000204934113406
0.000279383327436
0.000279187363344
0.000278483648173
0.000338441265119
0.000337990923741
0.000337120169766
0.000376611422773
0.000376300179854
0.000375438270004
0.00040069112799
0.000400212594845
0.000399413043272
0.000415108849468
0.00041477750644
0.000414126412713
0.000423530527292
0.000423289909852
0.000422791575691
0.000427647888393
0.000427498876052
0.000427162537455
0.000428421381687
0.000428355251474
0.000428165400706
0.000426304330805
0.000426362834529
0.000426311342119
0.000422056163034
0.000422022709853
0.000422058237375
0.000415337121543
0.000415425122512
0.000415554732811
0.000407081512705
0.00040710272665
0.000407268347526
0.000397053805465
0.000397136775203
0.00039735134963
0.000385651284772
0.000385745726956
0.0003859785295
0.000371538839058
0.00037162722307
0.000371870712137
0.000345839041273
0.000345896170814
0.000346196867458
0.000268427976725
0.000268308020831
0.000268731884446
0.000130902846136
0.000130734826565
0.000131009391207
0.000124163775369
0.000124266755278
0.000124350623146
0.000275527329761
0.000319759207245
0.000365362092273
0.000399875552026
0.000409785396094
0.00039400096393
0.00035749029146
0.000300909856158
0.000223808060471
0.000162928857894
0.000154241104253
0.000204373224139
0.000277514143971
0.000335879099091
0.000374225626798
0.000398261696137
0.000413182111949
0.000422063536211
0.000426661451746
0.000427881213219
0.000426237797825
0.00042210345662
0.000415757571024
0.000407539161136
0.00039770737908
0.000386379490162
0.00037231879055
0.000346803587494
0.000269761003369
0.000131694432209
0.000124420885923
8.78462307309e-05
6.95382664586e-05
9.70586550421e-05
0.000157451989947
0.000166471091676
0.000148434163474
0.000162352324036
0.000276279284321
0.000275931276562
0.000271629514259
0.000259623888448
0.000236746452692
0.000203649755018
0.000161788541234
0.000123050454071
9.81972081321e-05
8.76793739174e-05
8.69056732175e-05
8.82122238344e-05
8.40107654111e-05
7.32076038107e-05
7.44764164628e-05
0.000108152127349
0.000134947753775
0.000125944471102
0.00012210047603
0.000151709363066
0.000320664049265
0.000320199811964
0.000315467344022
0.000300075307015
0.00026772204175
0.000217740511162
0.00016108563497
0.000117299509995
9.41465364688e-05
8.46163801195e-05
8.10756024879e-05
7.89673502509e-05
7.50448387514e-05
7.28703006477e-05
8.42884914506e-05
0.000105580994185
0.000108061609603
9.92644499398e-05
0.000104841547397
0.000140284872654
0.000367125227648
0.00036747585179
0.000359780822064
0.000336408129517
0.000291778890776
0.000229584727586
0.000167482418881
0.000124234201049
0.00010163748329
9.08901543698e-05
8.53056362169e-05
8.18554407397e-05
7.99869125882e-05
8.18643203291e-05
9.03923755107e-05
9.66926377232e-05
9.29935588276e-05
8.92221363149e-05
9.71492680482e-05
0.000131394338472
0.000401019266219
0.000399357321247
0.000388082132334
0.000359786305922
0.000310884352783
0.00024801106593
0.000188245895725
0.000145740975174
0.000121491642403
0.000108738202156
0.00010157876297
9.68522318741e-05
9.38426218595e-05
9.37552048086e-05
9.59510749197e-05
9.62204539819e-05
9.33105502457e-05
9.26555206425e-05
0.000100008393941
0.000129048423176
0.000410219212272
0.000408069975632
0.000397504082344
0.000372671354345
0.000331224563872
0.000278451792969
0.000225808267221
0.000183699138839
0.000155680537171
0.000138212085874
0.00012629593159
0.000117593694146
0.000111705839454
0.000108362828332
0.000106844726638
0.00010567483836
0.000104649440635
0.000106047045143
0.000113100992295
0.000136219070248
0.000395277313615
0.000395578031213
0.00039015859928
0.000374505869549
0.000346497827693
0.000308351983347
0.000265742673458
0.000225580114983
0.000192534286929
0.000167475326898
0.000148992249998
0.000135808607738
0.000126762239112
0.000121424572578
0.000119280096097
0.000119601642063
0.000121602710223
0.000126012649204
0.000134046561494
0.000151444129099
0.000358535696042
0.000360148176163
0.000359311217348
0.000352731224334
0.000336986593728
0.000311178819826
0.00027704849332
0.000239232629045
0.000204299637761
0.000175938884335
0.000154814958902
0.000140587269772
0.000132580209832
0.000130102624787
0.00013225086195
0.000137708557818
0.000144906078893
0.000152974595196
0.000161508361961
0.000169433512165
0.000300565574801
0.000299773851882
0.000296770897414
0.000289666577018
0.000276562213819
0.000256631189418
0.000230879782509
0.000202917141323
0.000177211431289
0.000156649982323
0.000142985872044
0.000136876852462
0.000137873026091
0.000144715757579
0.000155203421264
0.000166280900302
0.000176223579747
0.000185586624759
0.000193186123216
0.000184620959701
0.000222653999335
0.000220275982799
0.000215839597566
0.000208438096805
0.000197626461121
0.000183881029349
0.000168702521385
0.000154305200745
0.000143210712962
0.00013771700639
0.000139648963255
0.000149363356645
0.000165214482695
0.000183983270219
0.00020156765328
0.000214260357077
0.00022200136501
0.000228155704446
0.000230016702949
0.000198953269817
0.000161884552837
0.000159626878235
0.000156105870827
0.000151360545246
0.000145810187251
0.000140336025799
0.000136194295732
0.000135033121902
0.000138915759406
0.000149722821243
0.000168121207523
0.000192658525975
0.000219930752849
0.000245635482476
0.000265789990926
0.000278026677419
0.000283803719894
0.000286235557957
0.00028113962544
0.000239644580701
0.000153595615877
0.000152563169098
0.000151234162687
0.000149647698365
0.000148113383577
0.000147422395449
0.000149342702934
0.000156303773574
0.0001704545108
0.000192682337897
0.000221874679907
0.000254990180149
0.00028794319199
0.000316933542852
0.000339270065475
0.000353970659056
0.000362296106305
0.000365856207964
0.000360016909223
0.000320034799654
0.000203373035298
0.000201602689947
0.000199094084653
0.000195708564918
0.000192038457645
0.000189782863576
0.000191701295414
0.000200730756725
0.000218579239865
0.000245121682661
0.000278493998575
0.000315673973145
0.000353254107052
0.000388242585717
0.000418450068176
0.000442824329954
0.00046112337212
0.000473190319574
0.000473174898984
0.000434734902621
0.00027553491695
0.000271402168636
0.000265495775709
0.000257830697855
0.000249339591362
0.000242319099888
0.000240134465766
0.000246150294109
0.000262369145901
0.000288909094091
0.000324282699795
0.000366027337162
0.000411330888138
0.00045752975821
0.000502364407691
0.000543968562609
0.000580266988173
0.000607998933885
0.00061557563046
0.000562580395972
0.000333333551576
0.000327870392998
0.000319955466786
0.000309540592733
0.00029741372593
0.000285859884799
0.000278580943685
0.000279704044854
0.000292320418809
0.000317665647542
0.000355260825059
0.000403552173848
0.000460423425469
0.000523464610453
0.000590017675051
0.000656848936073
0.000719002042923
0.000767531325238
0.000778789871896
0.000686400767086
0.000371628401116
0.000365984309019
0.000357588496582
0.000346145247288
0.000332042495645
0.000317219776674
0.00030543680183
0.000301535810132
0.000309945137341
0.000333504478214
0.000373375555735
0.000429533593607
0.000501056990169
0.000585976805048
0.000680937563798
0.000780495892935
0.000875125926914
0.00094663503318
0.00095353325733
0.000797537655214
0.000395884506683
0.000390699776463
0.000382709060547
0.000371321343794
0.000356449767627
0.000339504163939
0.00032398652014
0.000315150655042
0.000318688682218
0.00033935740713
0.000380628085209
0.000444945663183
0.000533466177883
0.000645007241235
0.000774993325616
0.000914237786783
0.00104616276915
0.00114012859223
0.00113336938126
0.000896693080892
0.000411203353415
0.000406792126926
0.000399683478658
0.000389012072248
0.000374217879217
0.000356099799925
0.000337662183396
0.000324207567901
0.000322402127915
0.000338998665739
0.000380380693396
0.000452602819864
0.000560152539489
0.000703066607364
0.000874422916856
0.00105882535769
0.00122965271827
0.00134143366486
0.00131183418541
0.000988277020999
0.000420549917529
0.000417061097918
0.000411083385822
0.000401526749948
0.000387415035513
0.000368942380626
0.000348471667712
0.000331006731605
0.000323782847721
0.000335372192118
0.000375514792972
0.000455197540318
0.000583901939984
0.000763225630276
0.000981818682635
0.00121464020263
0.00142229216387
0.0015444421254
0.0014843790557
0.00107448336067
0.000425639451968
0.00042312188466
0.000418378954895
0.00041014835366
0.000397116142915
0.000378946758871
0.000357345139327
0.000336799164498
0.000324700014895
0.000331113980563
0.000369409798436
0.000456877490827
0.000609827446075
0.000831126032288
0.00110150107343
0.00138255483214
0.00162107016051
0.00174471206122
0.00164829043809
0.00115589983244
0.000427332368358
0.000425759351612
0.000422249658439
0.000415417503854
0.000403695060958
0.000386328430458
0.000364435708317
0.000341913320199
0.000326031347847
0.000328038072532
0.000365132716533
0.000462209608042
0.00064393561766
0.000912845347019
0.0012370494172
0.00156230876947
0.00182312443963
0.00193962110687
0.00180291924585
0.00123250254757
0.000426126671317
0.000425421210739
0.000423065139786
0.000417590952157
0.00040726112412
0.000391026985851
0.000369548580069
0.000346191372587
0.000328034282583
0.000327414908108
0.000365687930361
0.000476548547498
0.000693593981469
0.00101522024561
0.00139201076662
0.00175389818915
0.00202659973454
0.00212730131279
0.00194717365439
0.00130309998097
0.000422346884985
0.000422393811866
0.000421053107308
0.00041680666532
0.000407828385754
0.00039289840304
0.000372383386903
0.000349297921465
0.000330670223248
0.000330182643317
0.00037406953402
0.000505961739857
0.000767060509897
0.00114481935585
0.00156880756299
0.00195650278749
0.00222958679637
0.00230589512074
0.00207938669416
0.00136581969627
0.000416305217187
0.000416950442577
0.000416437698546
0.000413229844535
0.000405482136081
0.000391925773317
0.000372817528548
0.000351073801197
0.000334062178464
0.000337593124218
0.000394127784477
0.000558162392778
0.00087342197117
0.00130695684622
0.00176811994283
0.00216826910053
0.00242935523558
0.0024727088437
0.00219652897107
0.00141771908149
0.00040829047139
0.00040938052399
0.000409496207842
0.000407119350505
0.000400453520747
0.000388303093179
0.000371011308952
0.000351751678918
0.000338960905374
0.000352025050669
0.000431671371355
0.000642938022319
0.00102079366252
0.00150374485702
0.00198774094383
0.00238476702769
0.00262074923078
0.00262212187349
0.00229246988895
0.0014535802947
0.000398614032141
0.000399992298983
0.000400550257662
0.00039881904706
0.000393120656005
0.000382452124219
0.000367486129022
0.000352190522055
0.000347301028736
0.000377967771485
0.000495707638287
0.000771222125836
0.00121347991953
0.00173189656194
0.00222037986877
0.00259717355484
0.00279425801637
0.00274386203372
0.00235666552841
0.00146527200645
0.000387374892235
0.000388939633009
0.000389819428574
0.000388630954712
0.000383889227089
0.000374930032211
0.000363106175182
0.00035405514476
0.000362705364979
0.000422830171243
0.000598131610554
0.000950093768886
0.00144638795127
0.00197918338212
0.00245110396716
0.00278916479531
0.00293204641913
0.00281850164764
0.00236925988437
0.00143800008948
0.00037341246661
0.000375211619749
0.000376473860898
0.000375928747996
0.00037235997394
0.000365644243108
0.000358360931299
0.000359204895286
0.000389855166328
0.000495786313057
0.000747243354991
0.00117251368569
0.00169920233904
0.00222030897608
0.00265182857741
0.00293019227777
0.00300128840479
0.0028119169146
0.00229861210275
0.00135273018554
0.000348250776013
0.000350813721396
0.000353063758542
0.00035378439361
0.00035206159198
0.00034853417098
0.000347753910475
0.000363391083251
0.000427077534626
0.000596586399662
0.000928861826206
0.00140323122607
0.0019263792849
0.00240449419621
0.00276793969124
0.00296240539295
0.00294214353419
0.00266575611953
0.00209524351243
0.00118453112086
0.000272158011594
0.000276652679754
0.000281120239851
0.000284118059976
0.000284822331242
0.000284530834199
0.000290164507219
0.0003228064049
0.000429098743174
0.000670243534438
0.00106309093986
0.00154473285047
0.00202312895265
0.00242233387258
0.00268655999423
0.00277215732307
0.00264622758358
0.00228753958741
0.00169774243052
0.0009151686819
0.000133215076171
0.000135975058617
0.00013849747516
0.000139722048056
0.000139091596722
0.000137666765626
0.000141086871972
0.000169113113597
0.000275016284807
0.000528744444052
0.000917983809305
0.00135062708613
0.00174035036504
0.00202726947124
0.00217192430061
0.00214848966553
0.00194771508915
0.00158067082622
0.00109321554364
0.000583910484508
0.00012452917585
0.000124586354098
0.000124231028617
0.000123157529496
0.000121281835177
0.000119083283766
0.000118584481084
0.000126723553939
0.000164206997416
0.000268737255859
0.000455830491373
0.000684123023453
0.000892680865967
0.00103574104078
0.00108809206547
0.00104447062095
0.000914330306436
0.000725706494709
0.000515708374987
0.000339190479938
0.000121697094035
5.75935314506e-05
0.000118687253621
5.94074802362e-05
0.000116353751442
6.2214197375e-05
0.000116743305352
6.65376699363e-05
0.000121111350307
7.33266467857e-05
0.000129097287382
8.36678058265e-05
0.000137274225574
0.000100035346379
0.000131814311682
0.000126940424975
0.000112325217427
0.000208491039284
7.97698218059e-05
5.63668034473e-05
8.58374654855e-05
6.37395382147e-05
9.92584488743e-05
7.07592100473e-05
0.000115561510741
7.74242372678e-05
0.000130999908254
8.34949140896e-05
0.000144370509842
8.9010348761e-05
0.00015569553274
9.40221807969e-05
0.000166080219799
9.87343232583e-05
0.00017641064543
0.00010321324937
0.00018688162033
0.00010746976891
0.000197468640693
0.000111506559953
0.000207798948232
0.000115300803078
0.000217620908236
0.000118808743708
0.00022640972056
0.000121981670291
0.000233608244585
0.000124772060077
0.000238464185862
0.000127118855534
0.000239568173154
0.000128971087592
0.000235810338865
0.000130289972142
0.0002254451054
0.000131077914752
0.000207465960955
0.000131363650189
0.00018656530125
0.000131229420349
0.000177681431246
0.000130608664881
0.000206642650948
0.000128079294663
)
;

boundaryField
{
    inletfuel
    {
        type            calculated;
        value           nonuniform 0();
    }
    inletair
    {
        type            calculated;
        value           nonuniform 0();
    }
    outlet
    {
        type            calculated;
        value           nonuniform List<scalar> 
26
(
0.000360334234411
0.000360440470597
0.000360669882197
0.000360989458651
0.000361688345731
0.000363141692561
0.000365117644762
0.000367551102422
0.000370322724693
0.000373245264819
0.000375973416219
0.000377726550351
0.000376846778598
0.000371729979748
0.000362945575827
0.000352070449123
0.000340133803981
0.000327704068291
0.000315153695663
0.000302767440373
0.000290827286049
0.00027968691275
0.000270128052349
0.000265252744255
0.000286612176871
0.000308383468644
)
;
    }
    axis
    {
        type            empty;
    }
    leftside
    {
        type            compressible::alphatWallFunction;
        Prt             0.85;
        value           nonuniform List<scalar> 
32
(
0
0
0
0
0
0
0
0
0
2.12872129496e-06
4.25318617866e-06
6.18712140032e-06
8.01258829122e-06
9.69287505212e-06
1.12472202901e-05
1.26866601554e-05
1.40647140291e-05
1.53972282767e-05
1.66855645989e-05
1.79302595871e-05
1.9124181529e-05
2.02543418381e-05
2.13047832386e-05
2.22585859956e-05
2.30924147977e-05
2.37816500914e-05
2.43005072015e-05
2.46285306612e-05
2.47587234952e-05
2.47196839081e-05
2.45307493545e-05
2.38218638079e-05
)
;
    }
    burnerwall
    {
        type            compressible::alphatWallFunction;
        Prt             0.85;
        value           nonuniform 0();
    }
    front
    {
        type            wedge;
    }
    back
    {
        type            wedge;
    }
    procBoundary1to0
    {
        type            processor;
        value           nonuniform List<scalar> 
27
(
0.000246829662001
0.000247103216504
0.000246958291455
0.000246906033437
0.000114208116417
7.60246092581e-05
8.0751092803e-05
0.000149365975937
0.000205332487155
0.000182008509636
0.000170748627677
0.00024643222667
0.000244237302529
0.000239360862346
0.000229944932609
0.000214033182238
0.000190549778672
0.000160439772736
0.000132009961395
0.000110541414283
9.74133598378e-05
9.53006526032e-05
0.000103563659491
0.000109102748795
0.000109102748795
0.000124188446035
5.62636062857e-05
)
;
    }
}


// ************************************************************************* //
