/*--------------------------------*- C++ -*----------------------------------*\
  =========                 |
  \\      /  F ield         | OpenFOAM: The Open Source CFD Toolbox
   \\    /   O peration     | Website:  https://openfoam.org
    \\  /    A nd           | Version:  7
     \\/     M anipulation  |
\*---------------------------------------------------------------------------*/
FoamFile
{
    version     2.0;
    format      ascii;
    class       volScalarField;
    location    "0.07";
    object      dQ;
}
// * * * * * * * * * * * * * * * * * * * * * * * * * * * * * * * * * * * * * //

dimensions      [1 2 -3 0 0 0 0];

internalField   nonuniform List<scalar> 
815
(
0.00259128854273
0.00791052308607
0.0137815312439
0.00390588578517
0.0120433701245
0.0212325799644
0.00357231647329
0.010618520245
0.0173790456373
0.00187539966867
0.00559302929213
0.00917042453374
0.00110931597009
0.00330141238585
0.00541420695253
0.000688636843941
0.00205293886633
0.00337103569512
0.000428726398409
0.00127540484585
0.00209416970147
0.000249997862075
0.000744447806762
0.00122011994791
0.000132178367043
0.000392687538275
0.000642271098716
6.34573791525e-05
0.000188511816752
0.000307661950126
2.9922412964e-05
8.88749870804e-05
0.000145214395832
1.48562716311e-05
4.42083663739e-05
7.24841409741e-05
8.17892825088e-06
2.43794641239e-05
4.00884818981e-05
4.92892715485e-06
1.47034812142e-05
2.42391280534e-05
3.09796756711e-06
9.25524414915e-06
1.52901084413e-05
1.97259552305e-06
5.8944214557e-06
9.7528798428e-06
1.24912135877e-06
3.73640483597e-06
6.19259961547e-06
7.82788437288e-07
2.34297247456e-06
3.88803425495e-06
4.82660969091e-07
1.44540765773e-06
2.40113697154e-06
2.91774046498e-07
8.74163125249e-07
1.45349106659e-06
1.72608250686e-07
5.17329264103e-07
8.60747631099e-07
9.98098764838e-08
2.99091490255e-07
4.9788439247e-07
5.63090257672e-08
1.68805508183e-07
2.81170645435e-07
3.1089895482e-08
9.3189931562e-08
1.55276100932e-07
1.6810588727e-08
5.04050213529e-08
8.40321756663e-08
8.97932119595e-09
2.69269913383e-08
4.49061725661e-08
4.81602827737e-09
1.44432677166e-08
2.40920828925e-08
2.71942154875e-09
8.15647968118e-09
1.36055995831e-08
1.90831730527e-09
5.72791090704e-09
9.55048446896e-09
2.30383175973e-09
6.92565105843e-09
1.15455183449e-08
2.33797152803e-09
7.0201169144e-09
1.17136502477e-08
0.0175137683222
0.027451751473
0.0202864362715
0.010734974782
0.00633669436716
0.00395293390557
0.00245635707535
0.00142959406197
0.000750470515988
0.000358444593994
0.000169382497648
8.4974739088e-05
4.72032248808e-05
2.86400234169e-05
1.81201990257e-05
1.15831740719e-05
7.37198531961e-06
4.63706499254e-06
2.86828319819e-06
1.73870537458e-06
1.03078522358e-06
5.9674702568e-07
3.37335268637e-07
1.86419649845e-07
1.00971148178e-07
5.39902342815e-08
2.89773293588e-08
1.63629241072e-08
1.14648800004e-08
1.38280277774e-08
1.40612878797e-08
0.0992407235874
0.0346549026752
0.00676296088655
0.000837296822279
0.000138327134441
5.77963273357e-05
3.40573138434e-05
0.0738625027146
0.14972904382
0.294755269266
0.567036099281
0.780060391349
0.726874374769
0.627241842075
0.490894726864
0.35289516975
0.24591256206
0.173666063451
0.119541800648
0.0756793192486
0.0392837442531
0.0134568710303
0.00284381160505
0.000497083607183
0.000158183858762
0.000102030308777
6.41386909001e-05
0.119039259684
0.218935151006
0.26390487382
0.286927034389
0.282860713757
0.252961851707
0.204996318337
0.154511964785
0.1151123984
0.0882961088834
0.0677601338373
0.0490796911543
0.0311040501148
0.0151235069406
0.00523340391992
0.00138558711927
0.000426170989609
0.000247730556878
0.000185259791771
0.000116742905871
0.0709228763067
0.0991640389364
0.119295510488
0.127128421811
0.12153792971
0.105308436479
0.0837989933577
0.0638112138568
0.0490051401303
0.038000267547
0.0287720622317
0.0204788918543
0.0128306093402
0.00623116500946
0.00247957708928
0.000970286424019
0.000536374768054
0.000417634437568
0.000328004625864
0.000202533705553
0.0376801462024
0.0528018383628
0.0634263313153
0.0671904420085
0.0635885267032
0.0543140913007
0.0425656290981
0.031889742723
0.0237719747995
0.0177209628103
0.0129955047909
0.00916956563481
0.0059091180947
0.00324591714957
0.0017089280005
0.00104166529882
0.000805086318216
0.000685802287745
0.000543902679072
0.000331882409643
0.0223024552744
0.0314375480667
0.0379658859259
0.0402764259548
0.0379430291833
0.0320811743997
0.0248084980962
0.0182385832758
0.0132411189623
0.00961566163678
0.00695503853409
0.00498990538103
0.00350660732361
0.00237606293314
0.00169839428402
0.00136364429775
0.00118291082986
0.00101784188519
0.000803600324955
0.000489031277441
0.013969613479
0.0198376787772
0.024169432959
0.0258604869341
0.0245466732637
0.0208885659545
0.0161867994778
0.0118028355647
0.0084845616814
0.00619940832036
0.00465448853392
0.00360397561407
0.00286290955971
0.00232180181406
0.0019594462793
0.00171945785457
0.00152021552106
0.00130487496115
0.0010280586975
0.000621511070284
0.00870822093645
0.0125237319244
0.0156106738539
0.0172559526322
0.0169443422846
0.014827371651
0.011709474754
0.00863134756869
0.00630571893566
0.0047837185678
0.00381137395676
0.00315971267924
0.00269049309611
0.00233123333896
0.00205048990058
0.00182011765876
0.00161076696206
0.00138679554345
0.00109707587943
0.000656581019799
0.00504779707469
0.00721395559738
0.00894671028871
0.00989408112067
0.00983999416871
0.00886273025486
0.00735637097017
0.00584446180117
0.00464892688431
0.00379507846713
0.00318678837754
0.00272595868089
0.00235288283041
0.00204481178292
0.00179559693291
0.00159885834989
0.00143748514889
0.00127112441282
0.00101846814797
0.000598597187075
0.00263875346855
0.00374319000407
0.00461068521697
0.00508305132577
0.0050979863527
0.00472847806513
0.00414931673258
0.00354413810537
0.00301945583364
0.00258712539304
0.00222472195339
0.00192021762405
0.00167056261545
0.00147105888381
0.00131557709545
0.00119703711667
0.00110246909831
0.00100106962529
0.000821444683149
0.00049913275029
0.00125337796192
0.00175778464121
0.00214319671767
0.00235842965111
0.0024010434952
0.00231394832946
0.00215474644965
0.00196699077175
0.00177547088929
0.00158692061414
0.00140792978216
0.00124925195022
0.00111739035265
0.00101137455544
0.000926570123481
0.000860141630746
0.000804618888656
0.000738293191253
0.000612097080517
0.000369771313357
0.000594922455666
0.0008417797393
0.00104246721806
0.00117618692954
0.00124009202337
0.00124825192493
0.00121542769521
0.00115233564614
0.00106915474445
0.000977278989378
0.000887804484674
0.000808221455647
0.000741297938253
0.000685391986783
0.000637764053407
0.000597316133588
0.000559770449367
0.000511551095783
0.000420088096831
0.000243414046986
0.000301454081633
0.000435385636576
0.000554338148814
0.000646576144454
0.000706651827276
0.000735157174173
0.000735877080964
0.000714285965174
0.000678158941704
0.000635251723661
0.000591206738138
0.00054905303143
0.000510022010462
0.000473926691657
0.00044061138728
0.000409754195962
0.000378267827999
0.00033714723142
0.000267094836542
0.000145933421581
0.000169050243723
0.000249083704253
0.000325262062808
0.000389989384991
0.000437973685126
0.000467116746385
0.000478141013772
0.000473869537633
0.000458554248842
0.000436487699876
0.000410811724032
0.00038349862801
0.000355840117451
0.000328509269608
0.000301909739944
0.000275712331279
0.000247632972761
0.000211945357444
0.000159093272579
8.20235241935e-05
0.000103365264953
0.000154699380983
0.000206065076464
0.000252578687053
0.000290026901019
0.000315827806155
0.000329329381443
0.000331583979139
0.000324772077171
0.000311419921486
0.000293699540924
0.000273298731922
0.000251541924879
0.000229279602174
0.000206899772895
0.000184053680322
0.000159208495415
0.00012925748077
9.08325031189e-05
4.41924475285e-05
6.58094307107e-05
9.97435893584e-05
0.000135075594507
0.000168755068137
0.000197679831344
0.000219413246634
0.000232656739143
0.000237375258583
0.000234555341527
0.00022573573606
0.000212566893636
0.00019656810094
0.000178995227772
0.000160645539114
0.000141816114167
0.000122258449943
0.000101197362709
7.73924044027e-05
5.05938984433e-05
2.33000822179e-05
4.22924940774e-05
6.48133357685e-05
8.90831676514e-05
0.000113283934561
0.000135280629225
0.000153048220998
0.000165096971704
0.000170771974794
0.000170296876301
0.000164542306693
0.00015474604774
0.000142249096533
0.000128184971515
0.000113237370014
9.76443153647e-05
8.13368568031e-05
6.41544895124e-05
4.60682319516e-05
2.79884590773e-05
1.22454081869e-05
2.70484485271e-05
4.18604706729e-05
5.83114557554e-05
7.53836307793e-05
9.17084013057e-05
0.000105765123643
0.000116170164826
0.000121996673456
0.00012298894022
0.000119530987944
0.000112490570185
0.000102984641809
9.19919151047e-05
8.00648248231e-05
6.74100762054e-05
5.41697732159e-05
4.06386656199e-05
2.73976860578e-05
1.55312022989e-05
6.50331183957e-06
1.70836505165e-05
2.66668844832e-05
3.75945901903e-05
4.93423691188e-05
6.10981643802e-05
7.18226992049e-05
8.03950822141e-05
8.5861668677e-05
8.77091793551e-05
8.59746493199e-05
8.12005112466e-05
7.42617143022e-05
6.59467170953e-05
5.66511726842e-05
4.6577972285e-05
3.60821652771e-05
2.57525809619e-05
1.63529869008e-05
8.71947297184e-06
3.52627332319e-06
1.06044840896e-05
1.66782075358e-05
2.37641251864e-05
3.16218562951e-05
3.98082726696e-05
4.76734526185e-05
5.44039841961e-05
5.91716922444e-05
6.13779616147e-05
6.08396037968e-05
5.78464002774e-05
5.30493007925e-05
4.70077914363e-05
3.99351812493e-05
3.20712872818e-05
2.39578290699e-05
1.63139273139e-05
9.82426840763e-06
4.98074519546e-06
1.96552862031e-06
6.44781851605e-06
1.02075692007e-05
1.46817835754e-05
1.97793414457e-05
2.52820215131e-05
3.08182557861e-05
3.58518373388e-05
3.97475421976e-05
4.19426781971e-05
4.21442889232e-05
4.04739572466e-05
3.73990676711e-05
3.32097774833e-05
2.79406666276e-05
2.1922367817e-05
1.58231342662e-05
1.03365884931e-05
5.95752865646e-06
2.90562279175e-06
1.12838607816e-06
3.83215148843e-06
6.10120073506e-06
8.84820825915e-06
1.20526741724e-05
1.56216868296e-05
1.93622383722e-05
2.29509954378e-05
2.59469888111e-05
2.78907436796e-05
2.84718711945e-05
2.77250266999e-05
2.59662183114e-05
2.3190722615e-05
1.93253647464e-05
1.48207342985e-05
1.03722186601e-05
6.54571592261e-06
3.64566879293e-06
1.7290838109e-06
6.65360172445e-07
2.22347458404e-06
3.55782210139e-06
5.19736414367e-06
7.1496893864e-06
9.38499942246e-06
1.18140193924e-05
1.4258094408e-05
1.64377880649e-05
1.80171129888e-05
1.87293047873e-05
1.85860101361e-05
1.77559875305e-05
1.59661494672e-05
1.31598357653e-05
9.8765400261e-06
6.73291374295e-06
4.1353846899e-06
2.24606975259e-06
1.04542644988e-06
4.00577418167e-07
1.25946444226e-06
2.0241688144e-06
2.97597242061e-06
4.13018653365e-06
5.4845666432e-06
7.00496306551e-06
8.60181440221e-06
1.01118695564e-05
1.13113464719e-05
1.20074912946e-05
1.22266290287e-05
1.19683945753e-05
1.08015703496e-05
8.78931374255e-06
6.46981385905e-06
4.31982497499e-06
2.6009246537e-06
1.38844694373e-06
6.386556154e-07
2.44300183173e-07
6.97197673686e-07
1.12484903069e-06
1.66327198131e-06
2.32701939726e-06
3.12362999943e-06
4.04506044822e-06
5.05166010379e-06
6.05529864708e-06
6.91962278322e-06
7.53326752147e-06
7.93664756978e-06
7.94815268895e-06
7.15329906578e-06
5.74097272814e-06
4.15882310535e-06
2.73491513132e-06
1.6247752097e-06
8.57902999148e-07
3.9178216129e-07
1.49591803875e-07
3.78247971581e-07
6.12346492788e-07
9.1021725508e-07
1.28313111493e-06
1.7403928405e-06
2.28452645473e-06
2.9013269712e-06
3.54686866066e-06
4.14725500948e-06
4.66328868882e-06
5.10998332211e-06
5.18135584201e-06
4.62031826344e-06
3.66060131908e-06
2.62110114833e-06
1.70697003188e-06
1.00597618875e-06
5.2769604963e-07
2.39705544029e-07
9.09852817641e-08
2.02510508028e-07
3.28822684289e-07
4.91149132333e-07
6.97435645248e-07
9.55740034665e-07
1.27170048295e-06
1.64254635685e-06
2.04867686779e-06
2.45919448635e-06
2.88142898498e-06
3.26237606375e-06
3.29881946653e-06
2.90548655319e-06
2.27897731005e-06
1.62007426311e-06
1.04948237107e-06
6.1587222889e-07
3.21650493631e-07
1.45178858269e-07
5.43355665131e-08
1.08789243979e-07
1.77047213454e-07
2.65532669336e-07
3.79567441606e-07
5.25247605346e-07
7.08136647718e-07
9.29725884717e-07
1.1833929281e-06
1.46634431545e-06
1.79374762452e-06
2.05399881223e-06
2.04739222441e-06
1.78145961592e-06
1.38771770081e-06
9.83022602346e-07
6.35425531062e-07
3.72007186827e-07
1.93388475201e-07
8.63507709225e-08
3.13997998803e-08
6.14156100791e-08
9.99232486374e-08
1.50033839793e-07
2.15254080562e-07
2.99960175082e-07
4.08681530582e-07
5.4402649815e-07
7.06047330989e-07
9.03867162586e-07
1.13054004437e-06
1.27464772505e-06
1.24435622892e-06
1.07070029178e-06
8.30370853556e-07
5.87465357997e-07
3.79378535045e-07
2.21485051072e-07
1.14257687056e-07
5.00569284822e-08
1.72952432341e-08
4.28372040191e-08
6.90870126118e-08
1.02891600182e-07
1.46910510918e-07
2.04807605227e-07
2.80726032211e-07
3.7716313125e-07
4.92253725859e-07
6.22796749516e-07
7.45451313363e-07
7.99572641862e-07
7.57144074312e-07
6.42347722825e-07
4.95439969005e-07
3.4977709306e-07
2.25328361764e-07
1.30797322735e-07
6.65948706459e-08
2.83193533188e-08
8.99596992908e-09
5.13843038448e-08
8.20838766189e-08
1.21308458205e-07
1.72836903066e-07
2.42493407318e-07
3.37294829291e-07
4.58841954596e-07
5.79270253496e-07
6.34838635481e-07
6.23239068831e-07
5.80320536127e-07
5.08971754407e-07
4.15585206289e-07
3.1458359542e-07
2.1995211279e-07
1.40679771336e-07
8.08988644851e-08
4.0453285902e-08
1.65055089979e-08
4.59434041426e-09
5.25231360598e-08
8.47706461671e-08
1.2671708416e-07
1.82369985467e-07
2.5785042698e-07
3.61434256662e-07
5.01883104508e-07
6.75537508716e-07
8.18283087874e-07
8.0851525883e-07
6.80397358107e-07
5.35160990928e-07
4.04476795387e-07
2.92084628585e-07
1.98878630012e-07
1.25280352145e-07
7.1116710729e-08
3.47082332389e-08
1.32813699993e-08
3.05564092818e-09
5.31499889808e-06
3.81555932198e-06
9.89506097546e-06
7.23700023077e-06
1.77490830762e-05
1.30517013104e-05
2.99594330393e-05
2.18991026198e-05
4.67522756e-05
3.33437817744e-05
6.51233004458e-05
4.42554275571e-05
7.81846690625e-05
4.8606604274e-05
7.57824948436e-05
3.93482464076e-05
5.68281446787e-05
1.87816124857e-05
4.41973257444e-05
1.36408751038e-05
2.64700073369e-05
6.0311462881e-06
1.63164000198e-05
3.25657812198e-06
1.03096964148e-05
2.02437886425e-06
6.39330427354e-06
1.29501728607e-06
3.81215095269e-06
8.0279988925e-07
2.19740491934e-06
4.77322895248e-07
1.24116253952e-06
2.76522973166e-07
6.9877302909e-07
1.59219447859e-07
3.97539310482e-07
9.25416637068e-08
2.30706194595e-07
5.48247685006e-08
1.36972846804e-07
3.31918414204e-08
8.30226494562e-08
2.04702886493e-08
5.10625716723e-08
1.27747082961e-08
3.16083430268e-08
7.98528488648e-09
1.94898251795e-08
4.9544173696e-09
1.18103854213e-08
2.99484344848e-09
6.9163238253e-09
1.73314967818e-09
3.82457150592e-09
9.29107110454e-10
1.91455128413e-09
4.42764607796e-10
8.23234989134e-10
1.78574014567e-10
2.96374410647e-10
6.23288318722e-11
1.24787320965e-10
2.87239690037e-11
)
;

boundaryField
{
    inletfuel
    {
        type            zeroGradient;
    }
    inletair
    {
        type            zeroGradient;
    }
    outlet
    {
        type            zeroGradient;
    }
    axis
    {
        type            empty;
    }
    leftside
    {
        type            zeroGradient;
    }
    burnerwall
    {
        type            zeroGradient;
    }
    front
    {
        type            wedge;
    }
    back
    {
        type            wedge;
    }
    procBoundary1to0
    {
        type            processor;
        value           nonuniform List<scalar> 
27
(
0.00183997361501
0.00561618215364
0.00968461523006
0.0121670524677
0.286084742348
0.0959503041141
0.0188725128195
0.00205379438376
0.000201794715476
3.87406867362e-05
1.78515789369e-05
0.0499141604379
0.0960248183241
0.177821811204
0.323618119422
0.581563873049
1.03733749282
1.79160253716
1.56800184097
1.18087082065
0.829973453865
0.54561598529
0.344011920188
0.19969705173
0.19969705173
2.76002814526e-06
1.92782018676e-06
)
;
    }
}


// ************************************************************************* //
