/*--------------------------------*- C++ -*----------------------------------*\
  =========                 |
  \\      /  F ield         | OpenFOAM: The Open Source CFD Toolbox
   \\    /   O peration     | Website:  https://openfoam.org
    \\  /    A nd           | Version:  7
     \\/     M anipulation  |
\*---------------------------------------------------------------------------*/
FoamFile
{
    version     2.0;
    format      ascii;
    class       volScalarField;
    location    "0.07";
    object      ed::R_O2;
}
// * * * * * * * * * * * * * * * * * * * * * * * * * * * * * * * * * * * * * //

dimensions      [1 -3 -1 0 0 0 0];

internalField   nonuniform List<scalar> 
815
(
-1.4705699299
-1.49643111748
-1.56425175592
-2.13047351133
-2.18973987444
-2.31642719711
-1.87392862638
-1.85679923008
-1.8235589697
-0.946554867303
-0.941025587053
-0.925862006493
-0.538808320956
-0.534540068333
-0.526036080798
-0.3220003684
-0.319991849815
-0.315295244054
-0.193191171516
-0.191579060419
-0.188752948655
-0.108778196223
-0.107977555278
-0.106189840414
-0.0556568308769
-0.0551187196819
-0.0540938700564
-0.0258646810187
-0.0256125153365
-0.0250816045065
-0.0117861976227
-0.0116691844603
-0.0114400746005
-0.00564402901337
-0.00559840165279
-0.00550751118321
-0.0029931426165
-0.0029739545073
-0.00293414192767
-0.00173647015632
-0.00172668871402
-0.00170789901984
-0.00105037637007
-0.00104600813512
-0.00103683480594
-0.000643562736408
-0.000641022684425
-0.000636381512184
-0.000392106554469
-0.000390960586657
-0.000388781035093
-0.000236410771711
-0.00023586846228
-0.000234847725019
-0.000140240759512
-0.000139991764491
-0.000139535006381
-8.15603440494e-05
-8.14526347978e-05
-8.12605190205e-05
-4.64182000565e-05
-4.63739709286e-05
-4.62954279575e-05
-2.5822050449e-05
-2.57930053213e-05
-2.57621327697e-05
-1.40146596893e-05
-1.4004641559e-05
-1.39962307795e-05
-7.44402984318e-06
-7.43770280566e-06
-7.43584723311e-06
-3.87215743169e-06
-3.87012468727e-06
-3.87126559225e-06
-1.98971605596e-06
-1.988916603e-06
-1.99017442287e-06
-1.02662031065e-06
-1.02628378113e-06
-1.02714742604e-06
-5.57654367277e-07
-5.57535472113e-07
-5.58012391168e-07
-3.76442600765e-07
-3.7663924613e-07
-3.76800147306e-07
-4.37165508063e-07
-4.38063273017e-07
-4.38173327831e-07
-4.26736166944e-07
-4.27115721174e-07
-4.27611653137e-07
-1.65870154082
-2.49910800005
-1.77635309129
-0.904482332121
-0.513785838749
-0.308531787339
-0.184750620618
-0.103825353106
-0.0527433160903
-0.0243834427362
-0.011134394548
-0.00538733369799
-0.00288272400677
-0.00168379277574
-0.00102525728657
-0.000630643816116
-0.000386179518942
-0.000233707678564
-0.000139079311927
-8.11088303165e-05
-4.62600400598e-05
-2.57643776477e-05
-1.40113315582e-05
-7.44893983895e-06
-3.88134162053e-06
-1.99653872682e-06
-1.03084725107e-06
-5.59969769211e-07
-3.77426682978e-07
-4.37895100395e-07
-4.28311217072e-07
-0.0771456964045
-0.0222662776305
-0.00358711866698
-0.000366588246741
-5.00688321597e-05
-1.73277379315e-05
-8.46972228175e-06
-1.88002621503
-2.3860552175
-3.20505085102
-4.42646373662
-4.52106850146
-3.20405081195
-2.1411538299
-1.31607064741
-0.751379260439
-0.419529012225
-0.239100508963
-0.133695984445
-0.069201011725
-0.0295116629854
-0.00832433524217
-0.00144962032655
-0.000209060941405
-5.50030398699e-05
-2.93913669901e-05
-1.53291475728e-05
-2.91272282275
-3.3547238977
-2.76038072848
-2.15601482147
-1.57950704137
-1.075428998
-0.67563292268
-0.400272175575
-0.236901706107
-0.145586784233
-0.0901518946778
-0.0530227429191
-0.0274361701744
-0.0109364656699
-0.003110223985
-0.000677927794535
-0.00017201239721
-8.26861263919e-05
-5.12479872283e-05
-2.68061133083e-05
-1.66943566704
-1.46219571143
-1.20120562526
-0.919999344872
-0.653965843203
-0.431627826686
-0.266346657505
-0.159402555826
-0.0972167165392
-0.060372454128
-0.0368660799597
-0.0212891441939
-0.0108760809041
-0.00432426921335
-0.00141272850451
-0.000454942530251
-0.000207495417412
-0.000133663583527
-8.70609529678e-05
-4.46609608152e-05
-0.853486895036
-0.749283704436
-0.614700412946
-0.468069117692
-0.329392941972
-0.214299417587
-0.130198696687
-0.0766306506643
-0.0453420788464
-0.0270534131896
-0.0159888159879
-0.00914508552926
-0.0048009315425
-0.00215702401053
-0.00093180680864
-0.000467370300232
-0.000298125595492
-0.000210215405427
-0.000138387396563
-7.02478518021e-05
-0.486127058899
-0.4292778641
-0.354030577981
-0.269917656239
-0.189021589195
-0.121673968658
-0.072902614219
-0.0420824113661
-0.0242381493153
-0.0140810888239
-0.008204135862
-0.00476882731697
-0.00272837129023
-0.00151126727324
-0.000886093547022
-0.000585418356149
-0.000419182189129
-0.000298667487064
-0.000195893916441
-9.93286300617e-05
-0.29310033906
-0.260710615243
-0.216871885302
-0.166714171607
-0.117580634304
-0.0761351955368
-0.0456886037565
-0.0261470116846
-0.0149076649408
-0.00871231512265
-0.00526810259288
-0.00330409314034
-0.00213628496914
-0.00141588764457
-0.000979970421003
-0.000707503501486
-0.000516229079188
-0.000366878432141
-0.000240226481612
-0.000121167799592
-0.176054128671
-0.158567896904
-0.134917353089
-0.107114593857
-0.0781259968176
-0.052003565475
-0.0317958617032
-0.0183926052564
-0.0106566754146
-0.00646616257344
-0.00414900931252
-0.00278588474278
-0.00193050008661
-0.00136677951633
-0.000985711228529
-0.000719641564686
-0.000525376167901
-0.000374366013475
-0.000246126054001
-0.000122985752525
-0.0985393701082
-0.0881918051591
-0.0746544749139
-0.0592913533525
-0.0437934600092
-0.0299982656917
-0.0192734684251
-0.0120135405425
-0.00757712973495
-0.00494625830272
-0.00334426194077
-0.00231642774855
-0.00162672769824
-0.00115486581972
-0.00083128359817
-0.000608610484519
-0.000451218320355
-0.000330089040207
-0.000219743915016
-0.000107838201689
-0.0498464926464
-0.0442788562576
-0.0372236450049
-0.0294676918247
-0.0219449743088
-0.0154757154619
-0.0105078908436
-0.00703882526669
-0.004752884535
-0.00325509035837
-0.00225285421019
-0.00157397173641
-0.00111373487297
-0.000800929456804
-0.000587023286132
-0.000439114292644
-0.000333466364105
-0.000250476713584
-0.000170719906876
-8.65264100929e-05
-0.0229154985358
-0.0201226770062
-0.0167422810861
-0.0132266186622
-0.00999565579632
-0.00732137127147
-0.00527289800485
-0.00377305167763
-0.00269790560717
-0.00192656440098
-0.00137515464001
-0.000987375169473
-0.000718162736097
-0.000530795957707
-0.000398529410399
-0.00030416640419
-0.000234636757307
-0.000178099904808
-0.000122590329094
-6.16900125993e-05
-0.0105100736255
-0.0093102644129
-0.00786643857901
-0.00637029670664
-0.0049841947697
-0.00381178460823
-0.00286960125028
-0.00213188827581
-0.00156646667873
-0.00114369379769
-0.000835744056971
-0.000615601245328
-0.000459122864304
-0.000346644821933
-0.000264371486917
-0.000203604259565
-0.000157372573554
-0.000118968080683
-8.10654027427e-05
-3.9079497314e-05
-0.00513614807741
-0.00464381992513
-0.004033489079
-0.00337624783679
-0.00273786003141
-0.00216373202269
-0.00167428542027
-0.00127329399464
-0.000957264030144
-0.000716174079878
-0.000536111397764
-0.000402846067474
-0.000304295296591
-0.000230918955679
-0.00017597896173
-0.00013458910222
-0.000102483964843
-7.55530096948e-05
-4.9638877225e-05
-2.25428013219e-05
-0.00277444161038
-0.0025590646105
-0.00227961609028
-0.00196143506348
-0.00163433861168
-0.0013240895418
-0.00104768164519
-0.000813479799027
-0.000623317054196
-0.000473866826908
-0.000358733842494
-0.000270965916816
-0.000204460324325
-0.000154160643258
-0.000116142773696
-8.72323267164e-05
-6.46242347454e-05
-4.5741908243e-05
-2.84625892595e-05
-1.21888509763e-05
-0.00163312246841
-0.0015300661136
-0.00139033701347
-0.00122294565029
-0.00104189420393
-0.000861857874119
-0.000694703310872
-0.000547998874735
-0.00042500983189
-0.000325491052238
-0.000246917069404
-0.000185917658544
-0.000139159659669
-0.000103599278701
-7.66392823647e-05
-5.6070996983e-05
-4.00030201777e-05
-2.68536316934e-05
-1.56375207449e-05
-6.31651408257e-06
-0.00100066508677
-0.0009494398154
-0.000877121190399
-0.000786397821368
-0.000683490302531
-0.000576293495852
-0.000472380278374
-0.000377607392774
-0.000295458055496
-0.000227108918893
-0.000172026592005
-0.000128723729108
-9.53268867713e-05
-6.98769876712e-05
-5.05689923533e-05
-3.58522549502e-05
-2.44732254143e-05
-1.5472440221e-05
-8.37950753237e-06
-3.20294308798e-06
-0.000618803435385
-0.000593663821178
-0.000556646381856
-0.000508000941668
-0.000450120123418
-0.000386853209888
-0.000322602599056
-0.00026145082805
-0.000206462020098
-0.000159333429772
-0.000120538181766
-8.96615334389e-05
-6.57086636301e-05
-4.74087996885e-05
-3.35111645716e-05
-2.29547834001e-05
-1.49294059633e-05
-8.86093173254e-06
-4.45886427753e-06
-1.61883899484e-06
-0.000380786890782
-0.000368922599618
-0.000350590075601
-0.00032527062331
-0.00029362011748
-0.000257252191112
-0.000218443311366
-0.000179743878796
-0.000143498830987
-0.000111396552838
-8.43318609425e-05
-6.2474410204e-05
-4.53840048288e-05
-3.22598830541e-05
-2.22633709929e-05
-1.47103908229e-05
-9.09871948325e-06
-5.06931446742e-06
-2.37977448334e-06
-8.26782726665e-07
-0.000231391396249
-0.000226117734474
-0.000217474678074
-0.000204849173948
-0.000188218679669
-0.000168093256502
-0.000145466142467
-0.000121733792351
-9.84803668129e-05
-7.71076390113e-05
-5.85838690221e-05
-4.33549474221e-05
-3.13098237389e-05
-2.19655821886e-05
-1.48021768967e-05
-9.42743020253e-06
-5.546775236e-06
-2.91039385509e-06
-1.28494091611e-06
-4.31114013588e-07
-0.000138187406459
-0.000136059197842
-0.000132259544763
-0.000126308108208
-0.000117990688997
-0.000107353873261
-9.47176010598e-05
-8.0725327572e-05
-6.63158349149e-05
-5.25081739508e-05
-4.01621344738e-05
-2.98039105725e-05
-2.14765351491e-05
-1.48994594433e-05
-9.80629164325e-06
-6.02206002923e-06
-3.38005255213e-06
-1.68169737611e-06
-7.05884750996e-07
-2.31083596953e-07
-8.08341476422e-05
-8.01138002848e-05
-7.86131881622e-05
-7.60105473863e-05
-7.2096334122e-05
-6.6770890766e-05
-6.00568511872e-05
-5.21761427765e-05
-4.36055376002e-05
-3.50003604287e-05
-2.70405923175e-05
-2.02186215141e-05
-1.45996166606e-05
-1.00300518258e-05
-6.44892735907e-06
-3.82609418544e-06
-2.05996408729e-06
-9.80811928612e-07
-3.96015563521e-07
-1.27571776345e-07
-4.62191299649e-05
-4.60680973476e-05
-4.55801925717e-05
-4.45610539469e-05
-4.28594676327e-05
-4.03609506549e-05
-3.69905175325e-05
-3.27716881295e-05
-2.79002698264e-05
-2.27521941567e-05
-1.78234202887e-05
-1.35074271316e-05
-9.80942169415e-06
-6.67444439139e-06
-4.19420684975e-06
-2.4125183444e-06
-1.25467636939e-06
-5.77230757663e-07
-2.26626039589e-07
-7.23358002777e-08
-2.57990674005e-05
-2.58442810439e-05
-2.57574505934e-05
-2.54309728469e-05
-2.47721097924e-05
-2.36930456263e-05
-2.21093783707e-05
-1.99751994011e-05
-1.73412006065e-05
-1.4400656997e-05
-1.14963650848e-05
-8.88699334101e-06
-6.49758269706e-06
-4.37245558963e-06
-2.68863628906e-06
-1.50628753726e-06
-7.62355539628e-07
-3.42002208416e-07
-1.31763339969e-07
-4.18768499671e-08
-1.40587597905e-05
-1.41455018691e-05
-1.41887155259e-05
-1.41333093279e-05
-1.39275366416e-05
-1.35156833493e-05
-1.2832772436e-05
-1.18222843122e-05
-1.04745841522e-05
-8.88270591391e-06
-7.27630265205e-06
-5.76316288045e-06
-4.22888011249e-06
-2.809186146e-06
-1.69406959833e-06
-9.29493061074e-07
-4.61117012472e-07
-2.0330540254e-07
-7.74036169741e-08
-2.45580091939e-08
-7.48691628285e-06
-7.56229418966e-06
-7.62899917063e-06
-7.66068033153e-06
-7.63111936354e-06
-7.50857890165e-06
-7.25052043319e-06
-6.8110478586e-06
-6.16475580939e-06
-5.36150101787e-06
-4.54403956998e-06
-3.68188770474e-06
-2.69396437686e-06
-1.76490815482e-06
-1.04733601279e-06
-5.65936867169e-07
-2.770085976e-07
-1.20795985651e-07
-4.56581762248e-08
-1.44593740366e-08
-3.90756373013e-06
-3.96041133581e-06
-4.0163803125e-06
-4.06373978652e-06
-4.09039881568e-06
-4.07962959543e-06
-4.00613184017e-06
-3.8381123108e-06
-3.55456796378e-06
-3.19286891055e-06
-2.81444817556e-06
-2.30880493613e-06
-1.67363894083e-06
-1.08233024645e-06
-6.34804377973e-07
-3.39675657333e-07
-1.64922746172e-07
-7.14454807001e-08
-2.6860742913e-08
-8.45620987061e-09
-2.0125904404e-06
-2.04589835024e-06
-2.08489114331e-06
-2.12490864099e-06
-2.16092768129e-06
-2.18469983911e-06
-2.18186531024e-06
-2.13267799281e-06
-2.02764512175e-06
-1.89782276768e-06
-1.72838493394e-06
-1.41383722839e-06
-1.01221064574e-06
-6.48007517082e-07
-3.77310713727e-07
-2.00817534199e-07
-9.70858142521e-08
-4.18732058943e-08
-1.56421926852e-08
-4.85560292285e-09
-1.04008161723e-06
-1.05970581709e-06
-1.08433170701e-06
-1.11249803725e-06
-1.14245253662e-06
-1.17029725415e-06
-1.18804912336e-06
-1.18507019171e-06
-1.16301822944e-06
-1.13641769395e-06
-1.0466480103e-06
-8.43913441325e-07
-5.96832763045e-07
-3.79438802979e-07
-2.20145434209e-07
-1.16911955445e-07
-5.63863377737e-08
-2.42065397598e-08
-8.94552953362e-09
-2.69794453339e-09
-5.64843170453e-07
-5.75347521028e-07
-5.89386826039e-07
-6.06914748036e-07
-6.27627324801e-07
-6.49718415645e-07
-6.68736944733e-07
-6.80135119424e-07
-6.89577950718e-07
-6.88905629103e-07
-6.24666470999e-07
-4.93246331003e-07
-3.44938274457e-07
-2.18319087049e-07
-1.26501269392e-07
-6.71157794651e-08
-3.22788684005e-08
-1.37509837561e-08
-4.98592368811e-09
-1.42881483452e-09
-3.78991488813e-07
-3.82665106312e-07
-3.8882025092e-07
-3.98460391856e-07
-4.12227995071e-07
-4.29310650409e-07
-4.45970755738e-07
-4.56120846666e-07
-4.57015972407e-07
-4.36881340506e-07
-3.76832617189e-07
-2.88603478375e-07
-1.98988998173e-07
-1.25251936045e-07
-7.24219911488e-08
-3.83291625377e-08
-1.83286368675e-08
-7.70621885116e-09
-2.71212728524e-09
-7.14568242205e-10
-4.37305919491e-07
-4.37347104127e-07
-4.4096565955e-07
-4.50932372153e-07
-4.69494807362e-07
-4.96173451817e-07
-5.21877305265e-07
-5.16284138797e-07
-4.48066893982e-07
-3.51285548601e-07
-2.63019936e-07
-1.86563071163e-07
-1.23798527532e-07
-7.64749175971e-08
-4.37917917463e-08
-2.30105739954e-08
-1.09006411898e-08
-4.50117545671e-09
-1.51991021109e-09
-3.50900699943e-10
-4.29961538491e-07
-4.34447220508e-07
-4.43068157995e-07
-4.57665209432e-07
-4.80192560662e-07
-5.11406294303e-07
-5.49055195836e-07
-5.79107290724e-07
-5.55487997805e-07
-4.38295627377e-07
-2.96576461597e-07
-1.8864935946e-07
-1.15872205509e-07
-6.82836836331e-08
-3.80780504553e-08
-1.97059609599e-08
-9.21501460887e-09
-3.71375651726e-09
-1.17607083263e-09
-2.24424775897e-10
-5.78844711612e-06
-4.06832560163e-06
-1.0357321262e-05
-7.41682228617e-06
-1.78537404794e-05
-1.28559537665e-05
-2.89562062602e-05
-2.07303933916e-05
-4.34088532716e-05
-3.03325846279e-05
-5.80803242743e-05
-3.86874155511e-05
-6.69911096585e-05
-4.08380932223e-05
-6.24215020629e-05
-3.17830294387e-05
-4.50225644601e-05
-1.45894623322e-05
-3.36814786619e-05
-1.01929838473e-05
-1.9404998075e-05
-4.33540040213e-06
-1.15063636046e-05
-2.25192753921e-06
-6.99327765264e-06
-1.34654014322e-06
-4.17107185164e-06
-8.28527294533e-07
-2.39194763627e-06
-4.93989580049e-07
-1.32596643273e-06
-2.82478107338e-07
-7.20245008853e-07
-1.57381566914e-07
-3.89950539189e-07
-8.714853764e-08
-2.13338892147e-07
-4.8711967875e-08
-1.19058741373e-07
-2.77526017898e-08
-6.79742010647e-08
-1.61577829146e-08
-3.96195213688e-08
-9.58282691503e-09
-2.34322368757e-08
-5.75090927046e-09
-1.39478458737e-08
-3.45692098641e-09
-8.26997647334e-09
-2.0625489797e-09
-4.81892114559e-09
-1.19894645996e-09
-2.71363247669e-09
-6.67237094351e-10
-1.44295644397e-09
-3.43983235453e-10
-6.94613510979e-10
-1.57646331256e-10
-2.87225520001e-10
-6.11476246829e-11
-9.94449745346e-11
-2.05259494877e-11
-4.02689944737e-11
-9.09717785535e-12
)
;

boundaryField
{
    inletfuel
    {
        type            calculated;
        value           nonuniform 0();
    }
    inletair
    {
        type            calculated;
        value           nonuniform 0();
    }
    outlet
    {
        type            calculated;
        value           uniform 0;
    }
    axis
    {
        type            empty;
    }
    leftside
    {
        type            calculated;
        value           uniform 0;
    }
    burnerwall
    {
        type            calculated;
        value           nonuniform 0();
    }
    front
    {
        type            wedge;
    }
    back
    {
        type            wedge;
    }
    procBoundary1to0
    {
        type            processor;
        value           uniform 0;
    }
}


// ************************************************************************* //
