/*--------------------------------*- C++ -*----------------------------------*\
  =========                 |
  \\      /  F ield         | OpenFOAM: The Open Source CFD Toolbox
   \\    /   O peration     | Website:  https://openfoam.org
    \\  /    A nd           | Version:  7
     \\/     M anipulation  |
\*---------------------------------------------------------------------------*/
FoamFile
{
    version     2.0;
    format      ascii;
    class       volScalarField;
    location    "0.07";
    object      ed::R_H2;
}
// * * * * * * * * * * * * * * * * * * * * * * * * * * * * * * * * * * * * * //

dimensions      [1 -3 -1 0 0 0 0];

internalField   nonuniform List<scalar> 
815
(
-0.185303400293
-0.188562113733
-0.197108048651
-0.268456452058
-0.275924480871
-0.291888081912
-0.2361297748
-0.233971335874
-0.22978280111
-0.119273372799
-0.118576639912
-0.116665909262
-0.0678940946291
-0.0673562611618
-0.0662846917151
-0.0405745840079
-0.0403214948376
-0.0397296854992
-0.0243436100934
-0.0241404713905
-0.0237843590366
-0.0137069099728
-0.0136060229041
-0.0133807567429
-0.00701319930547
-0.00694539305422
-0.00681625392486
-0.00325915364024
-0.00322737877704
-0.00316047982851
-0.00148515378399
-0.00147040920338
-0.0014415395555
-0.000711192134604
-0.000705442727596
-0.000693989812148
-0.000377159557749
-0.000374741704773
-0.000369725005989
-0.000218808924303
-0.000217576385488
-0.000215208735946
-0.000132355700334
-0.000131805268306
-0.000130649356536
-8.10939765145e-05
-8.07739099473e-05
-8.01890856692e-05
-4.94085159387e-05
-4.92641149633e-05
-4.89894742898e-05
-2.97896203188e-05
-2.97212850567e-05
-2.95926641177e-05
-1.76714408944e-05
-1.76400655595e-05
-1.75825104381e-05
-1.02772461031e-05
-1.02636738886e-05
-1.02394657867e-05
-5.84905901519e-06
-5.84348579652e-06
-5.83358876319e-06
-3.2537818525e-06
-3.25012193751e-06
-3.24623175271e-06
-1.76595756623e-06
-1.76469520286e-06
-1.76363537837e-06
-9.38006424433e-07
-9.37209167844e-07
-9.3697535108e-07
-4.87922351718e-07
-4.87666209902e-07
-4.87809972921e-07
-2.50719903413e-07
-2.5061916604e-07
-2.50777661256e-07
-1.29362249632e-07
-1.2931984426e-07
-1.29428670325e-07
-7.02688449857e-08
-7.02538632581e-08
-7.03139588174e-08
-4.7434734329e-08
-4.74595131947e-08
-4.74797880109e-08
-5.50862991877e-08
-5.5199424647e-08
-5.52132924209e-08
-5.37721200162e-08
-5.38199468404e-08
-5.38824381759e-08
-0.209009465879
-0.314907302736
-0.223834488415
-0.113971901804
-0.0647410646762
-0.0388774366523
-0.0232800341627
-0.0130828127082
-0.00664607348182
-0.00307250594344
-0.00140302145991
-0.000678846501927
-0.000363245942746
-0.000212171159215
-0.000129190497857
-7.94660907476e-05
-4.8661662753e-05
-2.94490092801e-05
-1.75250893456e-05
-1.02203518145e-05
-5.8291296092e-06
-3.24651462504e-06
-1.76553819549e-06
-9.38625122594e-07
-4.8907963189e-07
-2.51579613709e-07
-1.29894877436e-07
-7.05606038764e-08
-4.7558736443e-08
-5.51782335713e-08
-5.39705887448e-08
-0.00972096570933
-0.00280572645538
-0.000452005221059
-4.61930080627e-05
-6.30906742975e-06
-2.18343153414e-06
-1.06725175487e-06
-0.236898119024
-0.300661761199
-0.403861665284
-0.557769314463
-0.569690260385
-0.40373565248
-0.269802256366
-0.165835273136
-0.0946797082126
-0.0528639617242
-0.0301285484096
-0.0168467476585
-0.00871987283002
-0.00371870210883
-0.00104893184213
-0.000182663585174
-2.63433261643e-05
-6.93081648627e-06
-3.7035438654e-06
-1.93159339865e-06
-0.367026029971
-0.422721648695
-0.347829725531
-0.271674858418
-0.199030334839
-0.135512528885
-0.0851350727206
-0.0504374485488
-0.0298514819216
-0.0183450821397
-0.0113598491898
-0.00668128346433
-0.0034571736583
-0.00137808086145
-0.000391912732863
-8.54242446594e-05
-2.16749176272e-05
-1.04191035502e-05
-6.45765026096e-06
-3.37778152788e-06
-0.210362050375
-0.184248182772
-0.151361375129
-0.115927167696
-0.0824048499546
-0.0543885076934
-0.0335617778447
-0.0200859782384
-0.0122500724201
-0.00760740499755
-0.00464541660557
-0.00268259994186
-0.00137047190509
-0.000544891999166
-0.000178014924863
-5.73263440789e-05
-2.61460578037e-05
-1.68426648874e-05
-1.09703661755e-05
-5.62763302251e-06
-0.107546074852
-0.0944156516417
-0.0774570963029
-0.0589803975432
-0.0415061065366
-0.0270034154461
-0.0164060618399
-0.00965606588715
-0.00571345926213
-0.00340894326182
-0.00201471681759
-0.0011523528464
-0.000604955209074
-0.000271802024193
-0.000117415001182
-5.8892341036e-05
-3.75661744714e-05
-2.64887977291e-05
-1.74379025571e-05
-8.85178292956e-06
-0.0612558404446
-0.0540923938883
-0.0446106428357
-0.0340117518272
-0.0238182098617
-0.0153318789274
-0.00918630391549
-0.00530271547114
-0.0030541978274
-0.0017743281607
-0.00103378577298
-0.000600909823652
-0.000343796284055
-0.000190431586277
-0.000111654769965
-7.37673263834e-05
-5.28202592808e-05
-3.763445708e-05
-2.46841772535e-05
-1.25161901673e-05
-0.0369329525584
-0.0328515921037
-0.0273275666511
-0.0210072994475
-0.0148160865404
-0.00959363463654
-0.00575712413167
-0.00329472952911
-0.00187848326543
-0.00109782036463
-0.000663822443059
-0.000416341774262
-0.00026918874154
-0.000178413001407
-0.000123483995903
-8.91510168127e-05
-6.5048932226e-05
-4.62295737099e-05
-3.02704298369e-05
-1.52680976362e-05
-0.022184207643
-0.0199808046366
-0.0170006497328
-0.0134972829643
-0.00984449128684
-0.00655285907454
-0.00400652914837
-0.00231761320898
-0.00134282508434
-0.000814787442164
-0.00052280787049
-0.000351043432322
-0.000243258224612
-0.000172224990241
-0.000124207382893
-9.06805084324e-05
-6.62015374894e-05
-4.71730679654e-05
-3.10138224507e-05
-1.54971740324e-05
-0.0124167371932
-0.0111128624635
-0.00940705216895
-0.00747117778
-0.00551832108443
-0.0037800178846
-0.00242860891006
-0.00151380078351
-0.000954778059717
-0.000623267526138
-0.000421403359674
-0.000291888151397
-0.000204980509737
-0.00014552219444
-0.000104748284469
-7.66897173282e-05
-5.68570642826e-05
-4.15938204e-05
-2.76894650287e-05
-1.35884632537e-05
-0.00628105089889
-0.005579484837
-0.00469047261913
-0.00371316139606
-0.00276523970475
-0.00195006210773
-0.00132407705586
-0.000886947454499
-0.000598900907485
-0.000410167037557
-0.000283877384561
-0.000198332842792
-0.000140339371009
-0.000100923423445
-7.39695602092e-05
-5.53318614027e-05
-4.20193898268e-05
-3.15620398443e-05
-2.15120536593e-05
-1.09030095607e-05
-0.00288753340577
-0.00253561588363
-0.0021096593578
-0.0016666581865
-0.00125953140314
-0.000922550477762
-0.000664426702758
-0.000475434245684
-0.000339957367898
-0.000242762297207
-0.000173280321827
-0.000124417052565
-9.04941643759e-05
-6.68844737167e-05
-5.02178464025e-05
-3.83273639732e-05
-2.95660805234e-05
-2.24419915584e-05
-1.54473475639e-05
-7.77342774822e-06
-0.00132435210359
-0.00117316668746
-0.000991233254026
-0.000802707587457
-0.000628047819944
-0.000480314900182
-0.000361592372012
-0.000268634723531
-0.00019738714638
-0.000144114431621
-0.00010531033743
-7.75706082823e-05
-5.78530991135e-05
-4.36799793687e-05
-3.33128907849e-05
-2.56557412501e-05
-1.98301844744e-05
-1.49909157182e-05
-1.0214879598e-05
-4.9243246355e-06
-0.000647195134215
-0.000585157907135
-0.000508251410686
-0.000425433834644
-0.000344991940221
-0.00027264728659
-0.000210973157501
-0.000160445077777
-0.000120622811712
-9.02435780203e-05
-6.75542610533e-05
-5.07617792122e-05
-3.83436054315e-05
-2.90976082194e-05
-2.2174736016e-05
-1.69592875365e-05
-1.2913787216e-05
-9.52027463242e-06
-6.25488971963e-06
-2.8405706197e-06
-0.00034960150746
-0.000322462308153
-0.000287249592354
-0.000247156275487
-0.00020593954481
-0.000166845717024
-0.000132016143763
-0.000102504865471
-7.85428610056e-05
-5.97109545944e-05
-4.52032912293e-05
-3.41438409209e-05
-2.57636121562e-05
-1.94254559449e-05
-1.46349047725e-05
-1.09919606184e-05
-8.14316286236e-06
-5.76384091705e-06
-3.58651055193e-06
-1.53589127974e-06
-0.000205786301174
-0.000192800388312
-0.000175193420532
-0.000154100789609
-0.000131286880554
-0.000108600884185
-8.75380919208e-05
-6.90521768333e-05
-5.35545881946e-05
-4.10144376805e-05
-3.11134966252e-05
-2.34270901385e-05
-1.75352137944e-05
-1.30543255515e-05
-9.65715354942e-06
-7.06538749876e-06
-5.04069579434e-06
-3.38376921888e-06
-1.97045084853e-06
-7.95930552979e-07
-0.000126091686878
-0.000119636898994
-0.000110524182322
-9.90923228605e-05
-8.61251645034e-05
-7.26175220756e-05
-5.95236377641e-05
-4.75815073015e-05
-3.72300434098e-05
-2.86175135586e-05
-2.16767062833e-05
-1.62202043012e-05
-1.20119389761e-05
-8.8050511264e-06
-6.37209155576e-06
-4.51766666472e-06
-3.08381926844e-06
-1.94964940156e-06
-1.05588398549e-06
-4.03596070531e-07
-7.7974109465e-05
-7.4806319957e-05
-7.01418308791e-05
-6.4012122055e-05
-5.67186828139e-05
-4.87465531214e-05
-4.06504698166e-05
-3.29448647508e-05
-2.60158415983e-05
-2.00772678109e-05
-1.51887608282e-05
-1.12980598093e-05
-8.2798094479e-06
-5.97388237545e-06
-4.22267082757e-06
-2.89248360826e-06
-1.8812228056e-06
-1.11654722868e-06
-5.61852037956e-07
-2.0398647094e-07
-4.79821491072e-05
-4.64871549215e-05
-4.41771124222e-05
-4.09866618985e-05
-3.69984487356e-05
-3.24158034084e-05
-2.75255787191e-05
-2.26491452366e-05
-1.80819835761e-05
-1.40368435408e-05
-1.06264790732e-05
-7.87226802802e-06
-5.71874226632e-06
-4.06499949539e-06
-2.80536019613e-06
-1.85362517192e-06
-1.1465103592e-06
-6.3877357266e-07
-2.99870339198e-07
-1.04181139189e-07
-2.91571394544e-05
-2.84926165105e-05
-2.74035232908e-05
-2.58126102731e-05
-2.37170369339e-05
-2.11810750124e-05
-1.83298803264e-05
-1.53394171842e-05
-1.2409302313e-05
-9.71617017788e-06
-7.38202917889e-06
-5.46306504267e-06
-3.94528453454e-06
-2.76783646001e-06
-1.86519094055e-06
-1.1879305003e-06
-6.98937392228e-07
-3.66732561692e-07
-1.61912681668e-07
-5.43237631939e-08
-1.74127022279e-05
-1.71445311703e-05
-1.66657449384e-05
-1.5915817031e-05
-1.48677566632e-05
-1.3527434055e-05
-1.19351641749e-05
-1.01720274465e-05
-8.35631781472e-06
-6.61644371916e-06
-5.06074544958e-06
-3.75552760792e-06
-2.70621267899e-06
-1.87744930807e-06
-1.23567002753e-06
-7.58827021754e-07
-4.2591325876e-07
-2.11907122349e-07
-8.8947041494e-08
-2.91183543174e-08
-1.01857396329e-05
-1.0094970189e-05
-9.90588123568e-06
-9.57792798727e-06
-9.08470626921e-06
-8.41365843812e-06
-7.56763653983e-06
-6.57460517456e-06
-5.49464137995e-06
-4.41032124148e-06
-3.4073277309e-06
-2.54770564774e-06
-1.83966675449e-06
-1.26386557392e-06
-8.12615669328e-07
-4.8211801968e-07
-2.59571708966e-07
-1.23590032493e-07
-4.99010818849e-08
-1.60750491748e-08
-5.82397461485e-06
-5.80494331482e-06
-5.74346346802e-06
-5.61504396977e-06
-5.40063068449e-06
-5.08579785521e-06
-4.6610967204e-06
-4.12949096827e-06
-3.51565387188e-06
-2.86695576705e-06
-2.24589141746e-06
-1.70204226661e-06
-1.23606443861e-06
-8.41032592634e-07
-5.28503116369e-07
-3.03996323736e-07
-1.58099110276e-07
-7.27356244501e-08
-2.85566669609e-08
-9.114880892e-09
-3.25088580727e-06
-3.25658308266e-06
-3.2456417616e-06
-3.20450299267e-06
-3.1214810555e-06
-2.98551046678e-06
-2.78595591216e-06
-2.51703254316e-06
-2.18512793728e-06
-1.81459626893e-06
-1.44863260013e-06
-1.11983119673e-06
-8.18746625354e-07
-5.5096386232e-07
-3.38789360768e-07
-1.89804100301e-07
-9.60628058912e-08
-4.30949734784e-08
-1.66032192239e-08
-5.2768131149e-09
-1.77151452652e-06
-1.78244471201e-06
-1.78788997333e-06
-1.78090835574e-06
-1.75497937563e-06
-1.70308261511e-06
-1.61703045821e-06
-1.48970099126e-06
-1.31988015027e-06
-1.11929094713e-06
-9.16871476543e-07
-7.26203940715e-07
-5.32872220724e-07
-3.53979592759e-07
-2.1346611985e-07
-1.17123450755e-07
-5.8104377498e-08
-2.56180829097e-08
-9.7534657337e-09
-3.09450269282e-09
-9.43410453807e-07
-9.52908664096e-07
-9.61314017381e-07
-9.65306093324e-07
-9.61581178396e-07
-9.46140114493e-07
-9.13622713784e-07
-8.58245706033e-07
-7.76807814597e-07
-6.75591380652e-07
-5.72584796046e-07
-4.63946866663e-07
-3.3946074182e-07
-2.22392336225e-07
-1.31972591356e-07
-7.1312505244e-08
-3.49052663203e-08
-1.52212461494e-08
-5.75329002288e-09
-1.82199507865e-09
-4.92383824348e-07
-4.9904303914e-07
-5.06095571278e-07
-5.1206323823e-07
-5.15422485996e-07
-5.14065479375e-07
-5.04804182999e-07
-4.83632398186e-07
-4.47903575933e-07
-4.02326644783e-07
-3.54642649953e-07
-2.9092761696e-07
-2.10891695997e-07
-1.36382140577e-07
-7.99903543298e-08
-4.28018097072e-08
-2.0781565725e-08
-9.00269360887e-09
-3.38466528859e-09
-1.06554908458e-09
-2.53602256119e-07
-2.57799315249e-07
-2.62712714467e-07
-2.6775523454e-07
-2.72293917473e-07
-2.752893967e-07
-2.74932223725e-07
-2.68734234097e-07
-2.55499264611e-07
-2.39140624906e-07
-2.17790122566e-07
-1.78154632809e-07
-1.27546518296e-07
-8.16540539075e-08
-4.75441234035e-08
-2.53045918925e-08
-1.22335777003e-08
-5.27635393301e-09
-1.97103954982e-09
-6.11844233846e-10
-1.31058480346e-07
-1.33531284181e-07
-1.36634340379e-07
-1.40183519961e-07
-1.43958022943e-07
-1.47466676788e-07
-1.49703552207e-07
-1.49328183342e-07
-1.46549462311e-07
-1.43197585208e-07
-1.3188589762e-07
-1.06339744239e-07
-7.52056316058e-08
-4.78122794202e-08
-2.77400596113e-08
-1.47318277346e-08
-7.10512292351e-09
-3.0502147743e-09
-1.1272072183e-09
-3.39962272909e-10
-7.11746908387e-08
-7.24983217928e-08
-7.42673848639e-08
-7.64760411678e-08
-7.90859890699e-08
-8.18696406095e-08
-8.4266125154e-08
-8.57023849907e-08
-8.68922561499e-08
-8.68075383281e-08
-7.87128981572e-08
-6.21529248345e-08
-4.34649409378e-08
-2.75099254762e-08
-1.59401568624e-08
-8.45711713217e-09
-4.06739179866e-09
-1.7327323207e-09
-6.28265677289e-10
-1.80041929215e-10
-4.775591431e-08
-4.82188190656e-08
-4.8994415793e-08
-5.02091495221e-08
-5.19439760256e-08
-5.40965252216e-08
-5.61958297864e-08
-5.74748212332e-08
-5.75876141307e-08
-5.50504918362e-08
-4.7483879472e-08
-3.63663126737e-08
-2.50741819432e-08
-1.5782731015e-08
-9.125741621e-09
-4.82977654052e-09
-2.30955268786e-09
-9.71044305673e-10
-3.41749411412e-10
-9.00412298183e-11
-5.51039921342e-08
-5.51091817229e-08
-5.5565148223e-08
-5.68210325557e-08
-5.9160045677e-08
-6.25217651249e-08
-6.57606532237e-08
-6.50558701707e-08
-5.64599597241e-08
-4.4264747501e-08
-3.31425847182e-08
-2.35084172148e-08
-1.55995900886e-08
-9.6364422934e-09
-5.51811087017e-09
-2.89951366294e-09
-1.37356669464e-09
-5.67183579975e-10
-1.91520664559e-10
-4.42162535372e-11
-5.41785422494e-08
-5.47437735338e-08
-5.58300795962e-08
-5.76694231123e-08
-6.05080468986e-08
-6.44412233236e-08
-6.91852816166e-08
-7.29720824041e-08
-6.99958653597e-08
-5.52287031274e-08
-3.73709713924e-08
-2.37713059816e-08
-1.46008110486e-08
-8.60428226125e-09
-4.79813443919e-09
-2.48310637779e-09
-1.16116446152e-09
-4.67962588189e-10
-1.48194193178e-10
-2.82792903881e-11
-7.29389953667e-07
-5.12641087073e-07
-1.305104102e-06
-9.34578057836e-07
-2.24971200044e-06
-1.61995148854e-06
-3.64871018406e-06
-2.61219293743e-06
-5.46985760452e-06
-3.82214470523e-06
-7.31857857239e-06
-4.8749192435e-06
-8.44140775405e-06
-5.14592157892e-06
-7.86560118529e-06
-4.00491218191e-06
-5.67319793146e-06
-1.83838722909e-06
-4.24413174515e-06
-1.28439629265e-06
-2.44518268248e-06
-5.46294616674e-07
-1.44989249242e-06
-2.83760616714e-07
-8.81208096181e-07
-1.69674669729e-07
-5.25587924287e-07
-1.04400968489e-07
-3.014042524e-07
-6.22465800716e-08
-1.67082220073e-07
-3.55944676508e-08
-9.07565471529e-08
-1.98313177087e-08
-4.91368410224e-08
-1.09814025344e-08
-2.68823816711e-08
-6.13809183683e-09
-1.50023396797e-08
-3.49704653554e-09
-8.56528501869e-09
-2.03600798193e-09
-4.99237192218e-09
-1.20751171071e-09
-2.95264650886e-09
-7.24659889289e-10
-1.75753849893e-09
-4.35599287257e-10
-1.04208220887e-09
-2.5989742578e-10
-6.07222040834e-10
-1.51076702496e-10
-3.41939077396e-10
-8.4077132186e-11
-1.81823883452e-10
-4.3344598497e-11
-8.75267764265e-11
-1.98646801023e-11
-3.61926790593e-11
-7.70508259635e-12
-1.25308504877e-11
-2.58643139437e-12
-5.07421065169e-12
-1.14631610194e-12
)
;

boundaryField
{
    inletfuel
    {
        type            calculated;
        value           nonuniform 0();
    }
    inletair
    {
        type            calculated;
        value           nonuniform 0();
    }
    outlet
    {
        type            calculated;
        value           uniform 0;
    }
    axis
    {
        type            empty;
    }
    leftside
    {
        type            calculated;
        value           uniform 0;
    }
    burnerwall
    {
        type            calculated;
        value           nonuniform 0();
    }
    front
    {
        type            wedge;
    }
    back
    {
        type            wedge;
    }
    procBoundary1to0
    {
        type            processor;
        value           uniform 0;
    }
}


// ************************************************************************* //
