/*--------------------------------*- C++ -*----------------------------------*\
  =========                 |
  \\      /  F ield         | OpenFOAM: The Open Source CFD Toolbox
   \\    /   O peration     | Website:  https://openfoam.org
    \\  /    A nd           | Version:  7
     \\/     M anipulation  |
\*---------------------------------------------------------------------------*/
FoamFile
{
    version     2.0;
    format      ascii;
    class       volScalarField;
    location    "0.07";
    object      ed::R_H2O;
}
// * * * * * * * * * * * * * * * * * * * * * * * * * * * * * * * * * * * * * //

dimensions      [1 -3 -1 0 0 0 0];

internalField   nonuniform List<scalar> 
815
(
1.6558733302
1.68499323121
1.76135980457
2.39892996339
2.46566435532
2.60831527902
2.11005840118
2.09077056595
2.05334177081
1.0658282401
1.05960222697
1.04252791575
0.606702415585
0.601896329495
0.592320772514
0.362574952408
0.360313344652
0.355024929554
0.217534781609
0.215719531809
0.212537307692
0.122485106196
0.121583578182
0.119570597157
0.0626700301823
0.0620641127362
0.0609101239813
0.0291238346589
0.0288398941136
0.028242084335
0.0132713514067
0.0131395936637
0.012881614156
0.00635522114797
0.00630384438039
0.00620150099536
0.00337030217425
0.00334869621207
0.00330386693366
0.00195527908063
0.00194426509951
0.00192310775579
0.0011827320704
0.00117781340343
0.00116748416247
0.000724656712922
0.000721796594372
0.000716570597853
0.000441515070408
0.00044022470162
0.000437770509382
0.00026620039203
0.000265589747336
0.000264440389137
0.000157912200407
0.000157631830051
0.000157117516819
9.18375901525e-05
9.17163086863e-05
9.14999848072e-05
5.22672590717e-05
5.22174567251e-05
5.21290167206e-05
2.90758323015e-05
2.90431272588e-05
2.90083645224e-05
1.57806172555e-05
1.57693367618e-05
1.57598661579e-05
8.38203626761e-06
8.3749119735e-06
8.37282258419e-06
4.36007978341e-06
4.35779089717e-06
4.35907556517e-06
2.24043595937e-06
2.23953576904e-06
2.24095208413e-06
1.15598256028e-06
1.15560362539e-06
1.15657609636e-06
6.27923212263e-07
6.27789335371e-07
6.28326349985e-07
4.23877335094e-07
4.24098759325e-07
4.24279935317e-07
4.92251807251e-07
4.93262697664e-07
4.93386620252e-07
4.80508286961e-07
4.80935668015e-07
4.81494091312e-07
1.8677110067
2.81401530278
2.0001875797
1.01845423393
0.578526903425
0.347409223992
0.20803065478
0.116908165814
0.0593893895721
0.0274559486796
0.0125374160079
0.00606618019992
0.00324596994951
0.00189596393496
0.00115444778443
0.000710109906864
0.000434841181695
0.000263156687844
0.000156604401273
9.1329182131e-05
5.2089169669e-05
2.90108922727e-05
1.57768697537e-05
8.38756496154e-06
4.37042125242e-06
2.24811834053e-06
1.1607421285e-06
6.30530373088e-07
4.24985419421e-07
4.93073333967e-07
4.82281805816e-07
0.0868666621138
0.0250720040859
0.00403912388804
0.000412781254804
5.63778995895e-05
1.95111694657e-05
9.53697403662e-06
2.11692433406
2.6867169787
3.6089125163
4.98423305108
5.09075876185
3.60778646443
2.41095608627
1.48190592054
0.846058968652
0.472392973949
0.269229057373
0.150542732104
0.077920884555
0.0332303650942
0.00937326708431
0.00163228391172
0.000235404267569
6.19338563562e-05
3.30949108555e-05
1.72607409715e-05
3.27974885272
3.7774455464
3.10821045401
2.42768967988
1.77853737621
1.21094152688
0.760767995401
0.450709624124
0.266753188029
0.163931866373
0.101511743868
0.0597040263834
0.0308933438327
0.0123145465313
0.00350213671786
0.000763352039194
0.000193687314837
9.31052299422e-05
5.77056374892e-05
3.01838948362e-05
1.87979771742
1.6464438942
1.35256700039
1.03592651257
0.736370693158
0.486016334379
0.299908435349
0.179488534065
0.109466788959
0.0679798591256
0.0415114965652
0.0239717441357
0.0122465528092
0.00486916121252
0.00159074342937
0.00051226887433
0.000233641475215
0.000150506248414
9.80313191433e-05
5.02885938377e-05
0.961032969888
0.843699356077
0.692157509249
0.527049515236
0.370899048508
0.241302833033
0.146604758527
0.0862867165515
0.0510555381085
0.0304623564514
0.0180035328055
0.0102974383757
0.00540588675158
0.00242882603472
0.00104922180982
0.000526262641268
0.000335691769963
0.000236704203156
0.000155825299121
7.90996347316e-05
0.547382899344
0.483370257989
0.398641220817
0.303929408066
0.212839799057
0.137005847585
0.0820889181345
0.0473851268372
0.0272923471427
0.0158554169846
0.00923792163498
0.00536973714062
0.00307216757429
0.00170169885951
0.000997748316987
0.000659185682533
0.000472002448409
0.000336301944144
0.000220578093695
0.000111844820229
0.330033291618
0.293562207347
0.244199451953
0.187721471055
0.132396720844
0.0857288301733
0.0514457278882
0.0294417412138
0.0167861482062
0.00981013548727
0.00593192503594
0.0037204349146
0.00240547371068
0.00159430064598
0.00110345441691
0.000796654518299
0.000581278011414
0.000413108005851
0.000270496911449
0.000136435897228
0.198238336314
0.178548701541
0.151918002822
0.120611876821
0.0879704881045
0.0585564245496
0.0358023908516
0.0207102184654
0.0119995004989
0.00728095001561
0.00467181718301
0.0031369281751
0.00217375831123
0.00153900450657
0.00110991861142
0.000810322073119
0.00059157770539
0.00042153908144
0.000277139876452
0.000138482926557
0.110956107301
0.0993046676226
0.0840615270829
0.0667625311325
0.0493117810936
0.0337782835763
0.0217020773352
0.013527341326
0.00853190779467
0.00556952582886
0.00376566530044
0.00260831589994
0.00183170820797
0.00130038801416
0.000936031882639
0.000685300201847
0.000508075384638
0.000371682860607
0.000247433380045
0.000121426664943
0.0561275435453
0.0498583410946
0.041914117624
0.0331808532207
0.0247102140136
0.0174257775696
0.0118319678994
0.00792577272119
0.00535178544249
0.00366525739593
0.00253673159475
0.0017723045792
0.00125407424398
0.000901852880249
0.000660992846341
0.000494446154046
0.000375485753932
0.000282038753428
0.000192231960535
9.74294196536e-05
0.0258030319416
0.0226582928898
0.0188519404439
0.0148932768487
0.0112551871995
0.00824392174923
0.00593732470761
0.00424848592332
0.00303786297507
0.00216932669819
0.00154843496184
0.00111179222204
0.000808656900473
0.000597680431424
0.000448747256802
0.000342493768163
0.00026420283783
0.000200541896367
0.000138037676658
6.94634403475e-05
0.0118344257291
0.0104834311004
0.00885767183304
0.0071730042941
0.00561224258965
0.00429209950842
0.00323119362229
0.00240052299934
0.00176385382511
0.00128780822931
0.0009410543944
0.00069317185361
0.000516975963418
0.000390324801302
0.000297684377702
0.000229260000815
0.000177202758028
0.000133958996401
9.12802823407e-05
4.40038219495e-05
0.00578334321163
0.00522897783227
0.00454174048968
0.00380168167143
0.00308285197163
0.00243637930928
0.00188525857777
0.00143373907241
0.00107788684186
0.000806417657899
0.000603665658817
0.000453607846686
0.000342638902022
0.000260016563898
0.000198153697746
0.000151548389756
0.000115397752059
8.50732843273e-05
5.58937669447e-05
2.53833719416e-05
0.00312404311784
0.00288152691865
0.00256686568264
0.00220859133897
0.00184027815649
0.00149093525882
0.00117969778896
0.000915984664498
0.000701859915201
0.000533577781502
0.000403937133723
0.000305109757737
0.000230223936481
0.000173586099203
0.000130777678468
9.82242873348e-05
7.27673976077e-05
5.15057491601e-05
3.20490998115e-05
1.3724742256e-05
0.00183890876958
0.00172286650192
0.001565530434
0.0013770464399
0.00117318108448
0.000970458758304
0.000782241402793
0.000617051051568
0.000478564420084
0.000366505489918
0.00027803056603
0.000209344748683
0.000156694873464
0.000116653604252
8.62964359141e-05
6.31363844817e-05
4.5043715972e-05
3.02374009123e-05
1.76079715935e-05
7.11244463555e-06
0.00112675677364
0.00106907671439
0.000987645372721
0.000885490144228
0.000769615467034
0.000648911017928
0.000531903916138
0.000425188900076
0.000332688098906
0.000255726432452
0.000193703298289
0.000144943933409
0.000107338825747
7.86820387976e-05
5.69410839091e-05
4.03699216149e-05
2.75570446827e-05
1.74220896225e-05
9.43539151787e-06
3.60653915852e-06
0.00069677754485
0.000668470141135
0.000626788212735
0.000572013063723
0.000506838806232
0.00043559976301
0.000363253068873
0.000294395692801
0.000232477861696
0.000179410697583
0.000135726942594
0.000100959593248
7.3988473078e-05
5.33826820639e-05
3.77338353991e-05
2.58472670083e-05
1.68106287689e-05
9.97747896122e-06
5.02071631548e-06
1.82282546578e-06
0.000428769039889
0.000415409754539
0.000394767188023
0.000366257285209
0.000330618566215
0.00028966799452
0.000245968890085
0.000202393024033
0.000161580814563
0.000125433396379
9.49583400157e-05
7.0346678232e-05
5.11027470951e-05
3.63248825495e-05
2.5068731189e-05
1.65640159948e-05
1.02452298425e-05
5.70808804008e-06
2.67964482254e-06
9.30963865854e-07
0.000260548535704
0.000254610350984
0.000244878201365
0.000230661784221
0.000211935716603
0.000189274331514
0.000163796022793
0.000137073209535
0.000110889669126
8.68238091892e-05
6.5965898201e-05
4.88180124647e-05
3.52551082734e-05
2.47334186486e-05
1.66673678373e-05
1.06153607028e-05
6.24571262823e-06
3.27712641678e-06
1.44685359777e-06
4.85437776782e-07
0.000155600108687
0.000153203729012
0.000148925289701
0.000142223925239
0.00013285844566
0.000120881307316
0.000106652765235
9.08973550185e-05
7.46721527296e-05
5.912461767e-05
4.52228799234e-05
3.35594381805e-05
2.41827478281e-05
1.67769087513e-05
1.10419616708e-05
6.78088705099e-06
3.80596581089e-06
1.89360449846e-06
7.9483179249e-07
2.6020195127e-07
9.10198872751e-05
9.02087704738e-05
8.85190693979e-05
8.55884753736e-05
8.11810403912e-05
7.51845492042e-05
6.7624487727e-05
5.87507479511e-05
4.91001789802e-05
3.94106816702e-05
3.04479200484e-05
2.27663271619e-05
1.64392834151e-05
1.12939173998e-05
7.2615430284e-06
4.30821220512e-06
2.31953579626e-06
1.10440196111e-06
4.45916645406e-07
1.4364682552e-07
5.20431045798e-05
5.18730406624e-05
5.13236560397e-05
5.01760979167e-05
4.82600983172e-05
4.54467485101e-05
4.16516142529e-05
3.69011790977e-05
3.14159236983e-05
2.56191499238e-05
2.00693117061e-05
1.52094693982e-05
1.10454861328e-05
7.51547698403e-06
4.72270996612e-06
2.71651466813e-06
1.41277547966e-06
6.49966382113e-07
2.5518270655e-07
8.14506811697e-08
2.90499532078e-05
2.91008641266e-05
2.9003092355e-05
2.86354758396e-05
2.78935908479e-05
2.66785560931e-05
2.48953342828e-05
2.24922319442e-05
1.95263285438e-05
1.62152532659e-05
1.29449976849e-05
1.00068245377e-05
7.31632932242e-06
4.92341945195e-06
3.02742564983e-06
1.69609163756e-06
8.58418345519e-07
3.85097181894e-07
1.48366559192e-07
4.7153663082e-08
1.5830274317e-05
1.59279465811e-05
1.59766054992e-05
1.59142176837e-05
1.56825160172e-05
1.52187659645e-05
1.44498028942e-05
1.33119853035e-05
1.17944643024e-05
1.0001996861e-05
8.19317412859e-06
6.48936682116e-06
4.76175233321e-06
3.16316573876e-06
1.90753571818e-06
1.04661651183e-06
5.1922138997e-07
2.2892348545e-07
8.71570827078e-08
2.76525118867e-08
8.43032673666e-06
8.51520285375e-06
8.59031318801e-06
8.62598642486e-06
8.59270054193e-06
8.45471901614e-06
8.16414314697e-06
7.66929356463e-06
6.94156362399e-06
6.03709239852e-06
5.11662436603e-06
4.1458345714e-06
3.03342511868e-06
1.98730049104e-06
1.17930860415e-06
6.37249372413e-07
3.1191386392e-07
1.360172318e-07
5.14114662477e-08
1.62813691152e-08
4.39994755447e-06
4.45945437495e-06
4.52247588378e-06
4.57580302475e-06
4.60582130167e-06
4.5936950748e-06
4.51093602317e-06
4.32174470898e-06
4.00247153971e-06
3.59519555533e-06
3.16909082551e-06
2.59973255309e-06
1.88453063683e-06
1.21871238703e-06
7.14794732303e-07
3.8247746704e-07
1.85704311897e-07
8.0448174309e-08
3.02454082016e-08
9.52175895519e-09
2.26619269652e-06
2.30369766549e-06
2.34760385778e-06
2.39266387553e-06
2.43322159876e-06
2.45998923581e-06
2.45679753397e-06
2.40141222691e-06
2.28314438636e-06
2.13696339258e-06
1.94617505651e-06
1.5919918612e-06
1.13975716404e-06
7.29661570989e-07
4.2485483713e-07
2.26122126091e-07
1.09319391952e-07
4.71495598273e-08
1.76132322351e-08
5.4674471567e-09
1.17114009757e-06
1.19323710127e-06
1.22096604738e-06
1.25268155721e-06
1.28641055956e-06
1.31776393093e-06
1.33775267557e-06
1.33439837505e-06
1.30956769175e-06
1.27961527916e-06
1.17853390792e-06
9.50253185563e-07
6.72038394651e-07
4.272510824e-07
2.47885493821e-07
1.3164378318e-07
6.34914606973e-08
2.72567545341e-08
1.00727367519e-08
3.0379068063e-09
6.36017861291e-07
6.47845842821e-07
6.63654210903e-07
6.83390789204e-07
7.06713313871e-07
7.31588056255e-07
7.53003069887e-07
7.65837504415e-07
7.76470206868e-07
7.75713167431e-07
7.03379369156e-07
5.55399255837e-07
3.88403215394e-07
2.45829012525e-07
1.42441426254e-07
7.55728965973e-08
3.63462601992e-08
1.54837160768e-08
5.6141893654e-09
1.60885676373e-09
4.26747403122e-07
4.30883925378e-07
4.37814666713e-07
4.48669541378e-07
4.64171971097e-07
4.83407175631e-07
5.02166585525e-07
5.13595667899e-07
5.14603586537e-07
4.91931832343e-07
4.24316496661e-07
3.24969791048e-07
2.24063180117e-07
1.4103466706e-07
8.15477327698e-08
4.31589390782e-08
2.06381895554e-08
8.67726315683e-09
3.05387669665e-09
8.04609472023e-10
4.92409911625e-07
4.92456285849e-07
4.96530807773e-07
5.07753404709e-07
5.28654853039e-07
5.58695216942e-07
5.87637958488e-07
5.81340008967e-07
5.04526853706e-07
3.95550296102e-07
2.96162520719e-07
2.10071488378e-07
1.39398117621e-07
8.61113598905e-08
4.93099026165e-08
2.59100876584e-08
1.22742078844e-08
5.06835903668e-09
1.71143087565e-09
3.9511695348e-10
4.84140080741e-07
4.89190994042e-07
4.98898237591e-07
5.15334632544e-07
5.4070060756e-07
5.75847517627e-07
6.18240477453e-07
6.52079373128e-07
6.25483863165e-07
4.93524330504e-07
3.3394743299e-07
2.12420665441e-07
1.30473016557e-07
7.68879658944e-08
4.28761848944e-08
2.21890673377e-08
1.03761790704e-08
4.18171910545e-09
1.32426502581e-09
2.52704066285e-10
6.51783706979e-06
4.5809666887e-06
1.1662425364e-05
8.35140034401e-06
2.01034524798e-05
1.4475905255e-05
3.26049164443e-05
2.33425863291e-05
4.88787108761e-05
3.41547293331e-05
6.53989028467e-05
4.35623347946e-05
7.54325174126e-05
4.59840148012e-05
7.02871032482e-05
3.57879416206e-05
5.06957623916e-05
1.64278495613e-05
3.7925610407e-05
1.147738014e-05
2.18501807575e-05
4.8816950188e-06
1.2956256097e-05
2.53568815592e-06
7.87448574882e-06
1.51621481295e-06
4.69665977592e-06
9.32928263023e-07
2.69335188867e-06
5.5623616012e-07
1.49304865281e-06
3.18072574988e-07
8.11001556006e-07
1.77212884623e-07
4.39087380211e-07
9.81299401745e-08
2.40221273818e-07
5.48500597118e-08
1.34061081053e-07
3.12496483253e-08
7.65394860834e-08
1.81937908965e-08
4.4611893291e-08
1.07903386257e-08
2.63848833846e-08
6.47556915975e-09
1.57053843726e-08
3.89252027367e-09
9.31205868221e-09
2.32244640548e-09
5.42614318643e-09
1.35002316245e-09
3.05557155408e-09
7.51314226537e-10
1.62478032742e-09
3.8732783395e-10
7.82140287405e-10
1.77511011358e-10
3.2341819906e-10
6.88527072793e-11
1.11975825022e-10
2.3112380882e-11
4.53432051254e-11
1.02434939573e-11
)
;

boundaryField
{
    inletfuel
    {
        type            calculated;
        value           nonuniform 0();
    }
    inletair
    {
        type            calculated;
        value           nonuniform 0();
    }
    outlet
    {
        type            calculated;
        value           uniform 0;
    }
    axis
    {
        type            empty;
    }
    leftside
    {
        type            calculated;
        value           uniform 0;
    }
    burnerwall
    {
        type            calculated;
        value           nonuniform 0();
    }
    front
    {
        type            wedge;
    }
    back
    {
        type            wedge;
    }
    procBoundary1to0
    {
        type            processor;
        value           uniform 0;
    }
}


// ************************************************************************* //
