/*--------------------------------*- C++ -*----------------------------------*\
  =========                 |
  \\      /  F ield         | OpenFOAM: The Open Source CFD Toolbox
   \\    /   O peration     | Website:  https://openfoam.org
    \\  /    A nd           | Version:  7
     \\/     M anipulation  |
\*---------------------------------------------------------------------------*/
FoamFile
{
    version     2.0;
    format      ascii;
    class       volScalarField;
    location    "0.07";
    object      epsilon;
}
// * * * * * * * * * * * * * * * * * * * * * * * * * * * * * * * * * * * * * //

dimensions      [0 2 -3 0 0 0 0];

internalField   nonuniform List<scalar> 
815
(
1155.23377319
1155.90569479
1155.80377211
1088.25835175
1094.71974249
1106.05866278
1226.26794038
1234.6337103
1248.59194583
1302.00310936
1307.76284334
1316.3495632
1199.94300757
1202.51239056
1205.47237099
936.94936962
939.322941166
942.37095063
641.127255281
641.924216668
643.26772352
386.150932923
385.883607319
385.622968262
178.044456256
177.582895957
177.108161805
66.4150483551
66.2724529479
66.1569061076
25.4381187711
25.3961591828
25.3784427407
12.523490501
12.5137145644
12.5147411683
8.41397155766
8.40932646778
8.41110515812
6.83878822103
6.83734787829
6.84205675058
6.04784067956
6.04818318551
6.05539885763
5.52130657365
5.52228508894
5.53075217009
5.11109418129
5.11335557495
5.12422575378
4.76863736165
4.77165792392
4.78409575666
4.46820622034
4.47187421885
4.48576804268
4.19454025206
4.1986348956
4.21353212304
3.93676554491
3.94097360887
3.95635825311
3.68873768313
3.69245440604
3.70713636288
3.44410283749
3.44741613826
3.46139503364
3.20338571929
3.20575109548
3.21791637351
2.96410335775
2.96578341665
2.97635506321
2.73122763177
2.73188851866
2.740196145
2.51456788579
2.51416678797
2.51991916188
2.37458646911
2.37336685303
2.37648596064
2.72961471379
2.72957307371
2.72992636545
6.8076774865
6.82410561485
6.82029163937
37.9232044829
37.9945481905
37.975790006
1154.87242728
1118.94659004
1263.19576573
1323.4006037
1206.2014628
944.553252074
644.813394642
385.454454325
176.69318698
66.0438337699
25.3660407589
12.5278437319
8.42672368162
6.85961826836
6.07524038751
5.55260044275
5.14911845338
4.81145547325
4.51542540486
4.24486992688
3.98865175045
3.73907350346
3.4924088869
3.24676366606
3.00263767988
2.76306175671
2.53886241919
2.39108574573
2.73820071934
6.80882049217
37.8994821341
22.0091353663
6.57458895415
2.22618233029
0.914352290747
0.48312026095
0.382449326109
0.68745270551
1151.4244772
1131.44772018
1071.85078515
946.777165279
753.872074388
523.250292967
308.363182084
162.98230847
85.1430248666
49.1703599017
36.4596943308
30.3073347845
20.997683306
10.1979619123
4.06417052619
1.81605857122
0.955261359875
0.609312646148
0.504937544651
0.76573493443
1140.38204441
1147.14004944
1087.429001
921.774473061
665.729737168
391.828795686
187.741947419
83.2794377441
41.7401627715
26.7327383347
20.8864819842
16.9665777317
11.6582440695
6.29637750158
3.26552738893
1.92765234145
1.26806532105
0.91175390552
0.746912258183
0.906759791289
1282.58491901
1263.53285428
1144.84062322
906.862689142
597.565783756
314.609193681
136.949995339
59.9774096125
32.465712818
21.8193037762
16.6353935477
12.9880638741
9.34841602407
5.91256679735
3.9054979463
2.79382579604
2.06223283343
1.55952684222
1.23442349937
1.18196128716
1326.43854757
1274.43917432
1117.41791465
852.15289732
543.503441544
287.381310097
135.245193072
66.5209410381
38.7377698515
26.4932985691
19.927099414
15.3809852396
11.4864989742
8.36737435477
6.29980178117
4.84926998694
3.69888016543
2.84200282294
2.19083681915
1.72929435962
1199.68746671
1143.86423851
1002.17922108
777.427997728
523.892845173
310.89076951
172.265028165
98.0416700213
61.6199278266
42.633301449
31.0844933952
23.2465867931
17.6192851305
13.4193491972
10.3323654333
8.04696581105
6.27825411857
4.93066487858
3.80939724759
2.67767507411
945.033302364
919.532573577
838.035468122
695.36551539
520.374320549
355.429171513
228.324008744
144.759605456
94.1253779956
63.5467386533
44.4050204792
32.0519249118
23.6437802278
17.7678929765
13.6314701722
10.7770901851
8.7571948247
7.32889701992
5.94005770814
3.9774691468
647.461311495
646.096518145
621.988884294
562.698834963
466.064775079
351.550879251
244.045615106
160.23486138
103.867293925
68.260788161
45.9194123198
31.803434697
22.7920438237
16.9940377173
13.3054343373
11.077820176
9.84687533409
9.16388060967
7.97769634428
5.3209377975
384.765879206
381.214409999
365.755577804
333.063514552
282.245427672
219.928861498
157.995618738
107.315431843
71.319168031
47.3661720869
32.0063291523
22.3967940499
16.4478052285
12.7962735082
10.6703018142
9.64128530284
9.50154727322
9.96425261552
9.47666838336
6.76488418288
175.669377921
172.165006017
162.881951434
146.090323962
122.417910841
95.477709622
70.1210843346
49.5368392361
34.5515694938
24.2562846981
17.5147414911
13.3236829898
10.8112129818
9.36721267482
8.67041792933
8.57939496513
9.11282647722
10.1940097967
10.3998697584
9.02958002344
65.5583801896
63.3619245814
58.7811240807
51.8026157361
43.2071412228
34.457407444
26.7618152566
20.5660139433
15.9215815511
12.6086455971
10.3870940117
9.01181490617
8.25242331843
7.95039994108
8.03219929062
8.49338417137
9.42548157209
10.7810890062
11.7404178949
12.6288358855
25.2258723662
24.4648245643
22.9409240263
20.7118239046
18.031882938
15.3359381423
12.9030508234
10.8580503738
9.27345343492
8.17297221144
7.52447268559
7.25568177274
7.29273274878
7.58734426974
8.13066690633
8.96280925026
10.1809572807
11.8533625611
13.8615048409
17.5280095536
12.519733734
12.3424217211
11.895700225
11.1538285001
10.1741526898
9.09594386875
8.07920496265
7.24747149673
6.67852571109
6.39605515642
6.38321411677
6.60778444932
7.04462324315
7.68743211304
8.55725219507
9.71550576191
11.2668847917
13.3945264144
16.500806072
22.7876754777
8.45388124055
8.43603345223
8.27610705952
7.92343883989
7.39231929581
6.77200410887
6.19162242999
5.76387545476
5.55372815178
5.57985715064
5.83387256245
6.30355342569
6.98743174802
7.8992237907
9.07550934673
10.5876504256
12.5603383155
15.255490889
19.3527752647
27.5149161851
6.89861596473
6.92709461668
6.85457941562
6.62653505705
6.24205270208
5.77014225675
5.32523871925
5.01739312085
4.9153418641
5.04606690727
5.41446369522
6.02707751778
6.90427685415
8.08144592159
9.61237379112
11.5771127285
14.1017779796
17.4404613682
22.2694192879
31.1145438284
6.12165657017
6.17433997615
6.14584810066
5.97843077555
5.65865718623
5.23956064319
4.82579375101
4.52996466963
4.43288033732
4.57662865414
4.98560895538
5.69179951538
6.74829280381
8.225750593
10.2053351736
12.7737892191
16.0223989245
20.0881341699
25.3691664224
33.9205779044
5.60603781066
5.67979008761
5.68593329965
5.56281118751
5.28476877131
4.88891290963
4.46978065146
4.14279698202
4.00260995935
4.10977448615
4.51298262032
5.28097845161
6.51835845909
8.35421425202
10.9151779393
14.2872507059
18.4690806631
23.3401925296
28.7603708819
36.3981284241
5.20989714836
5.30244605513
5.33889851987
5.25378412949
5.01011730759
4.62939508957
4.19468660993
3.82196636872
3.61779903747
3.66160107259
4.02964779807
4.83863653475
6.26928538888
8.54256803729
11.8504413537
16.2549369725
21.5716181886
27.2562279
32.54078195
38.9882809078
4.87840876428
4.98701554808
5.04938756567
4.99753050534
4.78535638312
4.42020264357
3.97231832269
3.55433590248
3.28137510703
3.2495899854
3.56393731425
4.40021684121
6.04549837962
8.85434522156
13.0991500953
18.7642675878
25.3579485306
31.7718884649
36.656760376
41.8908337569
4.58767268417
4.70920757881
4.79264056536
4.76891691805
4.58546971437
4.23803765994
3.7843806459
3.33070748324
2.99612710095
2.89042398163
3.14755572402
4.01404438313
5.9186194651
9.39288702207
14.7812784005
21.8953454801
29.8043978364
36.782761169
41.0653210195
45.1874506353
4.32079134585
4.4512737098
4.5501359387
4.54851665256
4.39015528843
4.06232586983
3.61169255168
3.13619051176
2.75505776642
2.58848295954
2.80074594435
3.72333109291
5.96483638854
10.2670131275
16.9974066629
25.671897334
34.8276705016
42.1689509146
45.7078175032
48.8361433958
4.06637793117
4.20134629203
4.30928163934
4.32287037417
4.18475519525
3.87699314903
3.4374075614
2.95517318134
2.54708750143
2.342167805
2.5396367539
3.57674479832
6.28201745531
11.6130747687
19.8618189894
30.120363892
40.3603911967
47.8335161529
50.5250175813
52.7607836427
3.81622527249
3.95110101735
4.06158840226
4.08299817283
3.95934356926
3.67052575011
3.24827833526
2.77416692755
2.36114993129
2.14790651344
2.37998450123
3.6328827554
6.99363376217
13.5898450019
23.4836603553
35.2502013658
46.3450819704
53.7093718066
55.4668648098
56.8716187484
3.56681210012
3.69641941157
3.80287595662
3.82493114286
3.70982854626
3.43820229197
3.03847250528
2.58612525522
2.19104434811
2.00740122116
2.35011123811
3.98155678003
8.26848432204
16.3783637029
27.9648274551
41.0752379247
52.7468278429
59.7661722924
60.4888220326
61.0374325253
3.31609294211
3.43608073382
3.53280874709
3.54935683694
3.43790147874
3.18202361622
2.80922101475
2.39109873429
2.03859276147
1.93566720146
2.5073311924
4.76412511594
10.3177758681
20.1544303704
33.3830935404
47.5807436941
59.5206704758
65.9556547503
65.5103727335
65.0842297267
3.06524541564
3.17169546965
3.25418884455
3.26086320879
3.14992162647
2.90943652653
2.56802063921
2.19685927736
1.91762377706
1.97241581908
2.95952038665
6.18915931604
13.3749936806
25.0434816887
39.7337017546
54.693249509
66.5819555736
72.188441402
70.392955431
68.6968886643
2.81735553175
2.90776289905
2.97325541884
2.96773743947
2.85621155836
2.63224686971
2.32773665885
2.01969508264
1.85967014197
2.197106409
3.88274997981
8.50845328876
17.6026928685
31.0326579883
46.8858549688
62.2341754707
73.7321389449
78.2508899274
74.8772525762
71.4817987764
2.58397898572
2.6569063296
2.7040717678
2.68566101231
2.57392434268
2.36881463805
2.10868955838
1.8880657659
1.92274163612
2.74170365213
5.50378791027
11.9110143452
22.9754634877
37.9102166024
54.5115262225
69.814860897
80.57207813
83.7680876047
78.6049772552
72.9318179086
2.42603236146
2.4791183398
2.50521037859
2.47129509935
2.3573582422
2.17102878218
1.96257192533
1.86421524166
2.20946510546
3.78444906377
8.01043109875
16.3827935561
29.2059206557
45.1864189936
62.0195563246
76.8195852045
86.5295032962
88.3018207857
81.3539847038
73.0249751084
2.75723095056
2.7764353022
2.76266653738
2.69084587699
2.55025279415
2.35901283436
2.18759034141
2.23460738097
3.01946533744
5.63072038101
11.56559597
21.790013085
35.9331808407
52.4187621951
68.9920673527
82.9400099672
91.5353289214
92.2282458961
84.2509639095
73.8788141722
6.77734409891
6.6867879398
6.53028599008
6.29415834052
5.98359402777
5.63652945887
5.36026276907
5.46206574621
6.7455620938
10.633425736
18.4309730864
30.3516829364
45.4910152413
62.1386350048
78.2188062604
91.3280274365
99.3288539302
100.263513988
93.5673858141
83.8561812991
37.7072840273
37.2904189382
36.6922753041
35.9155396005
34.9960514835
34.0168949478
33.1746264451
32.992436724
34.7602155037
40.1949508498
49.9051404025
63.0063599897
78.1120714598
93.5865578966
107.783820606
119.138505021
126.442487761
128.994534384
126.491253186
121.279142947
2.08707620336
2.08742885821
2.15180659982
2.23541196914
2.23270262744
2.43634887425
2.41372519904
2.72201427336
2.81057487212
3.14264481773
3.53483967526
3.75454361017
4.70292449367
4.66048119374
6.69659609676
6.0391485652
11.5520889341
9.96594450701
22.1633344378
60.5213603589
30.8602375626
84.1217870306
39.203361401
110.835058048
46.3944974546
141.203318052
52.9325754535
174.116731681
58.9017261866
209.21352367
65.1716592389
246.075690618
71.9783940996
285.59654291
79.5187288265
328.04370284
87.8940420217
373.335915128
97.0794913517
421.354608808
106.880160929
471.638160009
117.049087099
523.343688667
127.317574525
575.294633139
137.351817634
626.044221154
146.612221443
673.575925461
154.452948486
715.55870616
159.714840118
749.42492534
161.232641003
772.916473931
158.554308543
784.738027698
153.620299035
786.094674664
153.409061013
777.948056591
169.716793362
738.216528064
)
;

boundaryField
{
    inletfuel
    {
        type            turbulentMixingLengthDissipationRateInlet;
        mixingLength    0.005;
        phi             phi;
        k               k;
        value           nonuniform 0();
    }
    inletair
    {
        type            turbulentMixingLengthDissipationRateInlet;
        mixingLength    0.005;
        phi             phi;
        k               k;
        value           nonuniform 0();
    }
    outlet
    {
        type            inletOutlet;
        inletValue      uniform 200;
        value           uniform 200;
    }
    axis
    {
        type            empty;
    }
    leftside
    {
        type            epsilonWallFunction;
        value           nonuniform List<scalar> 
32
(
2.08742885821
2.23541196914
2.43634887425
2.72201427336
3.14264481773
3.75454361017
4.66048119374
6.0391485652
9.96594450701
60.5213603589
84.1217870306
110.835058048
141.203318052
174.116731681
209.21352367
246.075690618
285.59654291
328.04370284
373.335915128
421.354608808
471.638160009
523.343688667
575.294633139
626.044221154
673.575925461
715.55870616
749.42492534
772.916473931
784.738027698
786.094674664
777.948056591
738.216528064
)
;
    }
    burnerwall
    {
        type            epsilonWallFunction;
        value           nonuniform 0();
    }
    front
    {
        type            wedge;
    }
    back
    {
        type            wedge;
    }
    procBoundary1to0
    {
        type            processor;
        value           nonuniform List<scalar> 
27
(
2074.76932111
2063.92044913
2036.25223922
1998.24149175
58.1919005868
13.334937799
3.40674372587
1.08374474379
0.453951675343
0.318270422483
0.63379121029
1913.22724254
1748.04286703
1538.6857498
1297.75548649
1035.9579277
767.911190325
521.197585063
331.16619678
199.734829608
118.674942934
78.8939838201
67.1926209697
53.6589257037
53.6589257037
2.00391010659
1.96834758485
)
;
    }
}


// ************************************************************************* //
