/*--------------------------------*- C++ -*----------------------------------*\
  =========                 |
  \\      /  F ield         | OpenFOAM: The Open Source CFD Toolbox
   \\    /   O peration     | Website:  https://openfoam.org
    \\  /    A nd           | Version:  7
     \\/     M anipulation  |
\*---------------------------------------------------------------------------*/
FoamFile
{
    version     2.0;
    format      ascii;
    class       volScalarField;
    location    "0.07";
    object      H2;
}
// * * * * * * * * * * * * * * * * * * * * * * * * * * * * * * * * * * * * * //

dimensions      [0 0 0 0 0 0 0];

internalField   nonuniform List<scalar> 
815
(
0.014748763734
0.0146242371076
0.0143551304637
0.00626984402284
0.00618109596173
0.00598983720671
0.00251466364611
0.00247255234031
0.0023846231577
0.00118810240521
0.00116926571508
0.00112965651478
0.000647006988255
0.000637825743002
0.00061853846498
0.000377368999122
0.000372886934712
0.000363213302667
0.000207410131892
0.000205330420732
0.000200860411741
9.75442298955e-05
9.65654714237e-05
9.45008887493e-05
4.1014170747e-05
4.05851842133e-05
3.97023967923e-05
1.77948754977e-05
1.75970685957e-05
1.71868548027e-05
9.43111874489e-06
9.33473531726e-06
9.13663292742e-06
6.16136603068e-06
6.10984685197e-06
6.00252582872e-06
4.17564541133e-06
4.1463764271e-06
4.08513189264e-06
2.75867387598e-06
2.74247184985e-06
2.7083199344e-06
1.78452650773e-06
1.77567546059e-06
1.75684902888e-06
1.13476336657e-06
1.12992595255e-06
1.11961617589e-06
7.08441657745e-07
7.05924945511e-07
7.00494515091e-07
4.34014536342e-07
4.32700217568e-07
4.2984500115e-07
2.60242625524e-07
2.59564942078e-07
2.58085706373e-07
1.52434411094e-07
1.52095387719e-07
1.51346006473e-07
8.71851704992e-08
8.70083358077e-08
8.66263504665e-08
4.86329320054e-08
4.85434168573e-08
4.83562886337e-08
2.64745215025e-08
2.64320386352e-08
2.6345150186e-08
1.40953614118e-08
1.40751740025e-08
1.40361539242e-08
7.35858203214e-09
7.35022848448e-09
7.33464184658e-09
3.79621013489e-09
3.79282588056e-09
3.78696547543e-09
1.96040285296e-09
1.95915813164e-09
1.957293798e-09
1.03546088744e-09
1.03508456473e-09
1.03473053783e-09
5.63850068424e-10
5.63746728578e-10
5.638462848e-10
2.84914419367e-10
2.8484293329e-10
2.85016303755e-10
1.12969504089e-10
1.12958764193e-10
1.13048691688e-10
0.0139820232673
0.00572991132506
0.00226848229789
0.00107705247242
0.000592811739032
0.000350151492554
0.000194821366159
9.17300227274e-05
3.85274917584e-05
1.66429962973e-05
8.87325466668e-06
5.85880632923e-06
4.00267983007e-06
2.66215954806e-06
1.73132489891e-06
1.10561783784e-06
6.93091424443e-07
4.25953465267e-07
2.56074975125e-07
1.50333092129e-07
8.61158991182e-08
4.81094760894e-08
2.62324008165e-08
1.39867711535e-08
7.31549296519e-09
3.78023753775e-09
1.95549889411e-09
1.03466567164e-09
5.64227514026e-10
2.85429818763e-10
1.1322969798e-10
4.58581479574e-05
1.18224877108e-05
2.6887322271e-06
4.8015708325e-07
8.89184133572e-08
3.20739228477e-08
1.25799152568e-08
0.0131713400434
0.0115936995046
0.00958597091094
0.00733876676136
0.00512721073594
0.00344649633063
0.00219354213833
0.00129371353428
0.000723875783422
0.000401484983158
0.000213157964093
0.000102691148594
4.43575431581e-05
1.6915944438e-05
5.31133058624e-06
1.35951427267e-06
2.79786222388e-07
8.52244464501e-08
4.74973613581e-08
2.25351194465e-08
0.00517903050486
0.0041823472783
0.0031772280078
0.00228381555857
0.00155156867082
0.00100088740946
0.00061766873071
0.000371705959685
0.000224752454981
0.00013441157353
7.58273494264e-05
3.91294276401e-05
1.83053090207e-05
7.45084339731e-06
2.56424372455e-06
7.2821825444e-07
2.1805344797e-07
1.11725894318e-07
7.32649823998e-08
3.86534100449e-08
0.0020333096157
0.0016399623222
0.00123187362628
0.000867323075524
0.000577871310788
0.000372003633826
0.000236678412776
0.000149809254718
9.36383472541e-05
5.67975504136e-05
3.26909168848e-05
1.76624339227e-05
8.8055089025e-06
3.75456187909e-06
1.40534157857e-06
5.15878492856e-07
2.53460994599e-07
1.68654083008e-07
1.1475929157e-07
6.25144134199e-08
0.00097036884199
0.000788604620976
0.000597576147265
0.000425254379181
0.000287063784569
0.000186361720342
0.000117701517278
7.28797083761e-05
4.44333930178e-05
2.66394323555e-05
1.55971537129e-05
8.84964991758e-06
4.72488602581e-06
2.24457723393e-06
1.05107923976e-06
5.69063717758e-07
3.80739005053e-07
2.72715048625e-07
1.800996143e-07
9.50979324235e-08
0.000540145158675
0.000448170254225
0.000347907392498
0.000253118520084
0.000172977914518
0.000111659124556
6.87414469767e-05
4.11096688022e-05
2.43875258618e-05
1.4514681655e-05
8.66454137948e-06
5.18148663526e-06
3.08100412661e-06
1.80545551685e-06
1.13707036029e-06
8.03561729437e-07
6.00214224428e-07
4.28375618174e-07
2.68881019316e-07
1.32277036527e-07
0.000322945605131
0.000273534913633
0.000217254804035
0.000161413073223
0.000111970074752
7.26306978953e-05
4.43606252255e-05
2.60754736843e-05
1.53349580781e-05
9.28464141959e-06
5.85217477738e-06
3.85210436261e-06
2.64219828503e-06
1.88316457123e-06
1.41612648804e-06
1.10334022222e-06
8.44509661535e-07
5.93894005685e-07
3.56712161151e-07
1.61233466728e-07
0.000181952532827
0.000158135844738
0.000129802725605
0.000100090903372
7.18633800476e-05
4.78433874406e-05
2.97272154509e-05
1.76992786493e-05
1.06450710902e-05
6.7626064638e-06
4.59858680685e-06
3.31999578362e-06
2.51050728606e-06
1.96402713722e-06
1.57134356117e-06
1.25294503449e-06
9.57413383395e-07
6.61958662739e-07
3.85318704603e-07
1.60320488335e-07
8.58131309431e-05
7.49147904088e-05
6.19367630017e-05
4.83657514751e-05
3.55562398978e-05
2.46440301444e-05
1.63059646899e-05
1.06201737066e-05
7.08417087849e-06
4.96236151445e-06
3.669562509e-06
2.83596116461e-06
2.2549731855e-06
1.82057473032e-06
1.47180317882e-06
1.16854758146e-06
8.85227799135e-07
6.07220453417e-07
3.45445540613e-07
1.29785441467e-07
3.60500472306e-05
3.15401044393e-05
2.6229945578e-05
2.07579741544e-05
1.57129565157e-05
1.14951132096e-05
8.25839022173e-06
5.95766977955e-06
4.40891441147e-06
3.38140410253e-06
2.67966891348e-06
2.16851004254e-06
1.76798309682e-06
1.43549748294e-06
1.14787426403e-06
8.93742192364e-07
6.64158932324e-07
4.50078461195e-07
2.53087553243e-07
9.00297522473e-08
1.55516052581e-05
1.36200820171e-05
1.14266248466e-05
9.25448360336e-06
7.32108264698e-06
5.73106828256e-06
4.49162165018e-06
3.56143890782e-06
2.87566325211e-06
2.35849393165e-06
1.9451719145e-06
1.5966272489e-06
1.29551213157e-06
1.03376639923e-06
8.06535697442e-07
6.12406464203e-07
4.45743670087e-07
2.98300557276e-07
1.66009423847e-07
5.67752508054e-08
8.36092585646e-06
7.45746687979e-06
6.43353252016e-06
5.40960600636e-06
4.47436227894e-06
3.67379136936e-06
3.01644911497e-06
2.48832730673e-06
2.06091862051e-06
1.70295109639e-06
1.39277869935e-06
1.12186046186e-06
8.88514838371e-07
6.90690178831e-07
5.25394317078e-07
3.89803950614e-07
2.78305376501e-07
1.83831757042e-07
1.01043399935e-07
3.37528835159e-08
5.57179254378e-06
5.05014740377e-06
4.43955475869e-06
3.80620852955e-06
3.20485639029e-06
2.66898347723e-06
2.21025069485e-06
1.82444211096e-06
1.49874621758e-06
1.21943380366e-06
9.77904437935e-07
7.70668364324e-07
5.96237379278e-07
4.52316168377e-07
3.36045135372e-07
2.43670898808e-07
1.70086974158e-07
1.09856113446e-07
5.90388499007e-08
1.92631043189e-08
3.8334236545e-06
3.51660453734e-06
3.1337056342e-06
2.72305085792e-06
2.31918736771e-06
1.94563536838e-06
1.61342922524e-06
1.32438623296e-06
1.07517175118e-06
8.6093968952e-07
6.77834897755e-07
5.23516219053e-07
3.96280906624e-07
2.93853424884e-07
2.13291272694e-07
1.5090710484e-07
1.02523045285e-07
6.41794333369e-08
3.3334577805e-08
1.05739623758e-08
2.56555475933e-06
2.38098820575e-06
2.15186248632e-06
1.8981896643e-06
1.639326628e-06
1.38984220576e-06
1.15862567405e-06
9.50253388086e-07
7.66434156827e-07
6.07051812086e-07
4.71186333301e-07
3.57765579045e-07
2.65546533405e-07
1.92628003862e-07
1.36424442116e-07
9.38329716093e-08
6.16484778512e-08
3.7067674653e-08
1.84209852436e-08
5.6451909901e-09
1.67736230075e-06
1.57283613619e-06
1.4403804151e-06
1.28979141491e-06
1.1310051598e-06
9.71971577904e-07
8.18392597964e-07
6.74527287817e-07
5.43704816325e-07
4.28156286207e-07
3.28940268786e-07
2.46220713217e-07
1.79443030776e-07
1.27283601209e-07
8.77406773906e-08
5.84052972254e-08
3.68920173468e-08
2.11650863481e-08
9.99670708037e-09
2.95234424569e-09
1.07599070871e-06
1.01812112456e-06
9.4368859209e-07
8.57309738645e-07
7.63744414316e-07
6.66769625828e-07
5.69278690898e-07
4.7400821962e-07
3.8401873172e-07
3.02257347392e-07
2.30842607549e-07
1.70842927839e-07
1.22396204853e-07
8.48275079361e-08
5.67644274467e-08
3.64236811187e-08
2.20111561869e-08
1.20046538116e-08
5.38273233439e-09
1.5323066324e-09
6.77248015265e-07
6.4593220921e-07
6.05234270591e-07
5.57316768953e-07
5.0433690512e-07
4.47791291918e-07
3.88713810132e-07
3.2833236281e-07
2.68698231795e-07
2.12454408622e-07
1.61984139932e-07
1.18848375289e-07
8.37602004633e-08
5.66536898428e-08
3.67171422245e-08
2.26521936773e-08
1.30684605581e-08
6.77347023509e-09
2.89106778116e-09
7.97973555335e-10
4.17601640615e-07
4.01034741425e-07
3.79419539593e-07
3.53775541527e-07
3.25030320166e-07
2.93609149691e-07
2.59574165559e-07
2.23135967915e-07
1.85295146021e-07
1.47920160235e-07
1.13096868421e-07
8.24983394972e-08
5.72333450311e-08
3.77440662682e-08
2.36610782863e-08
1.40277820319e-08
7.73416620791e-09
3.82236771283e-09
1.56291771192e-09
4.21307588555e-10
2.51754811788e-07
2.43217536082e-07
2.32105223742e-07
2.18921707464e-07
2.0404681166e-07
1.87490279805e-07
1.68942342655e-07
1.48110610029e-07
1.25246631551e-07
1.01397107914e-07
7.80706465549e-08
5.67615837792e-08
3.8775923356e-08
2.49192771266e-08
1.5116544485e-08
8.63134371012e-09
4.56868313551e-09
2.1677975574e-09
8.56335599263e-10
2.272202193e-10
1.48150855268e-07
1.43882320165e-07
1.38382292607e-07
1.31911260605e-07
1.24624908457e-07
1.16420832752e-07
1.06933451889e-07
9.57262170774e-08
8.26469685547e-08
6.81079604739e-08
5.30042518836e-08
3.8491632151e-08
2.59005384601e-08
1.62294922092e-08
9.55204106797e-09
5.27909454519e-09
2.70209811511e-09
1.24171152644e-09
4.78211065958e-10
1.25691536738e-10
8.50323130605e-08
8.29694928716e-08
8.03663662417e-08
7.73648889382e-08
7.40329442556e-08
7.02689276559e-08
6.57765658971e-08
6.0156545608e-08
5.31133856888e-08
4.4674696144e-08
3.52380168981e-08
2.55911591596e-08
1.69677769006e-08
1.0388759024e-08
5.96000504725e-09
3.20976950993e-09
1.60179690423e-09
7.19165197371e-10
2.7224784236e-10
7.12147030414e-11
4.75933952641e-08
4.66419037395e-08
4.54790352778e-08
4.41880942769e-08
4.28048374867e-08
4.12580713456e-08
3.93455145714e-08
3.67675176228e-08
3.32292125852e-08
2.85748747037e-08
2.2872664066e-08
1.6609400055e-08
1.08575613217e-08
6.51957677002e-09
3.66852742083e-09
1.93936441826e-09
9.51048728241e-10
4.20467374257e-10
1.57500867965e-10
4.11298457564e-11
2.59990417655e-08
2.55861955954e-08
2.51069561383e-08
2.46134551695e-08
2.41276738127e-08
2.36092278632e-08
2.293396812e-08
2.19004897106e-08
2.02697285045e-08
1.78267069525e-08
1.44658057019e-08
1.04834622376e-08
6.76523858998e-09
4.00554032527e-09
2.22603682968e-09
1.16343953378e-09
5.64528715223e-10
2.47300799418e-10
9.20967885907e-11
2.40354397322e-11
1.38872088987e-08
1.37229490841e-08
1.35505672814e-08
1.34026717317e-08
1.32950323474e-08
1.32080184701e-08
1.30713372598e-08
1.27587416921e-08
1.20929462102e-08
1.08615475528e-08
8.90006535196e-09
6.4171697857e-09
4.09958492101e-09
2.40894830883e-09
1.33111715183e-09
6.92094959483e-10
3.34114266829e-10
1.45673707095e-10
5.40688602193e-11
1.40851083109e-11
7.27758387608e-09
7.22173834631e-09
7.17695297588e-09
7.16362868666e-09
7.19359364104e-09
7.25916801855e-09
7.32310643972e-09
7.30833776709e-09
7.08672533623e-09
6.47370519923e-09
5.31916475363e-09
3.80517454664e-09
2.41721256165e-09
1.41900274024e-09
7.84320160934e-10
4.07664815929e-10
1.96526215913e-10
8.54760564667e-11
3.16162315265e-11
8.18337213026e-12
3.76775823413e-09
3.7550071795e-09
3.75673091434e-09
3.78572435836e-09
3.85069848019e-09
3.95000799303e-09
4.06443881176e-09
4.1459442232e-09
4.10012094765e-09
3.77924799058e-09
3.08648882829e-09
2.18910632711e-09
1.39042358316e-09
8.20052466414e-10
4.55256218315e-10
2.37222388839e-10
1.1437990546e-10
4.96106362448e-11
1.82245356483e-11
4.64564214499e-12
1.95284125777e-09
1.95481369962e-09
1.96909888937e-09
2.00379742068e-09
2.06518952596e-09
2.15397518793e-09
2.25978403124e-09
2.35016527785e-09
2.35338076023e-09
2.16277120801e-09
1.74232964175e-09
1.22766966473e-09
7.83132712616e-10
4.6538051405e-10
2.59974635457e-10
1.35899033703e-10
6.54696145277e-11
2.82164727117e-11
1.02155645059e-11
2.5260183514e-12
1.03521020867e-09
1.04044359055e-09
1.05455161671e-09
1.08267671624e-09
1.12916189442e-09
1.19509962198e-09
1.27393011863e-09
1.3414882993e-09
1.34348678836e-09
1.2147809398e-09
9.61406749877e-10
6.74349195738e-10
4.32731979679e-10
2.59194692427e-10
1.45586778283e-10
7.61733842053e-11
3.64969313594e-11
1.55003565124e-11
5.4511134036e-12
1.27573766408e-12
5.65419824743e-10
5.70030838266e-10
5.80329989459e-10
5.99405251302e-10
6.29990932471e-10
6.72851582294e-10
7.2347018677e-10
7.64065673132e-10
7.56598512261e-10
6.6816240411e-10
5.19333246109e-10
3.63033109306e-10
2.34026403608e-10
1.40862543181e-10
7.92102183168e-11
4.12214984822e-11
1.94550435498e-11
8.02012692684e-12
2.67387661283e-12
5.68251861958e-13
2.86506304039e-10
2.89658000311e-10
2.95789493558e-10
3.0630043729e-10
3.22550258115e-10
3.451124529e-10
3.72422909306e-10
3.96314982575e-10
3.95053037723e-10
3.47537699689e-10
2.68665578336e-10
1.87935326973e-10
1.21557682058e-10
7.32601907039e-11
4.10164380027e-11
2.10583476435e-11
9.66882654101e-12
3.79254282193e-12
1.1601445919e-12
2.12594408374e-13
1.1367658482e-10
1.14839263243e-10
1.16947791913e-10
1.20368664351e-10
1.25543167065e-10
1.32806100337e-10
1.42519509435e-10
1.54763767976e-10
1.65284077826e-10
1.58453659767e-10
1.29937236963e-10
9.43269155192e-11
6.25923351717e-11
3.83804175433e-11
2.16728648168e-11
1.10992831212e-11
5.00670662499e-12
1.88685409276e-12
5.35756984302e-13
8.6973025976e-14
5.04089489372e-09
2.66708983525e-09
9.34458278084e-09
5.03335057206e-09
1.68018383936e-08
9.05084688361e-09
2.84935238638e-08
1.518806665e-08
4.43420909405e-08
2.31842009692e-08
6.03502680962e-08
3.0822526974e-08
6.74410459405e-08
3.36409952649e-08
5.32783244109e-08
2.66385909006e-08
2.67958441561e-08
1.22488659643e-08
1.20482732768e-08
1.77340903828e-09
5.9919737403e-09
6.67475230541e-10
3.33402093836e-09
3.12567485183e-10
1.98827662337e-09
1.70922552644e-10
1.17581916117e-09
9.75611498318e-11
6.70928745793e-10
5.45808516721e-11
3.68204329561e-10
2.95547425191e-11
1.97564257939e-10
1.56846782661e-11
1.0552781051e-10
8.3106936107e-12
5.69403852503e-11
4.46258073186e-12
3.13279120114e-11
2.45110283817e-12
1.76466617575e-11
1.38046181554e-12
1.01556165737e-11
7.94749415751e-13
5.9384179517e-12
4.64651967361e-13
3.49630392001e-12
2.73117506056e-13
2.05233979215e-12
1.59978564964e-13
1.18242856708e-12
9.1672341635e-14
6.57795767965e-13
5.05051030675e-14
3.44380744536e-13
2.58807100256e-14
1.61930030549e-13
1.18341118208e-14
6.4951912168e-14
4.59439374526e-15
2.2037713593e-14
1.54975645195e-15
9.16518668335e-15
7.00703165037e-16
)
;

boundaryField
{
    inletfuel
    {
        type            fixedValue;
        value           nonuniform 0();
    }
    inletair
    {
        type            fixedValue;
        value           nonuniform 0();
    }
    outlet
    {
        type            zeroGradient;
    }
    axis
    {
        type            empty;
    }
    leftside
    {
        type            zeroGradient;
    }
    burnerwall
    {
        type            zeroGradient;
    }
    front
    {
        type            wedge;
    }
    back
    {
        type            wedge;
    }
    procBoundary1to0
    {
        type            processor;
        value           nonuniform List<scalar> 
27
(
0.0331764924004
0.0330150675082
0.0326348169085
0.0320944780331
0.00016403277374
3.23347666572e-05
6.0164440508e-06
1.04173352671e-06
1.44136303477e-07
2.54462562387e-08
6.92232054923e-09
0.0308961990991
0.0284534489879
0.0251701745706
0.0212075094792
0.0167442652443
0.0121772479994
0.00795968986169
0.0047700998051
0.00276049733308
0.00152848174361
0.000796628812425
0.00036890000331
0.000141153479957
0.000141153479957
2.65180472878e-09
1.35657698741e-09
)
;
    }
}


// ************************************************************************* //
