/*--------------------------------*- C++ -*----------------------------------*\
  =========                 |
  \\      /  F ield         | OpenFOAM: The Open Source CFD Toolbox
   \\    /   O peration     | Website:  https://openfoam.org
    \\  /    A nd           | Version:  7
     \\/     M anipulation  |
\*---------------------------------------------------------------------------*/
FoamFile
{
    version     2.0;
    format      ascii;
    class       volScalarField;
    location    "0.07";
    object      H2O;
}
// * * * * * * * * * * * * * * * * * * * * * * * * * * * * * * * * * * * * * //

dimensions      [0 0 0 0 0 0 0];

internalField   nonuniform List<scalar> 
815
(
0.232538372057
0.232240095493
0.23158614058
0.225582757672
0.225060659246
0.223915210291
0.21391144904
0.213033857831
0.211132823244
0.197815514036
0.196921000556
0.194991605625
0.181975637669
0.181250878609
0.179696229235
0.162549998232
0.162093640285
0.161083700259
0.133782545591
0.133537183749
0.133001348359
0.0987098647798
0.0985520644226
0.0982315188891
0.0671988928525
0.0670998814736
0.0669213281649
0.0460524660036
0.0460067561903
0.0459254040938
0.034003617795
0.0339858514707
0.0339609527545
0.0277074615301
0.0277059002896
0.0277072775481
0.0243487557601
0.0243507714204
0.0243575668796
0.0222964378966
0.0222985704524
0.0223044337163
0.0208605816636
0.0208617512131
0.0208648929131
0.0197437872574
0.0197436154063
0.0197436553397
0.0188053655983
0.0188041968347
0.0188017771887
0.0179772234161
0.017975005914
0.0179701875281
0.0172187469852
0.0172155876947
0.0172086579332
0.0165067339658
0.0165027850689
0.0164940386017
0.0158286617317
0.0158238409854
0.0158133487464
0.0151760894417
0.0151705344503
0.01515859989
0.0145459194644
0.0145398082462
0.0145267118246
0.0139380640429
0.0139314223624
0.0139173143927
0.0133525680275
0.0133456351392
0.0133308712995
0.0127921862523
0.0127849999126
0.0127697109424
0.0122589051641
0.0122515923888
0.0122360467948
0.0117569051637
0.0117496168431
0.011734121672
0.0112956778258
0.0112885021438
0.0112732587909
0.0108921755539
0.0108851440788
0.0108702227533
0.0105875207574
0.0105809501616
0.0105666951974
0.230661890257
0.222300902238
0.20847586374
0.192321450122
0.177549516016
0.159676575758
0.132262671926
0.0978027385392
0.066691161708
0.0458229283852
0.0339325665937
0.0277125327063
0.0243690748578
0.0223138713692
0.0208701231411
0.0197443251136
0.0187987967206
0.0179637634478
0.0171992342544
0.0164820574966
0.0157989451342
0.015142187362
0.0145086719155
0.0138978681857
0.0133104687344
0.0127485728769
0.0122145559581
0.0117126889799
0.0112521378431
0.0108494834592
0.0105468190161
0.0323297980762
0.0141378492474
0.00615934886514
0.00371497016429
0.00299077988338
0.00276291645715
0.00334866990484
0.228579593112
0.223951552158
0.216669903588
0.206132197849
0.191403218665
0.170251379221
0.145630570297
0.120602301064
0.0980184161133
0.07931575041
0.0639827911948
0.0497431883742
0.0348501735243
0.0213075509851
0.0118213269403
0.00731298517801
0.00576709807428
0.00499687547029
0.00445435644164
0.00470451779872
0.21871495829
0.210656025378
0.197316151244
0.178858916337
0.156495426782
0.132146511925
0.108339525484
0.0876394429032
0.0711629843958
0.05826607073
0.0474858420548
0.0373819513163
0.027581932149
0.0191418916848
0.0134982830325
0.0107596845669
0.00951734138039
0.00836953429022
0.0071318889134
0.00661076486323
0.202738247547
0.190859431531
0.174690757037
0.15494091676
0.132926704037
0.11062501473
0.0904255507184
0.0740778108994
0.06158135359
0.0517316052551
0.043401853201
0.0359116551177
0.0290965007254
0.0232512422228
0.0194157654221
0.0173219887408
0.0157847368054
0.01373477973
0.0112853526356
0.00925425909025
0.186637065748
0.175206145086
0.160103477973
0.142132439548
0.12258455159
0.10328679441
0.0862999371138
0.0727634262288
0.0624664027111
0.0544945116907
0.0479991725736
0.04231963481
0.0371399937584
0.0327649370324
0.0297579168042
0.0276017113133
0.0251366741248
0.0217177727903
0.0173407312349
0.0127965615221
0.172970663815
0.163786581461
0.151626738221
0.137101658997
0.121233996571
0.105510117077
0.0914302289709
0.0798651795022
0.0708589361818
0.0638782772597
0.058178985055
0.0533024221328
0.0490742483008
0.045525087475
0.0427350263395
0.0401384874567
0.036718733291
0.0317641827845
0.0249120138789
0.0170065558544
0.156644318391
0.150468471304
0.142128643069
0.131939295121
0.120522831173
0.108764143001
0.0975406427185
0.0876149991964
0.0792980048663
0.0724799767531
0.0669053526117
0.0623302319271
0.0585566916087
0.0554799721077
0.0529377477238
0.0503809088044
0.0468514415018
0.0411679809682
0.0322516512194
0.0209596311941
0.130656982807
0.127511059102
0.123134242908
0.117435824219
0.11033141223
0.102163341021
0.0935520162218
0.0852075698962
0.0777720675582
0.0715006204621
0.0664016337233
0.0623606313361
0.0592401854483
0.0569008453293
0.0551620069507
0.0535433840665
0.0510698519367
0.0460334609031
0.0365035439826
0.0232367407999
0.0968659340689
0.0951123596154
0.0926510370546
0.0893887327992
0.0852701567861
0.0804120694641
0.0751015366234
0.0697902754505
0.0649139679431
0.0606907792276
0.0572630780027
0.0546709930117
0.0528327402916
0.0516430564486
0.0509759995242
0.0504790513917
0.0493022273304
0.0456372259255
0.0368945718343
0.0236837673584
0.0662006386985
0.0652891408932
0.0639881258177
0.062251961195
0.0600980062012
0.0576295953315
0.0549988861366
0.0523895109062
0.0500022082001
0.0479815373535
0.0464373570201
0.04540441365
0.0448278394382
0.0446289728256
0.0446752958522
0.0446798630489
0.0439537265084
0.041009097798
0.0337696708352
0.0233238675285
0.0456080628712
0.0451854070793
0.044573148816
0.0437778396104
0.0428454242249
0.0418585382088
0.0408920829283
0.0400115534686
0.0392934949356
0.0387746782262
0.0384672550035
0.0383610304983
0.038424229338
0.0386034886644
0.0387890373704
0.0387509154459
0.0379853784648
0.0354889904033
0.0300942206296
0.0229216658347
0.0338759536159
0.0337662080833
0.0336098980213
0.0334195891262
0.0332215763305
0.0330559590955
0.0329440831833
0.0328966334545
0.0329251243555
0.0330321242996
0.0332073737898
0.0334280908273
0.033659129896
0.0338488884641
0.0339058679372
0.0336568182207
0.0327865815339
0.0307801297905
0.0271520473684
0.022787388465
0.0277250714585
0.0277611348449
0.0278148531067
0.0278907072525
0.0279963721771
0.0281425065416
0.0283378205094
0.0285836291861
0.0288731635845
0.0291893218227
0.0295062659594
0.0297930378834
0.0300143635138
0.0301272170749
0.0300666853149
0.0297284828452
0.0289500622125
0.0275130236007
0.0253083501904
0.0230070512727
0.0243956642408
0.0244616218016
0.0245589105918
0.0246906845526
0.0248623283625
0.0250805567646
0.0253498944054
0.0256669889145
0.0260172469287
0.0263747902871
0.0267069765957
0.0269800404294
0.0271629428156
0.0272257673741
0.0271344399215
0.0268449533713
0.0263007530034
0.0254492689543
0.0243525608658
0.0235123231913
0.0223359979347
0.0223909373655
0.0224736556593
0.0225880208577
0.0227398922629
0.0229363037101
0.0231824195516
0.0234760202035
0.023802891227
0.0241366300056
0.02444423107
0.0246942720958
0.0248632297329
0.0249366951552
0.0249084173173
0.0247774553826
0.0245499324969
0.0242532834116
0.0240067592534
0.0241621262765
0.0208829246537
0.0209165458163
0.0209689547017
0.0210440566495
0.021147908401
0.0212882953461
0.0214725723809
0.0217027766144
0.0219703638093
0.022254629459
0.022527848453
0.0227649623486
0.0229514286862
0.0230872585184
0.0231866690036
0.023275395987
0.0233917594343
0.0235958678798
0.0240043933974
0.024840730992
0.0197472445555
0.0197585125266
0.0197783546279
0.0198098999021
0.0198586525628
0.0199324617206
0.0200406552379
0.0201903962987
0.0203816627067
0.020604098317
0.0208404703576
0.0210756452111
0.0213053562721
0.0215409736739
0.0218088545496
0.0221476015548
0.0226065598874
0.0232504906399
0.0241684743503
0.0254842149749
0.0187930609076
0.0187839448058
0.0187735739465
0.018763919693
0.0187593879343
0.0187671092443
0.0187973432569
0.0188615618591
0.0189687852363
0.0191218103253
0.0193183213108
0.0195575522436
0.0198473982998
0.0202073799401
0.0206679305244
0.0212689332156
0.0220569926036
0.0230863145617
0.0244111985126
0.0260825132579
0.0179501679328
0.0179231611956
0.0178861845579
0.0178399062303
0.0177873220949
0.0177343136647
0.0176909508144
0.0176715072896
0.0176928788903
0.0177718172207
0.0179245701813
0.0181701460038
0.0185318345472
0.0190343742567
0.0197038345118
0.0205711155371
0.0216713928277
0.0230408153439
0.0247006896052
0.0266539116255
0.0171788030943
0.0171364595846
0.0170766423268
0.0169988504015
0.0169046484131
0.016798504317
0.0166895862702
0.0165934086343
0.0165328159368
0.0165376346388
0.0166451008219
0.0168998404099
0.0173448656593
0.0180064810681
0.0188968719088
0.0200295449754
0.021423568067
0.0230946902028
0.025038523587
0.0272262513815
0.0164557479321
0.0164003168311
0.0163211067
0.0162166187787
0.0160872293759
0.0159361293503
0.0157713434153
0.0156086541295
0.0154749821449
0.0154116694566
0.015478215948
0.0157500794467
0.0162935357826
0.0171305216349
0.018249477797
0.0196416313076
0.0213086389419
0.0232479635741
0.0254361376587
0.0278245175773
0.0157674205592
0.0157007868953
0.0156051516576
0.0154782832452
0.015319709136
0.0151316662374
0.0149212601583
0.0147042460471
0.0145106240752
0.0143920242968
0.014430753975
0.0147369030047
0.0153998750325
0.0164277520838
0.0177777917925
0.0194181076543
0.0213348435433
0.0235112596395
0.0259088431826
0.0284684851746
0.0151062984833
0.0150302078084
0.0149207857881
0.0147753899874
0.01459311348
0.0143757027379
0.0141299178472
0.0138719293505
0.0136347552524
0.0134801354439
0.0135143685275
0.013883668698
0.0146934997023
0.0159250998225
0.0175017434903
0.019372836694
0.0215127397475
0.0238943776158
0.0264680156172
0.0291708134509
0.0144691544486
0.0143851677651
0.0142643588475
0.0141040185551
0.0139031973172
0.0136637655261
0.013392861265
0.013107927652
0.0128460687911
0.0126808866339
0.0127454439905
0.0132194147593
0.0142067930091
0.0156482212311
0.0174383513905
0.0195161615348
0.0218490443373
0.0244016314536
0.0271185267104
0.0299380660227
0.0138553502481
0.0137649611688
0.0136351539698
0.0134634068883
0.0132491636274
0.0129949883153
0.0127092656085
0.0124120673202
0.0121469872494
0.0120037922309
0.0121461793859
0.0127761049435
0.0139674532284
0.0156141060122
0.0175961533207
0.0198507223111
0.0223415456445
0.0250295854487
0.0278583078379
0.0307712305887
0.0132657599971
0.0131705671284
0.0130342669845
0.0128547690415
0.0126323162048
0.0123707732798
0.0120808580561
0.0117873169158
0.011544474969
0.0114653216644
0.011745551956
0.0125834055815
0.0139911377097
0.0158250237049
0.017968504386
0.0203638294861
0.0229752091313
0.0257635232121
0.0286754978663
0.0316655713353
0.0127023257322
0.0126040103212
0.0124638435136
0.0122804177574
0.0120551573676
0.0117939552658
0.0115113180663
0.0112399265999
0.0110515241287
0.0110905070934
0.0115749849462
0.0126565929275
0.0142698756451
0.0162597422762
0.0185281973924
0.0210259145506
0.0237201529275
0.0265759803824
0.0295493695923
0.0326110083956
0.012167615737
0.0120680265943
0.0119267817356
0.0117434201485
0.0115209906923
0.0112683386181
0.0110059432492
0.010779536094
0.0106874290523
0.0109086717923
0.0116518057066
0.012977696249
0.0147625859334
0.0168698070044
0.0192232520132
0.0217837754523
0.0245249384938
0.0274209106904
0.0304438144154
0.0335882779522
0.0116659137254
0.0115668184455
0.0114271676682
0.0112477249285
0.0110336482615
0.0107978761143
0.0105699427293
0.0104158584418
0.0104696569222
0.0109321573733
0.0119500721507
0.0134834688559
0.0153929377886
0.0175733996027
0.0199704291016
0.0225563015177
0.0253142391418
0.0282329640523
0.0313087750526
0.0345680010627
0.0112060670099
0.0111086224744
0.01097244585
0.0107996938851
0.0105978543162
0.010384666918
0.01020144926
0.0101418963861
0.0103808969419
0.0111092735581
0.0123701387529
0.0140533198307
0.0160369087206
0.0182485859067
0.0206532815352
0.0232358585835
0.0259923761666
0.0289303372133
0.0320765200452
0.0354998236999
0.010804288635
0.0107089118023
0.0105768092893
0.0104112023221
0.0102211945031
0.0100277669485
0.0098816802517
0.00990454917959
0.0103165240294
0.0112820429574
0.0127310602215
0.0145132044202
0.0165338026725
0.0187490739207
0.0211418811085
0.0237105885308
0.0264646558302
0.0294312520715
0.0326650505926
0.0362757205188
0.010503054835
0.0104106634698
0.0102830733662
0.010123918682
0.00994293513708
0.00976174363766
0.00963232787171
0.00968314920836
0.0101635217321
0.0112567741734
0.0128293376773
0.014683542845
0.0167328226144
0.0189532464364
0.0213426050421
0.0239103228314
0.0266742278138
0.0296721529475
0.0329747746832
0.0367089809709
0.00574040800166
0.0069361228604
0.00702023403731
0.00815105772071
0.008557165181
0.00956448557901
0.01044367558
0.0112170992301
0.0127467293782
0.01308986268
0.0153456208513
0.0150806200742
0.0177379998477
0.0169530797383
0.0192730580498
0.0184957144533
0.0201845314515
0.0198309043639
0.0212113985454
0.0211986290301
0.022276493916
0.0225740294218
0.0233173863202
0.0238292944569
0.0242822787593
0.0249319614089
0.0251812705141
0.0259126296257
0.026017613944
0.0268012778324
0.0267970853232
0.0276220523337
0.0275248450421
0.0283929276275
0.0282146974442
0.0291324766698
0.0288868539025
0.0298598632042
0.0295630259789
0.0305929438064
0.0302620646087
0.0313468970505
0.030998827232
0.032133495618
0.0317840671306
0.032961591802
0.0326250388855
0.0338377757823
0.0335257952979
0.0347655926727
0.0344874487114
0.0357464166906
0.0355050000028
0.036774090319
0.0365658997999
0.0378323502882
0.037643069549
0.0388766177703
0.0386585239043
0.0398173353775
0.0394657616733
0.0405169580793
0.039884649173
0.0408457867279
)
;

boundaryField
{
    inletfuel
    {
        type            fixedValue;
        value           nonuniform 0();
    }
    inletair
    {
        type            fixedValue;
        value           nonuniform 0();
    }
    outlet
    {
        type            zeroGradient;
    }
    axis
    {
        type            empty;
    }
    leftside
    {
        type            zeroGradient;
    }
    burnerwall
    {
        type            zeroGradient;
    }
    front
    {
        type            wedge;
    }
    back
    {
        type            wedge;
    }
    procBoundary1to0
    {
        type            processor;
        value           nonuniform List<scalar> 
27
(
0.23538604318
0.235256692052
0.234968043433
0.234555549588
0.0564046933123
0.0210073810713
0.00708424785913
0.00290830086006
0.00186091351534
0.00170838442331
0.00238312846361
0.233606614759
0.231451821377
0.227977109043
0.222711239057
0.215063428928
0.20406959529
0.189894408312
0.169679328053
0.1447547376
0.120534927481
0.0994295328981
0.0803711103706
0.0577967627317
0.0577967627317
0.00466962829485
0.00589215198129
)
;
    }
}


// ************************************************************************* //
