/*--------------------------------*- C++ -*----------------------------------*\
  =========                 |
  \\      /  F ield         | OpenFOAM: The Open Source CFD Toolbox
   \\    /   O peration     | Website:  https://openfoam.org
    \\  /    A nd           | Version:  7
     \\/     M anipulation  |
\*---------------------------------------------------------------------------*/
FoamFile
{
    version     2.0;
    format      ascii;
    class       volScalarField;
    location    "0.07";
    object      HE;
}
// * * * * * * * * * * * * * * * * * * * * * * * * * * * * * * * * * * * * * //

dimensions      [0 0 0 0 0 0 0];

internalField   nonuniform List<scalar> 
815
(
0.00014711670823
0.000147171055984
0.00014728706694
0.000157198262804
0.000157230709517
0.000157299285427
0.000162800294281
0.000162821120633
0.000162860567028
0.000166162818805
0.000166182603457
0.000166221765092
0.000167949131834
0.000167983835809
0.000168056863935
0.000167728602958
0.000167784228017
0.000167901343644
0.000164517893488
0.000164584084194
0.000164726569578
0.000158751916415
0.000158835422034
0.000159020676302
0.000152242463264
0.000152354690172
0.000152606468368
0.000146815102543
0.000146969315679
0.000147308660631
0.000142563874379
0.000142738627683
0.00014312381526
0.000138818540483
0.000138987579686
0.000139357974039
0.000134811440903
0.000134958380486
0.000135280972233
0.000130050180774
0.000130173021802
0.000130443146494
0.000124455497002
0.000124557243062
0.000124780735671
0.000118093610917
0.00011817606067
0.00011835767368
0.000111057656517
0.000111124838194
0.000111271778645
0.000103503902849
0.000103556074404
0.000103669620996
9.55816959623e-05
9.56192843612e-05
9.57006685184e-05
8.74630542203e-05
8.74868275285e-05
8.75371494634e-05
7.93358077793e-05
7.93439503434e-05
7.93621567596e-05
7.13526344922e-05
7.13461155444e-05
7.13343644769e-05
6.36572413576e-05
6.36379948041e-05
6.35990918951e-05
5.63655992777e-05
5.63340754288e-05
5.62699947458e-05
4.95416628891e-05
4.95010038461e-05
4.94165897755e-05
4.32381786812e-05
4.31894210354e-05
4.3087433321e-05
3.74668753306e-05
3.74121372195e-05
3.72970947897e-05
3.22398791709e-05
3.21815653046e-05
3.20585013485e-05
2.76056871798e-05
2.75455605654e-05
2.74184458685e-05
2.36786522141e-05
2.36178354739e-05
2.34891629734e-05
2.07985105389e-05
2.07406913406e-05
2.06153271455e-05
0.000147447244516
0.000157386880074
0.000162905898573
0.000166268361678
0.000168152815081
0.000168060006495
0.000164922372601
0.000159277871257
0.000152955434466
0.000147780920058
0.000143663615009
0.000139875763673
0.000135731432914
0.00013082080709
0.000125094016904
0.000118613026268
0.000111478720899
0.00010383020838
9.58167013664e-05
8.761024253e-05
7.93909841701e-05
7.13216787497e-05
6.35485180826e-05
5.61842711723e-05
4.93018581549e-05
4.2947929752e-05
3.71391859258e-05
3.1889032504e-05
2.72427468524e-05
2.33105524808e-05
2.04406009669e-05
4.46511206656e-05
3.67658284078e-05
3.25135359712e-05
2.82527525802e-05
2.21164622849e-05
1.5180142397e-05
8.34163913239e-06
0.000147780842739
0.000148329461507
0.000148850573327
0.000149049970116
0.000148514787808
0.000146646778055
0.000142712023433
0.000135890619005
0.000125667111094
0.000112416595715
9.72319010557e-05
8.14015019447e-05
6.6805916082e-05
5.6271031728e-05
5.02986070962e-05
4.62650166434e-05
4.16178825712e-05
3.42292124908e-05
2.4917416399e-05
1.47564992287e-05
0.000157559316242
0.00015773963148
0.000157650743945
0.000156934556998
0.000155106528482
0.000151557359364
0.000145704624892
0.000137333928178
0.000126884551345
0.000115231609357
0.000103208682574
9.14907267166e-05
8.13342597766e-05
7.40239382716e-05
6.92686619083e-05
6.56255760475e-05
6.06691787231e-05
5.20925874194e-05
3.97840777829e-05
2.48416930137e-05
0.000162979159893
0.000162947448499
0.000162551535565
0.000161450579124
0.000159212378179
0.000155386769507
0.000149752065349
0.000142546690763
0.000134358179216
0.000125729376789
0.000117189025708
0.000109301794144
0.00010276303416
9.788482585e-05
9.47355102283e-05
9.18771294676e-05
8.68566066923e-05
7.68658459378e-05
6.13605790411e-05
3.93947955027e-05
0.000166348066896
0.000166368361347
0.000166106433802
0.000165289512003
0.000163597733781
0.000160759471157
0.000156793111093
0.000151993247819
0.000146826469169
0.000141737682858
0.000137089901019
0.00013294822499
0.000129451680666
0.000127199302828
0.00012620352148
0.000124794159013
0.00011992624908
0.000109122500662
8.99252461066e-05
5.84977700015e-05
0.000168344939189
0.000168648519178
0.000168868846376
0.000168824985456
0.000168323730877
0.000167251366107
0.00016565489774
0.000163690465226
0.000161643235692
0.000159829549835
0.000158382198371
0.000157441406939
0.000157250498836
0.000158072690269
0.0001596531056
0.000160283534765
0.000156846401639
0.000145976389186
0.00012265116252
7.98432353154e-05
0.000168396554035
0.000169043092881
0.000169809638472
0.000170581225681
0.000171245118965
0.000171744353164
0.00017209316104
0.000172386043076
0.000172746434662
0.000173351192725
0.000174396031465
0.000176077577526
0.000178591556634
0.000182111735351
0.000186319754763
0.000189669635925
0.000189167622655
0.000179827991666
0.000153125363001
9.84517052847e-05
0.000165351819954
0.000166257103353
0.000167445009576
0.000168829905707
0.000170297815956
0.000171791728565
0.000173306311094
0.000174893044713
0.000176638807651
0.000178647275619
0.000181040322993
0.000183984815708
0.000187721911065
0.000192456704759
0.000198090446224
0.000203673930725
0.000206415404762
0.000199725272156
0.000171376921093
0.000107343547857
0.000159838393751
0.000161017627197
0.000162575825546
0.000164415773516
0.000166436284186
0.000168557550302
0.000170724052734
0.000172915468881
0.000175137802542
0.000177420158813
0.000179854227727
0.000182620637948
0.000185977845717
0.000190162959038
0.000195251014349
0.000200707895223
0.000204384599945
0.000199676817587
0.000171831286317
0.000104531583301
0.000153710412751
0.000155255212224
0.000157281631073
0.000159666235009
0.000162254938385
0.000164884835191
0.000167400853253
0.000169674674981
0.000171630681401
0.000173277003952
0.000174719896488
0.000176139715087
0.000177770884182
0.000179846841903
0.000182426515425
0.000185114473024
0.000186058483126
0.000179337459904
0.000151831034878
9.3237928844e-05
0.000148761368746
0.000150713954607
0.000153230800502
0.000156121511931
0.000159122821101
0.000161929329483
0.000164241296277
0.000165838559206
0.000166636510896
0.000166687596337
0.000166155501433
0.000165268740425
0.000164274389474
0.000163343971386
0.000162459922204
0.000161231426872
0.000158117931348
0.000148559529864
0.000123530064303
7.7628250214e-05
0.000144761743389
0.000146936998939
0.000149703077786
0.000152789178647
0.000155816519748
0.000158349530779
0.000159980449661
0.000160444217143
0.000159683304287
0.000157817490584
0.000155064318484
0.000151672578233
0.000147875862615
0.000143806891614
0.000139425321487
0.000134360025338
0.000127461696482
0.00011589372267
9.44772431605e-05
6.04579055845e-05
0.000140945012403
0.000143075066119
0.000145770567149
0.000148719001714
0.000151474935395
0.000153514973138
0.00015434798662
0.000153656831156
0.00015138323138
0.000147687463317
0.000142836799507
0.000137114514705
0.000130767558252
0.000123952198106
0.000116685678774
0.00010873530119
9.93833876661e-05
8.70070349512e-05
6.89793791331e-05
4.40654867171e-05
0.000136681637553
0.00013859560284
0.000141025566798
0.000143661675934
0.000146040017759
0.000147587898845
0.000147740984434
0.000146108479119
0.000142588282532
0.000137345141432
0.000130691569633
0.000122973449898
0.00011450629495
0.00010552671541
9.61512693887e-05
8.63124685438e-05
7.56477298093e-05
6.33279629698e-05
4.82187380974e-05
3.0083026575e-05
0.000131631562976
0.000133283501697
0.000135394513396
0.000137682471229
0.000139701117829
0.000140865480523
0.000140554099791
0.000138284659386
0.000133873328218
0.000127458641084
0.000119392091611
0.000110103934214
0.000100016832182
8.94830867042e-05
7.87428598432e-05
6.78836042812e-05
5.68026061508e-05
4.51569621454e-05
3.26313152035e-05
1.9502571678e-05
0.000125774544793
0.00012717674416
0.000128981135152
0.000130941244596
0.000132647610129
0.000133531411737
0.00013294076546
0.000130308691532
0.000125349672113
0.000118144892183
0.000109065981713
9.86329857606e-05
8.73971350477e-05
7.58510123231e-05
6.43673147465e-05
5.31660772988e-05
4.23247709474e-05
3.17830654259e-05
2.1600716132e-05
1.2209358034e-05
0.000119175208868
0.000120346382227
0.00012186431041
0.000123520350952
0.000124953506014
0.000125634529239
0.000124912796121
0.00012215885419
0.000116979287731
0.000109365840822
9.96769524945e-05
8.8508912151e-05
7.65514748694e-05
6.44557788471e-05
5.27293723229e-05
4.16964188672e-05
3.15332480674e-05
2.232181517e-05
1.42207928975e-05
7.55534308245e-06
0.000111935961917
0.000112892441951
0.000114139349002
0.000115504553349
0.000116679894922
0.000117191185159
0.000116418356938
0.000113702558591
0.000108555715863
0.000100859485302
9.09203647667e-05
7.93823392365e-05
6.70750088184e-05
5.48219909304e-05
4.32606859044e-05
3.27810322969e-05
2.358242735e-05
1.57663385622e-05
9.4367917511e-06
4.72233469206e-06
0.000104186545584
0.00010493683332
0.000105918707552
0.000106992583692
0.00010790209633
0.000108237087598
0.000107432215206
0.000104837314907
9.98995252569e-05
9.23872440273e-05
8.25180757621e-05
7.09437188581e-05
5.86228407389e-05
4.65569954966e-05
3.54956670581e-05
2.58443600451e-05
1.77594679435e-05
1.1279140496e-05
6.38973879498e-06
3.03252230623e-06
9.6075098992e-05
9.6623772379e-05
9.73409665372e-05
9.81151585624e-05
9.87370622262e-05
9.88623857095e-05
9.79952745211e-05
9.55270634738e-05
9.08804553785e-05
8.37290270459e-05
7.41824937193e-05
6.28631267248e-05
5.08395139932e-05
3.92819910657e-05
2.90110861817e-05
2.03843442652e-05
1.34662021009e-05
8.19458928909e-06
4.43872300828e-06
2.0171719708e-06
8.77729272466e-05
8.81223130827e-05
8.85731916005e-05
8.90363019002e-05
8.93437076757e-05
8.92139632216e-05
8.82269476397e-05
8.5839853776e-05
8.14909773154e-05
7.47938252861e-05
6.5755474552e-05
5.49472409462e-05
4.35211476628e-05
3.27749162645e-05
2.35308644459e-05
1.60430129124e-05
1.02647255325e-05
6.04010608866e-06
3.16081281231e-06
1.3882076207e-06
7.94581297757e-05
7.96104505129e-05
7.9794326938e-05
7.99380487585e-05
7.99089456442e-05
7.94821352414e-05
7.83126739808e-05
7.59364051105e-05
7.18404897326e-05
6.56230029411e-05
5.72154001495e-05
4.71347951175e-05
3.65854465396e-05
2.69159963507e-05
1.88636061474e-05
1.25501477255e-05
7.83182468434e-06
4.49202829873e-06
2.29080650325e-06
9.79787266688e-07
7.12983785209e-05
7.1260275265e-05
7.11822574236e-05
7.10067625882e-05
7.06310301307e-05
6.98795353784e-05
6.84782061671e-05
6.60471492992e-05
6.21453641039e-05
5.63944666003e-05
4.8687245276e-05
3.95038101619e-05
3.00657945604e-05
2.16688159901e-05
1.48888498954e-05
9.71670105119e-06
5.94855913658e-06
3.3465072129e-06
1.67376584073e-06
7.00975012691e-07
6.34410481187e-05
6.32233181226e-05
6.28958980057e-05
6.24132809171e-05
6.16975549107e-05
6.06169145138e-05
5.8961999669e-05
5.64356343708e-05
5.26793125283e-05
4.7364293516e-05
4.03858089798e-05
3.22204636336e-05
2.40649417737e-05
1.70458540067e-05
1.15317094762e-05
7.41540974816e-06
4.47361713547e-06
2.47965953894e-06
1.22138209213e-06
5.02412693002e-07
5.60000174051e-05
5.56184834896e-05
5.50634935071e-05
5.42993571703e-05
5.32699538501e-05
5.18814028265e-05
4.99821542907e-05
4.73518267503e-05
4.37145786645e-05
3.88064431134e-05
3.25653164823e-05
2.54997627649e-05
1.87181895136e-05
1.30769569074e-05
8.74284375543e-06
5.55925393605e-06
3.31604846745e-06
1.81625110619e-06
8.82880473503e-07
3.56996348402e-07
4.90523689669e-05
4.85289579175e-05
4.77774428057e-05
4.67706864217e-05
4.547180783e-05
4.38197903323e-05
4.17137588123e-05
3.90006671053e-05
3.54811429639e-05
3.09654101327e-05
2.54703618275e-05
1.95507005349e-05
1.41389039229e-05
9.77650087667e-06
6.48002714466e-06
4.08525373623e-06
2.41439204475e-06
1.3085124824e-06
6.2783936831e-07
2.49069511945e-07
4.26442395536e-05
4.20053775991e-05
4.10954404905e-05
3.9895286216e-05
3.83848608907e-05
3.65316200058e-05
3.4277400797e-05
3.15259643173e-05
2.81459551821e-05
2.40305192851e-05
1.93026974489e-05
1.45304478185e-05
1.03868768795e-05
7.13000077602e-06
4.69503134386e-06
2.93881297431e-06
1.72218687491e-06
9.23319699765e-07
4.36384261588e-07
1.68992028042e-07
3.67954723442e-05
3.60714823515e-05
3.50462743024e-05
3.37085072139e-05
3.20529683692e-05
3.00709828537e-05
2.77390714089e-05
2.50073383624e-05
2.18070654761e-05
1.81259885364e-05
1.4193801257e-05
1.0506553537e-05
7.44643616749e-06
5.08267413186e-06
3.32802854029e-06
2.06881478214e-06
1.20132742465e-06
6.35776410474e-07
2.94582261003e-07
1.10316413563e-07
3.15199683591e-05
3.07412856807e-05
2.9644317691e-05
2.82256553178e-05
2.64930737682e-05
2.44568950296e-05
2.21202788323e-05
1.94711787336e-05
1.6504335972e-05
1.33108093144e-05
1.01747133816e-05
7.43012695513e-06
5.23030977118e-06
3.55174496777e-06
2.31195287098e-06
1.42576127859e-06
8.18456511246e-07
4.25632527485e-07
1.91694152076e-07
6.83784059873e-08
2.68599064545e-05
2.60514742029e-05
2.49201232395e-05
2.3470988225e-05
2.17233050185e-05
1.9701794073e-05
1.74284813901e-05
1.49216808891e-05
1.22428222352e-05
9.57206554519e-06
7.1623205226e-06
5.1725719461e-06
3.61800841076e-06
2.44269034858e-06
1.57853692131e-06
9.63497563832e-07
5.44617896214e-07
2.76417740437e-07
1.19561408789e-07
3.97463988749e-08
2.29215307444e-05
2.21011366277e-05
2.09627886789e-05
1.9520317466e-05
1.78042816885e-05
1.58521919699e-05
1.36999975119e-05
1.138382291e-05
9.01524158747e-06
6.82871327159e-06
5.00980842931e-06
3.58093205811e-06
2.48879363748e-06
1.67040805506e-06
1.07139975886e-06
6.46760485611e-07
3.59312597989e-07
1.77263414839e-07
7.30643666104e-08
2.23469235769e-08
2.00559992911e-05
1.92445737765e-05
1.81224080052e-05
1.67088587481e-05
1.50445756896e-05
1.31809789772e-05
1.11722899578e-05
9.06951268794e-06
6.98587671942e-06
5.15006679855e-06
3.71129090934e-06
2.63200637135e-06
1.82593188385e-06
1.22622734534e-06
7.86930589038e-07
4.74306549511e-07
2.62005642926e-07
1.27598792705e-07
5.12725896514e-08
1.498329323e-08
7.01788200904e-06
6.98563086259e-06
1.19826600748e-05
1.1522217485e-05
1.94008798671e-05
1.79353804136e-05
2.9586572845e-05
2.62195186918e-05
4.21502312568e-05
3.56604755953e-05
5.50295893372e-05
4.45307273137e-05
6.40666929145e-05
5.00701987537e-05
6.37435466321e-05
4.92923699461e-05
5.49260143872e-05
4.28429948825e-05
4.57031344031e-05
3.30876324975e-05
3.55195334628e-05
2.46124305373e-05
2.6428074133e-05
1.75038758999e-05
1.89292917309e-05
1.20344383668e-05
1.29498319365e-05
7.9953216239e-06
8.49327157412e-06
5.14401197102e-06
5.38914713463e-06
3.2281268322e-06
3.36896852452e-06
2.00499211834e-06
2.11780457947e-06
1.25406332932e-06
1.36171630898e-06
8.01690508228e-07
9.03568611108e-07
5.27989768001e-07
6.18507196165e-07
3.58023667992e-07
4.33320188088e-07
2.48132866661e-07
3.07219099715e-07
1.73886056102e-07
2.17797919801e-07
1.21773254629e-07
1.52696915139e-07
8.42990920705e-08
1.04698541948e-07
5.70356851392e-08
6.94680082188e-08
3.7317370941e-08
4.40212275778e-08
2.32864090107e-08
2.61546339542e-08
1.36685544711e-08
1.44365473186e-08
7.53577821811e-09
7.7792028892e-09
4.15937355054e-09
5.16056806881e-09
2.87555283506e-09
)
;

boundaryField
{
    inletfuel
    {
        type            fixedValue;
        value           nonuniform 0();
    }
    inletair
    {
        type            fixedValue;
        value           nonuniform 0();
    }
    outlet
    {
        type            zeroGradient;
    }
    axis
    {
        type            empty;
    }
    leftside
    {
        type            zeroGradient;
    }
    burnerwall
    {
        type            zeroGradient;
    }
    front
    {
        type            wedge;
    }
    back
    {
        type            wedge;
    }
    procBoundary1to0
    {
        type            processor;
        value           nonuniform List<scalar> 
27
(
0.000127745580668
0.000127813403224
0.000127991437425
0.000128250360091
4.00629427694e-05
2.77476341336e-05
2.31443172317e-05
1.92016020755e-05
1.42158752039e-05
9.02216442696e-06
4.51857857783e-06
0.000128815391899
0.000129963516437
0.000131405824547
0.000132922841764
0.00013424932669
0.000134873344716
0.000133978257308
0.000130698197606
0.000124045679731
0.000113469177869
9.91900979515e-05
8.14648949494e-05
6.11872718144e-05
6.11872718144e-05
3.89912552865e-06
4.01377886103e-06
)
;
    }
}


// ************************************************************************* //
