/*--------------------------------*- C++ -*----------------------------------*\
  =========                 |
  \\      /  F ield         | OpenFOAM: The Open Source CFD Toolbox
   \\    /   O peration     | Website:  https://openfoam.org
    \\  /    A nd           | Version:  7
     \\/     M anipulation  |
\*---------------------------------------------------------------------------*/
FoamFile
{
    version     2.0;
    format      ascii;
    class       volScalarField;
    location    "0.07";
    object      k;
}
// * * * * * * * * * * * * * * * * * * * * * * * * * * * * * * * * * * * * * //

dimensions      [0 2 -2 0 0 0 0];

internalField   nonuniform List<scalar> 
815
(
5.64306260611
5.64192937999
5.63476161895
5.77354111695
5.78463389114
5.8005404513
6.38837554433
6.40005051688
6.41312384076
6.69506564553
6.69623228417
6.68797947812
6.307666005
6.30222834138
6.28330982002
5.22930263104
5.22975270742
5.22396396489
3.82228244909
3.82191974791
3.8196483114
2.42492799071
2.42187871426
2.41654366111
1.23047564723
1.22743601227
1.22312903768
0.560459416376
0.559294864777
0.557702935261
0.3050664022
0.304634125968
0.304120348214
0.231671689342
0.231478364411
0.231222834699
0.213607979539
0.213436140872
0.21318659884
0.20708150162
0.206943527895
0.206750588408
0.202172916637
0.202070294324
0.201951457058
0.196649390227
0.196573162457
0.196518009008
0.190538106332
0.190503135492
0.190537278729
0.184128080642
0.184125428247
0.184232127089
0.177515050644
0.177542092074
0.17771751654
0.170699179291
0.170749618895
0.170980561014
0.163632171402
0.163697150616
0.163967969188
0.156305204695
0.156368365106
0.156647382028
0.148668056881
0.148729427511
0.149012573609
0.140822801875
0.140866905976
0.141122954238
0.132772058524
0.13280418817
0.133035986067
0.124670964468
0.124680661475
0.124867424072
0.116560642962
0.116545353283
0.11667852293
0.108516754331
0.108479956632
0.108562919742
0.10183261518
0.101792220853
0.101845994871
0.111656280429
0.111702272539
0.111751915713
0.255546731261
0.255854137821
0.255796139288
5.62180198745
5.81334883332
6.41679607167
6.66282786559
6.24763086674
5.20945881968
3.81539270902
2.40997464299
1.21826303205
0.555803603629
0.303550984922
0.231005169536
0.21300958582
0.206644394378
0.20194457225
0.196614282074
0.190759342154
0.184567053955
0.178159443457
0.171511675616
0.164566783987
0.157278089127
0.149657528314
0.14174650871
0.133625363436
0.125396438058
0.117133138501
0.108941202362
0.102148492173
0.111898387946
0.255498026266
0.207417683889
0.0825449341353
0.0502718488254
0.0393095027236
0.0289739656753
0.024203312722
0.0342594593749
5.58652605889
5.45931412337
5.16530057158
4.61266000412
3.7832706551
2.77096479077
1.77464504938
1.04430459258
0.623958718699
0.415651362466
0.331529142945
0.280257866085
0.203233622351
0.115496958604
0.0651743994617
0.049041362817
0.038734338391
0.0294574950246
0.0260868878955
0.0358678122011
5.82099699702
5.71326192109
5.34139531178
4.57625331124
3.45794291342
2.22618297089
1.22531164605
0.644400418349
0.380492992001
0.270322911792
0.219135075686
0.181027383721
0.133991112925
0.0885783664174
0.0639456692908
0.0529732423032
0.0426741174156
0.0340125785859
0.0309013676313
0.0388612292848
6.39073164807
6.1573826399
5.55620712212
4.52225810491
3.19558322151
1.90731585075
0.996105222965
0.529724162958
0.331725381464
0.243273684918
0.194886368399
0.159394776018
0.125991239734
0.0957387207118
0.078517317213
0.0670908499067
0.0554487847028
0.0458882979392
0.0409880396875
0.044923787324
6.57689962439
6.23212918385
5.50664469841
4.38141931314
3.04910773878
1.84754649828
1.03277155397
0.600893135856
0.398279989626
0.29839490871
0.24047834708
0.198612121895
0.16266819684
0.134104139612
0.114877993891
0.0990636860733
0.0831692808993
0.0699722127102
0.0604077607824
0.056911154928
6.14931136139
5.82399199797
5.18003681385
4.21345345946
3.08808550152
2.05975565237
1.30738930206
0.848027832125
0.594604576133
0.45062718368
0.357088687009
0.289995321459
0.240019687386
0.201891575695
0.17286593942
0.149095061778
0.127732432583
0.109272096258
0.0926333368811
0.0771326405244
5.16548504963
4.99099126138
4.59813490572
3.95941066782
3.16211973003
2.35997614791
1.6816530058
1.18551333137
0.852713941039
0.633818800363
0.486683680977
0.385843007416
0.313950233481
0.262059071936
0.224428655453
0.196996000416
0.175261079059
0.156948534409
0.13532160501
0.103997488072
3.80382273443
3.75897578725
3.6181802559
3.33076256611
2.87771992796
2.32187918568
1.76040009595
1.27842463362
0.919742266535
0.671593184212
0.503711302585
0.391155912857
0.316239741143
0.267132693713
0.236189302582
0.218179555022
0.208292808881
0.200136237792
0.178405922483
0.130185432099
2.39459252426
2.35800979982
2.26809042255
2.10163935806
1.85010577069
1.53386513847
1.19927571198
0.900620911419
0.667863606141
0.499471783584
0.384365356803
0.30966024759
0.263335215909
0.236283934077
0.222713752211
0.218818616083
0.222519210048
0.228713126326
0.212717154818
0.153094202143
1.20742768622
1.18102666566
1.12637844419
1.03527602652
0.9088309333
0.760941595842
0.613244161383
0.483938701653
0.382740482521
0.309856821919
0.26210039668
0.23456300062
0.221230767249
0.217000517631
0.218718800247
0.224623126547
0.234912440955
0.2468383131
0.235241353591
0.181268963598
0.550834263989
0.535460927566
0.50694264037
0.465024319287
0.413167922389
0.35864400763
0.308567459888
0.26711135004
0.236727398445
0.217553674266
0.208505835779
0.207522139345
0.212106050939
0.220208450061
0.230545405724
0.242483687666
0.256677685346
0.269953142765
0.264595456246
0.231551598539
0.301829745975
0.295734790251
0.284457296136
0.268116770847
0.248163193245
0.227738195126
0.209816631595
0.196612379452
0.189581336096
0.189174579598
0.194820390911
0.205195116673
0.218736263349
0.234144962946
0.250602366567
0.267873401764
0.28621988581
0.303818069668
0.312235713356
0.310645544292
0.230336633795
0.227677243696
0.222110630693
0.213255319043
0.201826456177
0.189847397145
0.180033314734
0.174747832483
0.175344266842
0.182014248215
0.194069630724
0.210375975055
0.229758855052
0.251290006435
0.274393027923
0.298956384577
0.324915207967
0.351921519133
0.378214575453
0.408370799536
0.212608729007
0.210857269972
0.206684998824
0.199472483662
0.189719308441
0.179326909062
0.171071833646
0.167523778147
0.170184934086
0.179365755719
0.19454638327
0.214876941648
0.239530714491
0.267835770958
0.299364949151
0.333956768641
0.37151612532
0.412327721792
0.456836978772
0.507167021822
0.206459498757
0.205239524536
0.201785086128
0.195303959012
0.186030941097
0.175649621293
0.166935638599
0.162751847934
0.16505626281
0.174637026342
0.191446257809
0.215150873136
0.245444375993
0.282069676047
0.324791536588
0.373290489258
0.426901287908
0.484581446281
0.543622182359
0.594103516429
0.202002807442
0.201332251309
0.198584570458
0.19277787204
0.183823566672
0.173087945303
0.163250099676
0.157435962141
0.15816646579
0.166901047921
0.184348516065
0.211021259075
0.24751524568
0.294328191749
0.351537200691
0.41840683962
0.49265901203
0.569298610807
0.637040127923
0.668439956035
0.196939139004
0.19688229132
0.194919627742
0.189881411721
0.181342007495
0.170283111807
0.159167505698
0.151275017045
0.149665100311
0.156573879091
0.17370204782
0.202849922831
0.246099338994
0.305225839506
0.380793572983
0.471088617011
0.570582518562
0.66727992046
0.736572827643
0.734984917859
0.191370676266
0.191928121407
0.19077646606
0.186578705082
0.17858929511
0.167383442391
0.155115342408
0.145082063841
0.140764985578
0.145179245971
0.161189998959
0.192344331771
0.242971524554
0.316843942941
0.415043298603
0.533790783322
0.662038646498
0.777586430968
0.841495436667
0.799973255417
0.18544252269
0.186575124246
0.18620057661
0.182856915268
0.17553224297
0.164418966248
0.151302518315
0.139346428821
0.13229704345
0.133852874654
0.148130073793
0.180901561995
0.239689903411
0.331094930188
0.456397001464
0.607915987871
0.766442978597
0.897505394821
0.949722336867
0.866504946365
0.179276978145
0.180919938347
0.181245354981
0.178710713175
0.172103630894
0.161294686786
0.14770272365
0.134254981986
0.124787805512
0.123543718836
0.13592409173
0.17041309317
0.238783327652
0.351130688991
0.507828428534
0.69477718028
0.882450413462
1.02419154776
1.0598735034
0.935754499766
0.172827750352
0.174886006955
0.175796077951
0.173973224053
0.168074921314
0.15772985871
0.144031633275
0.129623341044
0.118301323217
0.114718473744
0.125607945249
0.16268878476
0.242989761682
0.380205805506
0.571719910655
0.794509874551
1.00796660002
1.15521143083
1.17104014024
1.00744083018
0.166029719589
0.16838998419
0.169738585898
0.168487231449
0.163229669252
0.153437279502
0.139947563276
0.125125435793
0.112664856466
0.107574832154
0.118070989069
0.159753157946
0.255669087976
0.422139473711
0.650660359085
0.907496147382
1.14163160357
1.28885023354
1.28223923507
1.08030611187
0.158820898716
0.161361768638
0.162987805473
0.162137947873
0.157405694325
0.148185867112
0.135144850768
0.12043019053
0.107633869453
0.102183812176
0.11416575605
0.163927921564
0.280750257224
0.480995563312
0.746933070971
1.03383789167
1.28242172625
1.42393066326
1.39242222762
1.15273026491
0.151219770496
0.153800185087
0.155531310657
0.154903791407
0.150559902077
0.141895487845
0.129493963995
0.115364962376
0.103086461636
0.0987753508986
0.115167353431
0.178435156588
0.323066876679
0.560896199408
0.862396446584
1.1736083115
1.42951623425
1.55952177706
1.50012561718
1.22203767369
0.143259971808
0.145756170102
0.147435347685
0.146865586756
0.142784593254
0.13465313982
0.123054230241
0.109967630004
0.0991736697101
0.0980687839568
0.123334836568
0.207831701349
0.387913711106
0.665165245433
0.99795064721
1.32586854864
1.58120654083
1.69341819564
1.60221180397
1.28412011647
0.135040911163
0.137336812423
0.138831521816
0.138192647545
0.134286914483
0.12669171237
0.116071819972
0.104539908445
0.0965048720037
0.101715531057
0.14254274459
0.258059658646
0.480111804036
0.795125487414
1.15202274492
1.48753322137
1.73369527211
1.82105647611
1.69297914361
1.33185945188
0.126663822252
0.128680221487
0.129902734052
0.129120697345
0.125358910972
0.118356662649
0.108962605237
0.0997004885632
0.096380823516
0.112783319042
0.178458584557
0.334984647715
0.601211397376
0.947808508259
1.31905329252
1.65155268524
1.87855961135
1.93261690765
1.76127528101
1.35394029431
0.118226631515
0.119924407937
0.120841061298
0.119905840995
0.116325551153
0.110052942082
0.102275154024
0.0964167077779
0.100968854687
0.135779525094
0.236924838729
0.440401983554
0.746176117961
1.11375586229
1.48653692103
1.8029321441
1.99884464456
2.00991304502
1.78901170545
1.33487675241
0.109854431094
0.111226616849
0.11184715933
0.110800226689
0.107496424904
0.102165058672
0.0965650807952
0.0957930070655
0.112751824416
0.174539382657
0.318721269695
0.566444138188
0.899444444963
1.27188544171
1.62931620292
1.91329725894
2.0639813918
2.02234420735
1.74924479449
1.25813202938
0.102855455706
0.103846794419
0.104126208498
0.102945751651
0.0999347445895
0.0956415775623
0.092603841627
0.0983728691017
0.131694519505
0.225491660805
0.410465202946
0.687963523866
1.02735481364
1.3824441763
1.70273023118
1.93445931254
2.02527498813
1.92633072796
1.61266717935
1.11937966537
0.11217157085
0.112337249499
0.111728034875
0.109795682229
0.106393062006
0.102305022339
0.100600919081
0.110878291158
0.15720192813
0.275192884576
0.482464212231
0.761773792939
1.0764910016
1.38303961376
1.63754013035
1.79527856419
1.81853568843
1.677920883
1.37117038914
0.957626510871
0.25471415117
0.252852869733
0.249780280564
0.245236416982
0.239325781118
0.23288839781
0.228670848953
0.235190430183
0.275123361257
0.381073756127
0.559663810539
0.782201366473
1.01217803056
1.21581126622
1.3637153748
1.43315999993
1.40947147852
1.29331730874
1.09855914301
0.880354544078
0.0546126841712
0.0387222283791
0.055928681917
0.0414268200994
0.0577492738876
0.0451015697405
0.0618095616631
0.0503247903617
0.0701199915565
0.0580189879054
0.0839331663147
0.0692105153096
0.102543035612
0.0857915088027
0.121195547605
0.111036576525
0.146579137564
0.183038980217
0.170407663963
0.233280418945
0.207336318409
0.29058591011
0.249901649593
0.349291859003
0.292275566234
0.410543892575
0.33180316588
0.472138558385
0.367421967705
0.533675081667
0.401725751899
0.594702139128
0.436779780902
0.656839413316
0.474113892376
0.720467555866
0.514298901347
0.785406518021
0.557064436562
0.851451357275
0.601419170024
0.917978355144
0.646147355347
0.983968258273
0.689857852614
1.04812083762
0.73057990967
1.10895490977
0.765744472604
1.16446032239
0.79104178312
1.21241610881
0.801411928659
1.25043020061
0.790408051247
1.27647963557
0.754400706418
1.28951643804
0.70585774013
1.29105344181
0.689194799272
1.28212033799
0.781963596239
1.23782779384
)
;

boundaryField
{
    inletfuel
    {
        type            turbulentIntensityKineticEnergyInlet;
        intensity       0.05;
        value           nonuniform 0();
    }
    inletair
    {
        type            turbulentIntensityKineticEnergyInlet;
        intensity       0.05;
        value           nonuniform 0();
    }
    outlet
    {
        type            inletOutlet;
        inletValue      uniform 1;
        value           uniform 1;
    }
    axis
    {
        type            empty;
    }
    leftside
    {
        type            kqRWallFunction;
        value           nonuniform List<scalar> 
32
(
0.0387222283791
0.0414268200994
0.0451015697405
0.0503247903617
0.0580189879054
0.0692105153096
0.0857915088027
0.111036576525
0.183038980217
0.233280418945
0.29058591011
0.349291859003
0.410543892575
0.472138558385
0.533675081667
0.594702139128
0.656839413316
0.720467555866
0.785406518021
0.851451357275
0.917978355144
0.983968258273
1.04812083762
1.10895490977
1.16446032239
1.21241610881
1.25043020061
1.27647963557
1.28951643804
1.29105344181
1.28212033799
1.23782779384
)
;
    }
    burnerwall
    {
        type            kqRWallFunction;
        value           nonuniform 0();
    }
    front
    {
        type            wedge;
    }
    back
    {
        type            wedge;
    }
    procBoundary1to0
    {
        type            processor;
        value           nonuniform List<scalar> 
27
(
7.38291451614
7.35835501242
7.29746216455
7.21311747624
0.460325880358
0.134072801619
0.0575714422642
0.0409696493495
0.030458063592
0.0239206649648
0.033101108103
7.02169662643
6.62419467675
6.07330512967
5.36894296557
4.51791684675
3.55600230478
2.58706906817
1.77791435479
1.18349950139
0.797536231457
0.59955084918
0.535647889271
0.436560811739
0.436560811739
0.0530385569607
0.0365435332639
)
;
    }
}


// ************************************************************************* //
