/*--------------------------------*- C++ -*----------------------------------*\
  =========                 |
  \\      /  F ield         | OpenFOAM: The Open Source CFD Toolbox
   \\    /   O peration     | Website:  https://openfoam.org
    \\  /    A nd           | Version:  7
     \\/     M anipulation  |
\*---------------------------------------------------------------------------*/
FoamFile
{
    version     2.0;
    format      ascii;
    class       volScalarField;
    location    "0.07";
    object      N2;
}
// * * * * * * * * * * * * * * * * * * * * * * * * * * * * * * * * * * * * * //

dimensions      [0 0 0 0 0 0 0];

internalField   nonuniform List<scalar> 
815
(
0.736387585047
0.736508561712
0.736770805865
0.743462463556
0.743575244047
0.743820040151
0.747323691362
0.747431261322
0.74766177806
0.749703111913
0.749794336856
0.749990336591
0.751454919961
0.751524169569
0.751672425207
0.753298541554
0.75334115198
0.753435236236
0.755858148097
0.755880695502
0.755929878944
0.75891405094
0.758928148653
0.75895683424
0.761635071895
0.761643648635
0.761659126812
0.763455748154
0.763459534079
0.763466206367
0.76449447061
0.764495764172
0.764497384541
0.765041546791
0.765041436464
0.765040777483
0.765339168809
0.765338778015
0.765337711949
0.76552704023
0.765526673669
0.765525763394
0.765664019028
0.765663767031
0.765663162285
0.765775409856
0.765775304003
0.765775033069
0.76587314069
0.765873143828
0.765873138801
0.765962774505
0.765962892403
0.76596314898
0.766047516929
0.766047740789
0.766048234364
0.766128998962
0.766129315156
0.766130020635
0.76620786643
0.766208288085
0.766209205137
0.766284475912
0.766284990219
0.766286090354
0.766358722734
0.766359310898
0.766360565951
0.766430292192
0.766430952379
0.766432347539
0.76649897731
0.766499682066
0.76650117709
0.766564354957
0.7665650997
0.766566679094
0.766626171975
0.766626941362
0.766628572677
0.766683986772
0.766684762347
0.766686407816
0.76673681044
0.766737580585
0.766739213736
0.766782824051
0.766783583595
0.76678519303
0.766817391224
0.766818103331
0.766819647859
0.737135910899
0.744157689142
0.747978811864
0.750259914763
0.751876461818
0.75356599888
0.755997590808
0.758995206575
0.761679068871
0.763474553663
0.764499087029
0.765039565907
0.765336047372
0.765524382361
0.765662242042
0.765774597938
0.765873094004
0.765963477083
0.766048897004
0.766130979818
0.766210456813
0.766287596216
0.766362288241
0.766434264628
0.766503238475
0.76656885883
0.766630824635
0.766688681323
0.766741474865
0.766787428884
0.766821801308
0.765085329642
0.766691178661
0.767389891056
0.767605556022
0.767674034279
0.76769559595
0.767627275891
0.737935612631
0.73954162696
0.741705472103
0.744333391464
0.747295611457
0.750405198808
0.75348914068
0.756343395297
0.758741784418
0.760623567248
0.762118018834
0.763461160107
0.764818316701
0.766026571165
0.766861809389
0.767256975856
0.76739440187
0.76746789757
0.767518522566
0.767481349034
0.744887468437
0.746343125213
0.748259315207
0.750530729958
0.753016589618
0.755537691794
0.757888976433
0.759873674427
0.761424281582
0.762626902144
0.763624484131
0.764546726928
0.765427071143
0.766175795415
0.7666722913
0.766912181426
0.767023161852
0.767130819928
0.767245436847
0.767280941066
0.748651529707
0.749973186737
0.751675502751
0.753653691313
0.755771386378
0.757853202918
0.759704208853
0.761190507686
0.762324599811
0.763217625197
0.763970246782
0.764642358732
0.765248433661
0.765763753037
0.766098851857
0.766280578253
0.76641705187
0.766605746196
0.766831728184
0.767009644157
0.750829799018
0.751951172065
0.753395817173
0.755073765503
0.756862814763
0.758603888378
0.760123839435
0.76133046018
0.762246708093
0.762954686008
0.763529549966
0.764029988194
0.764484032059
0.764864329626
0.765122084249
0.765306086371
0.765523688863
0.765835222054
0.766238664449
0.766653424127
0.752310010728
0.753169493679
0.754291306277
0.755612530464
0.757038394511
0.758437891697
0.759682049837
0.760698181915
0.761485428489
0.762092220763
0.762584847813
0.763003957072
0.763364821275
0.763664610771
0.763897285967
0.764116487777
0.764417869686
0.764868470124
0.765501735221
0.766234011603
0.753847090599
0.754415142509
0.755174183924
0.756091286772
0.757107993677
0.758145185748
0.75912649338
0.759986991453
0.760702243137
0.761283804559
0.761755194976
0.762138309613
0.76245076687
0.762702028705
0.76290802888
0.763121362451
0.76343259292
0.76395264611
0.764782527499
0.765837857036
0.756144605198
0.756431815475
0.756827754075
0.757337496867
0.757965404523
0.758679568187
0.759425204703
0.760141196802
0.760773564301
0.761302067756
0.761727503271
0.762060558588
0.762313464981
0.762498827294
0.762634067729
0.762764873455
0.762983789462
0.76345158879
0.764348600386
0.765598337697
0.759078942909
0.759235543285
0.759453636198
0.759739931076
0.760097905136
0.760516470559
0.760970360322
0.761420886645
0.761831341318
0.762183666577
0.762466251574
0.762676072688
0.762820339428
0.762908676948
0.762953629185
0.762989313634
0.763096555892
0.763445736819
0.764278643118
0.765530574637
0.76172152979
0.761800171438
0.761911787418
0.76205987202
0.762242600889
0.762450938622
0.762671812142
0.762889545396
0.763087061722
0.763252041142
0.763375211008
0.763453870971
0.763493113814
0.763500467254
0.763488981046
0.763486649917
0.763559300855
0.763847422428
0.764544060323
0.765536777004
0.763492028845
0.763526184119
0.763575696412
0.763640071203
0.763715569712
0.763795383056
0.763873291942
0.76394370078
0.76399993476
0.764038659196
0.76405876738
0.764061306826
0.764049476532
0.764028767012
0.764010232854
0.764016453826
0.76409571938
0.764342696556
0.76486432754
0.765544598842
0.764502433982
0.764508773587
0.764518180704
0.764529925425
0.764542214167
0.764552048027
0.764557823262
0.764558533567
0.764552876748
0.764540309532
0.764521603272
0.764498941468
0.764475915197
0.764457844823
0.76445390206
0.764480974066
0.764569144191
0.764766646877
0.765116342498
0.765525681523
0.765036914992
0.765030666479
0.765022073267
0.765011209422
0.764997988361
0.764982019413
0.764962820124
0.764940145358
0.764914139267
0.764885811888
0.764857179131
0.76483105522
0.764810928408
0.764801162409
0.764808213203
0.764842180764
0.764918444803
0.765056986717
0.76526559847
0.76547373114
0.765332337227
0.765323806366
0.765311859944
0.765296711433
0.765278523833
0.765257322009
0.765233049382
0.765205863228
0.765176477883
0.765146483185
0.765118287068
0.765094757749
0.765078807946
0.76507339919
0.765081900802
0.765108527964
0.76515846128
0.765235954954
0.765333111227
0.765397255313
0.765521257821
0.765514060046
0.765503856645
0.76549078502
0.765474979071
0.765456492341
0.765435300616
0.765411516567
0.765385751338
0.765359425712
0.765334689419
0.765313916965
0.765299105011
0.765291608306
0.765292061717
0.765300522232
0.765316182708
0.765335786106
0.765346504817
0.765311556858
0.765660119495
0.765655141875
0.765648033906
0.76563889865
0.765627838634
0.765614875732
0.765599885767
0.765582704621
0.765563428441
0.765542769983
0.765522069478
0.765502777714
0.765485810234
0.765471036488
0.765457112649
0.765441568513
0.765420579052
0.765387909415
0.765331429145
0.76522791097
0.765773513263
0.765770826625
0.765766986104
0.765762122393
0.765756351494
0.765749698158
0.765741944757
0.765732602638
0.765721067611
0.765706980956
0.765690388719
0.765671432116
0.765649774718
0.765624089307
0.765591888939
0.76554954504
0.765492274293
0.765413560221
0.76530429784
0.765151698657
0.765872921714
0.765872337288
0.765871542369
0.765870724268
0.765870045985
0.765869577889
0.765869073559
0.765867795315
0.765864450044
0.765857433396
0.765845119363
0.765825878052
0.765797873382
0.765758868889
0.765706041272
0.765635758535
0.765543623151
0.765424294021
0.765272336404
0.76508260001
0.765964148321
0.76596544638
0.76596738443
0.76597021934
0.765974180452
0.765979405703
0.765985682607
0.765992134622
0.765996917346
0.765997193826
0.765989391011
0.76596956898
0.765934002238
0.765879798116
0.765804649663
0.765705957891
0.765580567063
0.765425042547
0.76523742232
0.765017622241
0.766050324905
0.766053288739
0.766057646785
0.766063715297
0.766071789459
0.766082070611
0.766094406016
0.766107876033
0.766120249932
0.766127596767
0.766124241687
0.766103374977
0.766058901741
0.765987625321
0.765888746299
0.76576156009
0.765604616719
0.765416626657
0.765198347609
0.764953104042
0.766133084938
0.766137530262
0.766144030195
0.766152950873
0.766164631848
0.766179313811
0.766196892861
0.766216439706
0.766235463289
0.766249091613
0.766249477588
0.766226458704
0.766171216284
0.766080888828
0.7659572345
0.765801941684
0.765615391559
0.765398225536
0.765153249555
0.764885961832
0.766213190347
0.766218965841
0.766227372069
0.766238806569
0.766253625732
0.766272076134
0.766294058353
0.766318609115
0.766342998407
0.766361478359
0.766363982902
0.766336657378
0.766268041632
0.766156683602
0.766007708675
0.765825269604
0.765611372038
0.765368165394
0.765100098508
0.764813838895
0.766290881357
0.766297838279
0.766307933035
0.766321569537
0.766339087198
0.766360696447
0.766386233479
0.766414614215
0.766442797346
0.766464089528
0.76646604005
0.766430978476
0.766345666109
0.766211563183
0.766037483648
0.765829552017
0.765590996971
0.765325069098
0.765037454725
0.764735248581
0.766366055206
0.766374051348
0.766385621649
0.766401147537
0.76642092086
0.766445059327
0.766473257898
0.766504197134
0.766534349131
0.766555796693
0.766553327248
0.766505746837
0.76640006457
0.766242268983
0.766044292572
0.765813317263
0.765553270898
0.765268290338
0.764964684269
0.764649422079
0.766438450102
0.766447336657
0.766460148024
0.766477223432
0.766498769367
0.766524760203
0.766554661844
0.76658676301
0.766616748213
0.766634929753
0.766622819975
0.766556911352
0.766427722165
0.766246543532
0.766026885337
0.765776041445
0.765498280776
0.76519811588
0.764881969937
0.76455623153
0.76650775225
0.766517355019
0.766531138644
0.766549379355
0.766572162264
0.766599262633
0.766629807341
0.766661469674
0.766688658079
0.766699077698
0.766670734963
0.766580668792
0.766426486884
0.766223818924
0.765985768579
0.765718976993
0.765427601835
0.765116132411
0.76479061123
0.76445619781
0.766573624965
0.766583749189
0.766598204885
0.766617181751
0.766640608369
0.766667989743
0.76669796347
0.766727232921
0.766748180563
0.766744956737
0.766693068406
0.766574871242
0.766396903835
0.766176214484
0.765923806669
0.765645314797
0.765344507501
0.76502537624
0.764692911617
0.764350444026
0.766635740888
0.766646164075
0.766660959742
0.766680204683
0.766703627004
0.766730366764
0.766758339605
0.76678271918
0.766792842633
0.766768920265
0.766687495658
0.7665411906
0.766343313932
0.766108970446
0.765846693258
0.765560930794
0.765254709638
0.764930977984
0.764592902672
0.764241123135
0.766693641189
0.766704143799
0.766718951129
0.766737998025
0.766760761969
0.766785897284
0.766810262951
0.766826706707
0.766820503291
0.766769351469
0.766656673777
0.766486505453
0.766274110289
0.766031134289
0.765763670049
0.765474856624
0.765166612822
0.764840238732
0.764496181272
0.76413152095
0.766746405857
0.76675683294
0.766771406713
0.766789902626
0.766811525733
0.766834370332
0.766853941142
0.766859942267
0.766833022187
0.766751926898
0.766611656025
0.766424234688
0.766203108503
0.765956301985
0.765687734117
0.765399116182
0.765090912546
0.764762307087
0.764410324188
0.764027270329
0.766792300701
0.766802581131
0.766816819421
0.766834669258
0.766855145525
0.766875961076
0.766891533166
0.766888402153
0.766842112687
0.766734321394
0.766572696053
0.766373856393
0.766148282239
0.765900830989
0.765633412867
0.765346217865
0.765038199411
0.764706330435
0.764344504695
0.763940457716
0.766826542848
0.766836552523
0.766850373754
0.766867611911
0.766887205153
0.766906782485
0.766920601473
0.766914398537
0.766860415712
0.766738195268
0.766562549633
0.766355439141
0.766126471875
0.765878297556
0.765611156041
0.765323994244
0.765014822278
0.76467941317
0.764309863901
0.763891977415
0.767359007013
0.767225124064
0.767219612876
0.767092433113
0.767055591889
0.766940527681
0.766858645132
0.766765794715
0.76662239368
0.766570164627
0.766356891353
0.766362233082
0.766107812738
0.766162537968
0.765933402114
0.765988110153
0.765811870005
0.765827521049
0.765679890475
0.765659488188
0.765544404756
0.765494636054
0.765415249978
0.765346203713
0.76529812429
0.765217498215
0.765191119561
0.765104353817
0.765093351254
0.765002834044
0.76500360351
0.764909797719
0.764920770325
0.764822906546
0.764842863953
0.764739846311
0.764767314748
0.764658319807
0.764691508415
0.764576240663
0.76461323606
0.764491864176
0.764530785182
0.764403850503
0.764442928409
0.764311198703
0.764348842435
0.764213166709
0.764248068145
0.764109355784
0.764140478252
0.763999611272
0.764026630641
0.763884621696
0.76390792851
0.76376620651
0.763787400888
0.763649353621
0.763673773387
0.763544084444
0.763583440039
0.763465791447
0.763536561755
0.763428991132
)
;

boundaryField
{
    inletfuel
    {
        type            fixedValue;
        value           nonuniform 0();
    }
    inletair
    {
        type            fixedValue;
        value           nonuniform 0();
    }
    outlet
    {
        type            zeroGradient;
    }
    axis
    {
        type            empty;
    }
    leftside
    {
        type            zeroGradient;
    }
    burnerwall
    {
        type            zeroGradient;
    }
    front
    {
        type            wedge;
    }
    back
    {
        type            wedge;
    }
    procBoundary1to0
    {
        type            processor;
        value           nonuniform List<scalar> 
27
(
0.722031009242
0.722165901769
0.722482249919
0.722931980333
0.762939658679
0.766107927528
0.767331656358
0.767698682805
0.767794478599
0.767808823571
0.767733134122
0.723932291101
0.725990518383
0.728807023606
0.732299187312
0.736381185493
0.740832216664
0.745292450155
0.749485756037
0.753182210835
0.756227224095
0.758629440947
0.760632023194
0.762789886745
0.762789886745
0.767477250155
0.767340481027
)
;
    }
}


// ************************************************************************* //
