/*--------------------------------*- C++ -*----------------------------------*\
  =========                 |
  \\      /  F ield         | OpenFOAM: The Open Source CFD Toolbox
   \\    /   O peration     | Website:  https://openfoam.org
    \\  /    A nd           | Version:  7
     \\/     M anipulation  |
\*---------------------------------------------------------------------------*/
FoamFile
{
    version     2.0;
    format      ascii;
    class       volScalarField;
    location    "0.07";
    object      nut;
}
// * * * * * * * * * * * * * * * * * * * * * * * * * * * * * * * * * * * * * //

dimensions      [0 2 -1 0 0 0 0];

internalField   nonuniform List<scalar> 
815
(
0.00248086064343
0.00247842281122
0.0024723474124
0.00275673504164
0.00275100458685
0.00273779715249
0.00299528403838
0.00298587197557
0.00296456674904
0.00309841914417
0.00308584804415
0.00305816659002
0.00298414051014
0.00297263247688
0.00294755690135
0.00262672095252
0.00262053453226
0.00260627935734
0.00205089686958
0.00204796191858
0.00204125613961
0.00137051285725
0.00136801531752
0.00136291543088
0.000765350022823
0.00076355284133
0.000760236097989
0.000425661485863
0.000424806474887
0.000423129381449
0.000329265538579
0.000328875539928
0.00032799596267
0.000385711910548
0.000385369265241
0.000384487371417
0.00048806359457
0.000487547816872
0.000486305575348
0.000564346668364
0.000563713621858
0.00056227574001
0.0006082584074
0.000607606653702
0.000606169019912
0.000630355948269
0.000629755740933
0.000628438845373
0.000639281762558
0.000638764499952
0.000637637971018
0.000639864866183
0.000639441395026
0.000638518343701
0.000634716315364
0.000634388930093
0.000633674408623
0.000625202936524
0.000624962393017
0.000624438505554
0.000612125321941
0.000611957445075
0.000611596419729
0.000596089697945
0.000595971043253
0.000595731041561
0.00057756614601
0.000577487531196
0.000577347346665
0.000557159110364
0.000557096797203
0.000557010105642
0.000535257231525
0.000535212958129
0.00053517526947
0.000512171313753
0.00051212706945
0.000512105173952
0.000486276199103
0.000486226192042
0.000486225515771
0.000446321812718
0.00044624836983
0.000446344601416
0.000341912480022
0.000341646490192
0.000341963289646
0.000164819976938
0.000164558677066
0.000164797081904
0.000154980886963
0.000155062261987
0.000155068527548
0.00246297263279
0.0027182282392
0.0029336501632
0.00301903652894
0.00291241582652
0.00258583780437
0.00203182804211
0.00135610833997
0.000755970479995
0.000420971747634
0.000326928751675
0.000383362456821
0.000484598484877
0.000560260260142
0.000604148097754
0.000626579540213
0.000636035357386
0.000637197992074
0.000632647115214
0.00062368529169
0.000611083776616
0.000595408396412
0.000577184369176
0.000556950468779
0.000535201569129
0.000512179649095
0.000486365658428
0.000446716184644
0.000342958167443
0.00016550773097
0.000155018786471
0.000175926429578
9.32727441825e-05
0.000102171905461
0.000152098192132
0.000156387897451
0.000137853638654
0.000153659952536
0.00243944319598
0.00237074140939
0.00224026490701
0.00202254234518
0.00170875452247
0.00132067222463
0.000919185139746
0.000602221727675
0.000411533457879
0.000316225974182
0.000271314439617
0.000233243948553
0.000177036267224
0.000117725412246
9.40642644307e-05
0.000119189423434
0.000141355458333
0.000128172230914
0.000121296812755
0.000151207670542
0.00267415692704
0.00256091011864
0.00236129930922
0.00204473930257
0.00161651668423
0.00113832919045
0.000719737802624
0.000448762286796
0.000312163193945
0.000246016805882
0.000206919304499
0.000173834834329
0.000138599401525
0.000112152015912
0.000112696765962
0.00013101677651
0.000129249829664
0.000114194186123
0.000115061047656
0.000149893680822
0.0028658769765
0.00270052533744
0.00242691369105
0.002029605667
0.00153800253677
0.00104067790923
0.000652065048625
0.000421070068832
0.000305052768722
0.000244113550747
0.000205481324086
0.000176054147726
0.000152821752946
0.000139521677504
0.000142068239912
0.000145000591405
0.000134180336365
0.000121521621025
0.000122487740913
0.000153671022944
0.00293493037229
0.00274281358045
0.00244231114369
0.00202747086024
0.00153952147545
0.00106899271074
0.000709788904593
0.000488515796041
0.000368540201643
0.000302474866166
0.000261186291048
0.000230818097244
0.000207329039862
0.000193436167054
0.000188533838761
0.000182135713878
0.000168305435114
0.000155049089355
0.000149905633216
0.000168565379485
0.00283679109284
0.00266876028513
0.00240969905838
0.00205522197505
0.00163824433514
0.00122819150235
0.000893007782721
0.00066016427863
0.000516389994252
0.000428675159071
0.000369190824157
0.000325585680578
0.00029427133346
0.000273367858333
0.000260292474979
0.00024862046356
0.000233886947276
0.000217949347263
0.000202731327021
0.000199968243444
0.00254107576507
0.00243808594043
0.00227061513192
0.00202903929523
0.00172935149045
0.00141027779332
0.00111471463852
0.000873791876525
0.000695252409768
0.000568957041992
0.000480069376156
0.000418032127878
0.000375186511369
0.000347860388101
0.000332549597931
0.000324082671313
0.000315681012048
0.000302495152374
0.000277450892131
0.000244726719766
0.00201126467701
0.00196826769918
0.00189426303673
0.00177440945747
0.00159916500537
0.00138017309698
0.00114286324991
0.000917985372723
0.000732986510377
0.000594680599958
0.000497289832733
0.000432980445851
0.000394904542948
0.000377920124185
0.000377340917372
0.000386737514472
0.000396545132171
0.000393382059909
0.00035907365514
0.000286667926564
0.00134124835397
0.00131269675626
0.00126582095513
0.00119352586475
0.00109146222557
0.000962796798158
0.000819286015868
0.00068024347565
0.000562874789274
0.000474019424505
0.000415427380398
0.000385325336526
0.00037944814811
0.000392669691849
0.000418369364417
0.000446967667864
0.000469011179704
0.000472476226317
0.00042972622351
0.000311816886831
0.000746910742919
0.000729150258542
0.000701032588038
0.000660287950502
0.000607244719082
0.000545812109567
0.000482681585055
0.000425495456537
0.000381578177768
0.00035623808904
0.000352999535719
0.000371652651686
0.0004074357541
0.00045243236871
0.000496563401836
0.000529291334255
0.000545006201403
0.000537926082342
0.000478896814599
0.000327507961287
0.000416539498012
0.000407258090975
0.000393479641943
0.000375700827092
0.000355582328601
0.000335959610357
0.000320204323771
0.000312231753637
0.000316776790644
0.000337836770333
0.000376690681286
0.00043008977537
0.000490644718504
0.000548935722152
0.000595553770015
0.000623055590538
0.000629093487537
0.000608354400208
0.000536690265061
0.000382097993393
0.000325027712855
0.000321740134868
0.000317443002335
0.000312372019125
0.0003073803974
0.000304371447865
0.000307064720946
0.000320414658071
0.000348812607119
0.000394083309918
0.000453978473583
0.000522273902066
0.000590464495229
0.000650312883553
0.000695163043415
0.000720539081353
0.000724191632448
0.000700854943758
0.000632990628596
0.00049549601456
0.000381393641398
0.000377990929346
0.000373242585138
0.00036695963175
0.000360330021471
0.000356618634092
0.000361060217033
0.00037920983165
0.000414328729423
0.000466166522468
0.000531029020682
0.000602807886634
0.000674418158184
0.000739284585088
0.000791870788083
0.000827928363818
0.000843293464772
0.000832159918294
0.000780214239324
0.000658645674804
0.000481225407919
0.000474330853435
0.000464551987889
0.000451954577906
0.000438212597419
0.000427381995303
0.00042539762943
0.000438208542473
0.000469353556718
0.000518917709009
0.000583891152135
0.000659229600201
0.000739004955298
0.00081732587777
0.00088873728648
0.000948032915273
0.00098900049597
0.0010030010588
0.000970558589592
0.000841349280022
0.00055609664838
0.000547284803894
0.000534613382723
0.000518057664671
0.000498982649257
0.00048122748589
0.000470979011708
0.000475134139004
0.000498830266163
0.000543953981921
0.00060922936274
0.00069122901219
0.000785290750663
0.00088606633795
0.000987691386941
0.00108326845712
0.00116311743734
0.00121176416042
0.00119433994214
0.00102094728164
0.000599913117833
0.000590851945576
0.000577499604291
0.000559460808514
0.000537441875283
0.000514613628212
0.000497027779828
0.000492442559369
0.000507908314618
0.000547791086231
0.000613484493297
0.000704117818891
0.00081705727304
0.000947830536936
0.00108982763654
0.00123344649261
0.00136335147409
0.00145205530276
0.001439692996
0.00118550685804
0.00062265941122
0.000614219406594
0.000601384035812
0.000583328363515
0.000560032663585
0.000533793602636
0.000510111505709
0.000497145232875
0.000503663315453
0.000536862587632
0.000601712072918
0.000701257965977
0.000836228883852
0.0010036435416
0.0011956137722
0.00139797390472
0.00158647836773
0.00171693632139
0.00169777218585
0.00133573501601
0.000632650918479
0.000625235279405
0.000613536554033
0.00059634067748
0.000572935141691
0.00054468228829
0.000516241009613
0.000495659116174
0.000492932384125
0.000518060589848
0.000580298709956
0.000688142362605
0.000847491257363
0.00105765708117
0.00130826220827
0.00157760894894
0.0018286326462
0.00199652202006
0.00195847510339
0.001477268233
0.000634428925394
0.000628216394887
0.000617967800076
0.00060215713107
0.000579484771242
0.000550432610849
0.000518669582091
0.000491672283715
0.000480050479488
0.000496214381512
0.000554113755221
0.000669349686207
0.000855283081236
0.00111427175074
0.00143114934394
0.00177254807267
0.00208491374947
0.00228177919345
0.00221453084534
0.00161311599523
0.000630520383536
0.000625557934946
0.000616881037263
0.00060273155513
0.000581351430728
0.000552481602707
0.000518829551076
0.000487042475237
0.000467763759404
0.000475250188372
0.000528277314187
0.000651127830107
0.000867021948456
0.00118135653517
0.0015702345579
0.00198418333983
0.00235148806845
0.0025666139894
0.00246192805461
0.00174400818008
0.000622165849052
0.000618398365959
0.00061127481234
0.000598876875678
0.000579119862211
0.000551182702062
0.000516948770645
0.000482177005263
0.000457183980711
0.000457576718932
0.000506994229426
0.00063977325743
0.000890881465855
0.00126717291067
0.0017307186705
0.00221300879826
0.00262548998227
0.00284821433515
0.00270019785777
0.00187042477184
0.000610107605051
0.00060741644045
0.000601726017436
0.000591022867532
0.000573021152085
0.000546524021386
0.000512793089132
0.000476815954582
0.000448513562562
0.000444678218159
0.000494034534449
0.000642175095554
0.000936482821169
0.00138104304789
0.00191836917253
0.0024607748247
0.00290629107318
0.00312546840016
0.00292869509243
0.0019907876519
0.000594872379405
0.000593096917471
0.00058864956002
0.000579472282986
0.000563196826828
0.00053842820991
0.000506044000042
0.00047052279307
0.000441587581116
0.000437513377092
0.000492878750383
0.00066572825907
0.0010143315857
0.00153218126258
0.00213815948478
0.00272888854634
0.00319374758365
0.00339758336213
0.00314594253696
0.00210282102671
0.000577004801834
0.000575937004682
0.000572487506389
0.000564602742545
0.000549929880796
0.000527045676339
0.000496690952899
0.000463170415484
0.000436510412196
0.000437426900913
0.000507940525243
0.000719698253197
0.00113606052171
0.00172876910658
0.00239355979952
0.00301792730746
0.00348677839557
0.00366243524029
0.00334828669582
0.00220199050438
0.000557013265088
0.000556458840515
0.000553765147584
0.000546931497948
0.000533717914168
0.000512828414404
0.000485120577931
0.000455171153237
0.000434214976855
0.000447170760632
0.000546012180663
0.000815986430476
0.00131258271422
0.00197574585855
0.00268493674427
0.00332515749987
0.00378052312632
0.00391308171614
0.00352673065637
0.00228022676522
0.000535436504866
0.000535210905472
0.000533059792579
0.000527083963705
0.000515240688047
0.000496512326462
0.000472169127741
0.000447717945038
0.000437096754257
0.000472083231247
0.000617890341767
0.000968391757552
0.00155107819033
0.00227205663228
0.00300611498951
0.00364117984226
0.00406285658565
0.00413448740867
0.00366451518739
0.00232392568375
0.000512514353191
0.000512515634151
0.000510795278018
0.000505601972566
0.000495179387632
0.000478962280445
0.000459053835205
0.000442946499928
0.000449560200962
0.000521052112078
0.000738206681114
0.00118697534507
0.00184806740838
0.00260534199746
0.00333983763481
0.00394455879966
0.00430760267845
0.00429580711949
0.00372861110404
0.0023080545212
0.00048683765731
0.000487171004596
0.000486019122816
0.000481805766813
0.000473147957928
0.000460166231654
0.000446447243981
0.000443128811293
0.000477195608748
0.000605188364479
0.000917914027749
0.00146552183841
0.00218102637791
0.00294487082578
0.00364842622038
0.00419037988048
0.00446288839167
0.00434028698476
0.0036645346066
0.00219891179968
0.000447693798334
0.000449120321824
0.000449415683466
0.000447094368203
0.000441168976538
0.000432694829716
0.000427619148005
0.00044301054931
0.000517848256121
0.000724480526134
0.00114132338014
0.00176266071186
0.00249298862104
0.00322203739881
0.00385233997433
0.00428879660334
0.00443087862644
0.00416853067235
0.00338504822595
0.00195084843356
0.000345321826949
0.000349575624268
0.000353210944376
0.000354462702094
0.000352445760639
0.000348984121784
0.00035280482774
0.000389755234497
0.000516949197174
0.000812717327215
0.00131107393808
0.00195486082312
0.00264355144623
0.00328133789984
0.00378211773653
0.004060669332
0.0040329400061
0.00362109789001
0.00277815918015
0.00152643185242
0.000167089275844
0.000169852729962
0.000172042057827
0.000172375432353
0.000170257795424
0.000167118541736
0.000169926192433
0.000202571635335
0.000329716060393
0.000640978862701
0.0011366439715
0.00172072626596
0.0022926496218
0.00277044823366
0.00308542667171
0.00317615817637
0.00299647557314
0.00252721707017
0.00180842651285
0.000984237140429
0.000154854348256
0.00015430536314
0.000153032673055
0.000150705824818
0.000147299893479
0.00014349723961
0.000141859386187
0.000150892415196
0.000195981459066
0.000325153990948
0.000564874120122
0.000873967453495
0.001180424372
0.00142154745452
0.00155287468167
0.00155159981781
0.00141404119418
0.00116702827928
0.00085867516075
0.000575137401205
0.000128614889137
6.4647466584e-05
0.000130830331829
6.90952407212e-05
0.000134432625922
7.5142622352e-05
0.00014245116731
8.37367421162e-05
0.000157445792965
9.64023247144e-05
0.000179365950066
0.000114823167183
0.000201227273582
0.000142134779844
0.000197406630059
0.000183737973555
0.000167388766849
0.000302559796814
0.00011791950718
8.09264335539e-05
0.000125370110841
9.03406319831e-05
0.000143369723957
9.9070027501e-05
0.000165714707937
0.000107427828928
0.000187189090933
0.000115223467926
0.000206274111105
0.000122519892126
0.000222865618984
0.000129351895775
0.000238542303496
0.000135959003369
0.000254412498333
0.000142409729285
0.000270840910781
0.000148707112335
0.0002876907408
0.000154851153586
0.000304578991494
0.000160804595296
0.000321024087972
0.000166501325769
0.000336413470591
0.000171860035586
0.000349738585369
0.000176793085107
0.000359948258337
0.000181177950702
0.000364623918092
0.000184884556279
0.00036191688326
0.00018777306043
0.000348732362895
0.000189730751443
0.000323049173478
0.000190709170036
0.000291896082216
0.000190834150007
0.000278660544159
0.000190173276024
0.000324258046807
0.000186801003508
)
;

boundaryField
{
    inletfuel
    {
        type            calculated;
        value           nonuniform 0();
    }
    inletair
    {
        type            calculated;
        value           nonuniform 0();
    }
    outlet
    {
        type            calculated;
        value           uniform 0.00045;
    }
    axis
    {
        type            empty;
    }
    leftside
    {
        type            nutkWallFunction;
        Cmu             0.09;
        kappa           0.41;
        E               9.8;
        value           nonuniform List<scalar> 
32
(
0
0
0
0
0
0
0
0
0
1.51551883311e-06
3.03093909054e-06
4.41335086119e-06
5.72047116256e-06
6.9260140243e-06
8.04328828284e-06
9.08016058845e-06
1.00748432566e-05
1.10387803639e-05
1.19731482801e-05
1.28785600683e-05
1.37500978945e-05
1.45786373525e-05
1.53528998368e-05
1.60608194903e-05
1.66854837377e-05
1.72088259156e-05
1.76115723892e-05
1.78781669898e-05
1.80023220471e-05
1.80031458019e-05
1.78926740968e-05
1.73987999668e-05
)
;
    }
    burnerwall
    {
        type            nutkWallFunction;
        Cmu             0.09;
        kappa           0.41;
        E               9.8;
        value           nonuniform 0();
    }
    front
    {
        type            wedge;
    }
    back
    {
        type            wedge;
    }
    procBoundary1to0
    {
        type            processor;
        value           nonuniform List<scalar> 
27
(
0.00236444040204
0.00236108177815
0.00235371913733
0.0023433682839
0.000327725890703
0.000121320134854
8.75623207371e-05
0.000139392689995
0.000183923602301
0.000161805293469
0.000155589886049
0.00231931681589
0.00225921001989
0.00215746013652
0.00199906638661
0.00177327813027
0.00148202517372
0.00115572940086
0.000859049484921
0.000631138777997
0.000482374477952
0.000410063078339
0.000384308263952
0.000319661278832
0.000319661278832
0.0001263419783
6.10607013883e-05
)
;
    }
}


// ************************************************************************* //
