/*--------------------------------*- C++ -*----------------------------------*\
  =========                 |
  \\      /  F ield         | OpenFOAM: The Open Source CFD Toolbox
   \\    /   O peration     | Website:  https://openfoam.org
    \\  /    A nd           | Version:  7
     \\/     M anipulation  |
\*---------------------------------------------------------------------------*/
FoamFile
{
    version     2.0;
    format      ascii;
    class       volScalarField;
    location    "0.07";
    object      O2;
}
// * * * * * * * * * * * * * * * * * * * * * * * * * * * * * * * * * * * * * //

dimensions      [0 0 0 0 0 0 0];

internalField   nonuniform List<scalar> 
815
(
0.0161781624543
0.0164799346311
0.0171406360243
0.0245277364868
0.0250257700362
0.0261176130664
0.0360873956574
0.0368995073861
0.0386579149713
0.0511271088271
0.0519492142697
0.053722179504
0.06575448625
0.0664191422433
0.0678447502291
0.0836063626116
0.0840245365727
0.0849499488587
0.109987378287
0.110212206245
0.110703185716
0.142119788134
0.14226438603
0.142558125305
0.170972778618
0.171063530017
0.171227236158
0.190327175865
0.190369143347
0.190443894024
0.201349916602
0.201366310994
0.201389402256
0.207106011772
0.20710756582
0.207106584469
0.210173088345
0.210171345808
0.210165355068
0.212043713018
0.212041840385
0.212036651423
0.213349159284
0.213348148837
0.213345407217
0.214361574512
0.214361774604
0.214361834302
0.215209727614
0.215210828574
0.215213111737
0.215956064161
0.215958112908
0.215962564026
0.216637894147
0.216640792667
0.216647148949
0.217276651583
0.217280260852
0.217288252268
0.217884048845
0.217888439971
0.217897997333
0.218468033379
0.218473080672
0.218483927036
0.219031674086
0.219037216429
0.219049096788
0.21957526407
0.219581277108
0.219594054037
0.220098905641
0.220105174441
0.220118527686
0.220600216816
0.220606707174
0.220620518743
0.221077454025
0.221084052153
0.221098081476
0.22152686715
0.22153343821
0.221547410976
0.221939905483
0.221946371146
0.221960108464
0.222301321458
0.222307654206
0.222321094769
0.222574289396
0.222580205703
0.222593041503
0.0180727283316
0.0276541104149
0.0411139361993
0.0561753142807
0.0698130576113
0.086239213863
0.111379993528
0.142951046992
0.171438286495
0.190538094035
0.201415809508
0.207102166816
0.210155143657
0.212028263303
0.213340809475
0.214361358304
0.215215937463
0.215968503307
0.216655795965
0.21729920211
0.217911120952
0.218498846633
0.219065465094
0.219611668928
0.220136983617
0.220639616584
0.221117478266
0.22156673963
0.221979143981
0.222339776819
0.222610938962
0.202494363013
0.219122383775
0.226415557811
0.228650740904
0.229312980457
0.229526275377
0.229015699985
0.0201656733705
0.0247647919159
0.0318898028252
0.0420465939558
0.0560254443543
0.075750278863
0.0985440348615
0.121624699486
0.142390256574
0.159546780763
0.173588800106
0.186611558868
0.200220346315
0.212592690874
0.221261253733
0.225382414435
0.226796602387
0.227500912523
0.228002156078
0.227799354133
0.0310609834517
0.0386607624986
0.0510896547979
0.0681696035893
0.088781308401
0.111163351513
0.133008124728
0.151977842782
0.167061097015
0.178857383943
0.188710637782
0.197940701601
0.206891357139
0.214600838119
0.219757592762
0.222261780213
0.223398609536
0.224447441468
0.225582816897
0.226083413725
0.0464139339699
0.0573644719612
0.0722393150499
0.0903766182719
0.110564825896
0.130994391949
0.149483809951
0.164439325469
0.175866050072
0.184868242621
0.192478020074
0.199319021922
0.20554349707
0.210883365352
0.214389241869
0.216305039999
0.217711101257
0.219582439574
0.221821443842
0.223696639443
0.0613964183253
0.071887709867
0.0857370222734
0.102203251058
0.120101972128
0.137762196021
0.153301728823
0.165681240635
0.175095629334
0.182382425186
0.188318590405
0.193508579121
0.198241797616
0.202241289461
0.204992744346
0.206966839092
0.209219330025
0.21233760994
0.216330498971
0.220491421483
0.0740108353594
0.0824271060867
0.093565179263
0.106863867034
0.121386307273
0.135773080735
0.148653324847
0.159231838449
0.167469604568
0.173855157745
0.179069120392
0.183530997902
0.187400598921
0.190650423608
0.193206897518
0.195583937669
0.198705950408
0.203220942326
0.209463330856
0.21667945703
0.0890172488508
0.0946738081808
0.102310108565
0.111637423808
0.122085959956
0.132846296199
0.143116410115
0.152199547834
0.159811670604
0.166053582853
0.171159204206
0.175351528778
0.178811307766
0.181634004288
0.183966487515
0.186306955768
0.189525953446
0.194698951036
0.202812339206
0.213103898831
0.112851107642
0.115732732475
0.119740755282
0.124957758105
0.131461022051
0.138937455676
0.146819745549
0.154458640978
0.161267084262
0.1670119019
0.171685224096
0.175391505264
0.178256117152
0.180405906645
0.18200426353
0.183486815603
0.185738985783
0.190314563076
0.198976093391
0.211057417635
0.143809471497
0.145416164682
0.147670814159
0.150658554599
0.154429945554
0.158878258396
0.163741073037
0.168605302261
0.173072468766
0.176943171675
0.180087146633
0.182467477701
0.184158687461
0.18525628307
0.185873648473
0.186329758531
0.18739594695
0.190716753217
0.198654608316
0.210680996636
0.171888071052
0.172723892352
0.173916575188
0.175507742576
0.177481425015
0.179743086098
0.182153642478
0.184545311353
0.186734690482
0.188589763096
0.190010032406
0.190963407153
0.191499507881
0.191689277581
0.191652148712
0.191647478819
0.192300249995
0.194963692235
0.201534184719
0.211046027509
0.19073559531
0.191124074765
0.191686497347
0.192416713191
0.193272562159
0.194178418338
0.195065892211
0.195875345753
0.19653705813
0.197017616487
0.197305876944
0.197410797308
0.197360724228
0.197203366586
0.197037463318
0.197070786895
0.19776033848
0.20001945521
0.204917755757
0.211456050297
0.201468489733
0.201570623864
0.201715784664
0.201892286664
0.20207591862
0.202229969555
0.202335096656
0.202381900434
0.202360254674
0.202268045727
0.202114565841
0.201920173266
0.201716190529
0.201548769131
0.201500279287
0.201727457884
0.202516534273
0.204337145778
0.207637031847
0.211626438353
0.207091496745
0.207060073463
0.207012863505
0.206945558115
0.206850959671
0.206719290089
0.20654280113
0.206320744183
0.206059815171
0.205775959392
0.205492740206
0.205238021714
0.205043344282
0.204947216002
0.205008079758
0.205320357418
0.20603193951
0.207342872791
0.209357012921
0.211475132838
0.210131483471
0.210072459625
0.209985070191
0.209866219288
0.2097107886
0.209512587692
0.209267701799
0.208979714992
0.208662611734
0.208340520447
0.208043366932
0.207801704855
0.207643346663
0.207595012867
0.207687294716
0.207960055289
0.208465035464
0.209251383949
0.210266075835
0.211060327895
0.212008547126
0.211959338099
0.21188494132
0.211781613462
0.211643788222
0.211464948627
0.211240567107
0.210973228317
0.210676717673
0.210375878589
0.210101216233
0.209881349239
0.209737382878
0.209682020824
0.209720641682
0.209854044948
0.210077020541
0.210365736452
0.210614086194
0.210506808649
0.213329503944
0.213299562729
0.213252589877
0.213184813665
0.213090474349
0.212962325539
0.212793782695
0.212583535546
0.212340314373
0.212084027509
0.211840687147
0.211633380731
0.211475184501
0.211365726697
0.211291763292
0.211229811017
0.211145299851
0.210984418475
0.210642566745
0.209919145728
0.214358990981
0.214349296345
0.21433185127
0.214303600044
0.214259278692
0.214191538823
0.214091917931
0.213954368201
0.213779906376
0.213579252629
0.213369233128
0.213164242918
0.212968195138
0.212770396413
0.212546470375
0.212261120562
0.21186961056
0.211313615319
0.210513001634
0.209356529493
0.215221404169
0.215230179532
0.215240139102
0.215249294169
0.215253381849
0.21524567389
0.215216776113
0.215156611934
0.215057940305
0.214919684339
0.214745476977
0.214537068516
0.21428756955
0.213978872527
0.2135827308
0.213062504565
0.212375788749
0.211473618306
0.2103070254
0.208830163599
0.215981079599
0.216006054556
0.216040132885
0.216082528071
0.216130270327
0.216177749935
0.216215674789
0.216231297637
0.216210118943
0.216138453789
0.216003407635
0.215789258799
0.215475483141
0.215039232888
0.214455996497
0.213697068184
0.212730272907
0.211522859146
0.210055496773
0.20832543319
0.216674545147
0.216713384686
0.216768137816
0.216839100221
0.216924621019
0.217020375196
0.217117843497
0.217203040158
0.217255928429
0.21725093817
0.217156396926
0.216933864725
0.216545354309
0.2159665867
0.215185355589
0.21418850196
0.212958344443
0.211480486383
0.209758689225
0.207818627177
0.217323246052
0.217373886711
0.217446151531
0.217541262135
0.217658670444
0.217795226455
0.217943429843
0.218088970584
0.218207980942
0.218264376997
0.218206497985
0.217968476117
0.217491700885
0.216755798391
0.215769747286
0.214540378716
0.213065702071
0.211347769542
0.209407451495
0.207288132257
0.217939845931
0.218000553843
0.21808760158
0.218202894772
0.218346682154
0.218516705225
0.218706303038
0.218901148276
0.219074483915
0.219180829667
0.219148012485
0.218879279231
0.218295480922
0.217388637929
0.216195629966
0.214744069385
0.213045950992
0.211116082219
0.20898876723
0.206716696072
0.218531474188
0.218600646995
0.21870005344
0.218831989525
0.218997125487
0.219193680022
0.219415331122
0.219647372518
0.219860268809
0.219999351986
0.219970881305
0.219645832407
0.218930757537
0.217841661659
0.216445880343
0.214787892649
0.212890313772
0.210777206358
0.208492855735
0.206093236952
0.219101323298
0.219177531983
0.219287098499
0.219432396014
0.21961416014
0.219830534623
0.220074895903
0.220331417679
0.220566882496
0.220715934553
0.220660828486
0.220242607457
0.219369070714
0.218092459927
0.216505822102
0.214663104629
0.212593210583
0.210327598302
0.207915567546
0.205412009461
0.219650185745
0.219732069968
0.219849620962
0.220005056919
0.220198783757
0.220428356871
0.220686077321
0.220953805084
0.221192537866
0.221322460712
0.221198426423
0.220641477524
0.219586102317
0.21812627109
0.216368217167
0.214367676298
0.212156857197
0.209770482275
0.207258839291
0.204672180871
0.220177428106
0.220263541672
0.220386809752
0.220549073754
0.220750042529
0.220986137038
0.221247613521
0.221512205435
0.221731378722
0.221804628753
0.2215582374
0.22081637112
0.219568234085
0.217941379451
0.216039246224
0.21391310786
0.211594774446
0.209119035779
0.206533263033
0.203877981777
0.220681401296
0.220770231357
0.220896852404
0.221062501419
0.221265845552
0.221501519421
0.221756436999
0.222001310369
0.222172145253
0.222140501871
0.221712640863
0.220754003193
0.219322832253
0.217556912419
0.215543300452
0.213325831603
0.21093361727
0.208397720008
0.205757282388
0.203038378582
0.22115984595
0.221249735894
0.221377210279
0.221542664657
0.22174332727
0.221971221481
0.222207975815
0.222412735038
0.222497918896
0.222304279792
0.221646503092
0.22047060537
0.218886652915
0.21701613941
0.21492672644
0.212653224803
0.210219150476
0.207647475521
0.20496298832
0.202170488593
0.221608924082
0.221698295429
0.221824235831
0.221986050308
0.222179095567
0.222391768512
0.222597672767
0.222737962331
0.222693334107
0.222285179134
0.221383078397
0.22002259489
0.21832772118
0.216391914104
0.214263588751
0.211967416021
0.209518329543
0.206926371568
0.204194851975
0.201300409608
0.222020666661
0.222108492541
0.222231226733
0.222386931902
0.222568896016
0.222761260283
0.222927180393
0.222983238902
0.222773837292
0.22212922681
0.221011042382
0.219517272547
0.217756364534
0.215792669277
0.213657405731
0.211364061696
0.20891616665
0.206307079274
0.203513036203
0.200472866224
0.222380488846
0.22246640564
0.222585408206
0.222734607796
0.222905855368
0.223080419439
0.223213086212
0.223195664449
0.222832347647
0.221976806588
0.220691233648
0.219109358066
0.217315426173
0.215348424609
0.213223634583
0.210942546823
0.208496785437
0.205862240227
0.202990371647
0.199783799418
0.222650346204
0.222733539319
0.222848430354
0.222991760428
0.223154815008
0.223318292765
0.223435898223
0.223393382587
0.222969076514
0.221999880333
0.220604401269
0.218958385913
0.217138879516
0.215167229741
0.213045451965
0.210765208607
0.208310687897
0.205648306282
0.202715310143
0.19939902663
0.226893562063
0.225831764777
0.225748161082
0.224744981915
0.224367825248
0.223477042309
0.222668064221
0.221990871349
0.220588682369
0.220304289033
0.218242397856
0.218512585294
0.21609005328
0.216834278454
0.214729743011
0.215466856385
0.213948645734
0.214298719343
0.213062995796
0.213108793376
0.212143575802
0.211906721426
0.211240932293
0.210806997642
0.210400665671
0.209838505767
0.209614658917
0.208975021138
0.208880540859
0.208190744057
0.208193921651
0.207464921791
0.207551015466
0.206782160818
0.206940320693
0.206126422948
0.206344469577
0.205481015294
0.205744562006
0.204830287538
0.205124080806
0.204160880749
0.204469954256
0.203462405745
0.203772697235
0.202727035608
0.203025900879
0.201948935736
0.202225983858
0.201124967244
0.201371968337
0.200253915001
0.200468299888
0.199341250668
0.199526127668
0.198401419915
0.198569503408
0.19747401494
0.197667688272
0.196638572643
0.196950790509
0.196017246315
0.196578783911
0.195725219264
)
;

boundaryField
{
    inletfuel
    {
        type            fixedValue;
        value           nonuniform 0();
    }
    inletair
    {
        type            fixedValue;
        value           nonuniform 0();
    }
    outlet
    {
        type            zeroGradient;
    }
    axis
    {
        type            empty;
    }
    leftside
    {
        type            zeroGradient;
    }
    burnerwall
    {
        type            zeroGradient;
    }
    front
    {
        type            wedge;
    }
    back
    {
        type            wedge;
    }
    procBoundary1to0
    {
        type            processor;
        value           nonuniform List<scalar> 
27
(
0.00927870959673
0.00943452526716
0.00978689830295
0.0102897416857
0.180451552292
0.212824609
0.225554935022
0.229372772999
0.230330247874
0.230473744395
0.229879211914
0.0114360796492
0.0139742477356
0.0179142869553
0.0236491413097
0.0316768710077
0.0427860667018
0.0567194734148
0.0759341179075
0.0991785085522
0.121595897502
0.141045207244
0.158546501537
0.179211009772
0.179211009772
0.227849219773
0.226763351857
)
;
    }
}


// ************************************************************************* //
