/*--------------------------------*- C++ -*----------------------------------*\
  =========                 |
  \\      /  F ield         | OpenFOAM: The Open Source CFD Toolbox
   \\    /   O peration     | Website:  https://openfoam.org
    \\  /    A nd           | Version:  7
     \\/     M anipulation  |
\*---------------------------------------------------------------------------*/
FoamFile
{
    version     2.0;
    format      ascii;
    class       volScalarField;
    location    "0.07";
    object      one_over_tauStar;
}
// * * * * * * * * * * * * * * * * * * * * * * * * * * * * * * * * * * * * * //

dimensions      [0 0 -1 0 0 0 0];

internalField   nonuniform List<scalar> 
815
(
204.923347136
205.079799671
205.313873158
188.508446135
189.264402636
190.700322429
191.946734947
192.907307912
194.696462898
194.494996188
195.32560175
196.85774283
190.294272614
190.869192716
191.919822755
179.246835139
179.686615236
180.47130224
167.807212015
168.031609024
168.4838332
159.325080434
159.414964349
159.659164191
144.78697437
144.768841713
144.890191781
118.58913693
118.58062714
118.711878124
83.4516599212
83.4320334291
83.5147410527
54.0881941457
54.0909514246
54.1551383657
39.402370204
39.4122213583
39.466637087
33.0307692462
33.0457554836
33.0992987491
29.9179258319
29.9347550142
29.9880308319
28.0795802326
28.0953848852
28.1462704081
26.826597943
26.8433359223
26.8954877077
25.9001861377
25.9169041014
25.9693090039
25.1723264732
25.189089143
25.2423005285
24.5740209985
24.5906763011
24.6444807981
24.0598566737
24.0759436633
24.1298929939
23.6007734786
23.6149369426
23.6664802175
23.1675632708
23.1802085309
23.2298545931
22.7488137253
22.75840779
22.8031976218
22.3259252682
22.3331015091
22.3735370208
21.9085576585
21.912082476
21.9457305714
21.5734041089
21.5727240957
21.5973034533
21.8777834162
21.8738907798
21.8858253448
26.7664752816
26.7765166849
26.7658149443
60.7783080387
60.8999742427
60.8387373441
148.267283015
148.368378191
148.328541043
205.611281966
192.49858078
196.869298074
198.668463231
193.138658031
181.395474287
169.078012114
160.025043227
145.128371966
118.914286351
83.6306529397
54.2629559897
39.5727930404
33.2013058292
30.0873086317
28.2435992805
26.9946536787
26.0703960602
25.346121506
24.7508451289
24.238286264
23.7745937089
23.3369345198
22.9063538013
22.4715010733
22.0354553712
21.6751742474
21.9438456829
26.7677081163
60.6568896752
148.202614547
106.118822462
79.635734729
44.2704304153
23.2559477645
16.6746751533
15.8028493062
20.0662456487
206.273396476
207.392869705
207.633420519
205.372186928
199.3774725
188.948743174
173.878284913
156.17802007
136.545827668
118.356972418
110.014104051
108.175606434
103.349514666
88.309226102
62.3555775462
37.027609499
24.6628244849
20.6869051957
19.3578679455
21.3491377045
195.933263717
200.823317845
203.642637604
201.505909103
192.619764221
176.110938524
153.313606657
129.312560094
109.753001247
98.9265048544
95.3409274
93.7519990433
87.0339093839
71.093661583
51.0687567847
36.3897409156
29.7175138194
26.809318248
24.1730452948
23.3339762238
200.722531124
205.262205343
206.128528617
200.630035713
187.096745654
165.033866423
137.544370155
113.260813042
97.8942058127
89.7097220135
85.3781544061
81.5036846656
74.21658707
61.7658814923
49.7425924327
41.644129719
37.193759795
33.9877782927
30.1189029868
26.3115022061
201.742272873
204.579768817
203.023227419
194.596792085
178.341344952
155.614198988
130.99436449
110.726112073
97.2758818326
88.7955304028
82.8737637275
77.4527366096
70.6215449743
62.3988758027
54.8402688612
48.9516117205
44.4746904452
40.6175008692
36.2691241229
30.3869247834
195.17756457
196.503399467
193.570954327
184.603455052
169.723890587
150.987333938
131.794178945
115.630048608
103.643693614
94.6186975277
87.0591214923
80.1701482704
73.4138834184
66.4723846161
59.7740355519
53.9739959531
49.1531074987
45.124098715
41.1248731078
34.7162156033
183.037208655
184.329667962
182.344600187
175.701694908
164.627150057
150.653087306
135.805779745
122.130369725
110.401735639
100.275555818
91.253638013
83.0816265538
75.320672691
67.8091290404
60.7445650371
54.7113672859
49.9693978483
46.6981098762
43.8974646225
38.2469105524
170.290354089
171.95974433
171.98328019
169.011063934
162.018430557
151.459268447
138.671486682
125.3699639
112.957379982
101.662827554
91.1822381741
81.3242617018
72.0879557321
63.6300015345
56.3445163079
50.7816820567
47.2791634284
45.7910711837
44.7184729747
40.8745013273
160.76643963
161.754376469
161.346842842
158.559439807
152.630857599
143.446998757
131.796845083
119.202237678
106.825210213
94.8657758533
83.2997902751
72.3524791482
62.4810865707
54.1733737679
47.9229663581
44.0693365349
42.7053979624
43.5693673634
44.5517921382
44.1911841561
145.58282138
145.86832496
144.698169349
141.200128226
134.779310442
125.545442478
114.407717368
102.41697726
90.3225682731
78.3241970794
66.8592113924
56.8292843109
48.8885725967
43.1808897857
39.6513554274
38.2007803924
38.7961189968
41.299811159
44.2089572232
49.8131140197
119.105411792
118.419888857
116.038406166
111.479450812
104.65021469
96.1434309955
86.7872128281
77.04403309
67.2989809485
57.9900436001
49.8418876775
43.4436173682
38.9192561188
36.1120844917
34.8452601489
35.0299046203
36.7227597274
39.9369080748
44.3691309269
54.5367966789
83.6427453881
82.7901921672
80.709424932
77.3057286728
72.7116191928
67.3841107538
61.5346660555
55.2574340092
48.9408234014
43.2224663158
38.6363139904
35.3693787481
33.3466832779
32.4087087903
32.4472457161
33.4607784916
35.5710199105
39.0140024672
44.3918373995
56.4203628621
54.3850604079
54.2403412861
53.5862900943
52.3295149226
50.4349179068
47.9338338532
44.8952958714
41.4897955583
38.1006111894
35.1498172621
32.8981869867
31.4142690364
30.6643817264
30.5942920556
31.1877883719
32.4991443217
34.6768428275
38.0607416276
43.6265622205
55.7992040603
39.7751255791
40.0206197348
40.0542007692
39.7336101253
38.9755567253
37.7736999786
36.202299493
34.4141916043
32.6399414387
31.1139088895
29.9909653107
29.3386069334
29.1735581923
29.4944280971
30.3170582435
31.7044608189
33.8087612509
36.9983945557
42.3616632757
54.2508028725
33.419946665
33.7573072395
33.9756945334
33.9352308399
33.5595487732
32.855726835
31.9049860989
30.8330031401
29.7837035791
28.8978731561
28.2845740089
28.0153967463
28.1313619693
28.6517792428
29.5964128027
31.0142839969
33.0332419553
35.9908567447
40.9645120374
52.3717665263
30.3084332718
30.6710261256
30.9518587755
31.0155688415
30.7865711054
30.2744748909
29.5639899674
28.7764349678
28.0294665497
27.4236778947
27.0465846881
26.974359972
27.2654737322
27.9484695475
29.0311536826
30.5298440753
32.5223109123
35.2855753679
39.8230383836
50.7454293081
28.4683569916
28.8511425932
29.1731111882
29.2986600733
29.144937141
28.7128580709
28.0845841247
27.3881669884
26.7459927045
26.250207031
25.9829858895
26.0353932669
26.4877402234
27.3711691839
28.6644213227
30.3279372674
32.3683473191
34.9774883797
39.0454931605
49.5216122937
27.226009741
27.6290867956
27.9868904577
28.1602859097
28.0555629198
27.659138612
27.0441216249
26.3452855871
25.7028231416
25.2230328032
25.0009755657
25.157361017
25.8032563843
26.9615391423
28.551872983
30.4510679599
32.5825703416
35.051201657
38.6690524118
48.7359560174
26.308345379
26.7306792878
27.1193542405
27.3315741118
27.2632376943
26.8850405728
26.2554726823
25.5086272163
24.8046372371
24.2789182185
24.0609572284
24.3248148199
25.2224464688
26.7421433582
28.7001511584
30.8651101114
33.0836381919
35.3986308476
38.5958463605
48.3432580584
25.591084052
26.0303613643
26.4438783325
26.6860969062
26.6445874124
26.2760607421
25.6226139557
24.8099688885
24.0110983478
23.397393991
23.1580001916
23.5554587353
24.786284606
26.7492285111
29.1050818095
31.5121734259
33.7725139698
35.9119956653
38.7436766344
48.2882442789
25.0016108631
25.4533595375
25.8838702261
26.1456799957
26.1209349783
25.7556676244
25.0764739808
24.1955834655
23.2896299482
22.5650875603
22.2986118829
22.8864329335
24.5466859171
27.0018938509
29.727889627
32.309074685
34.5499423392
36.5009898977
39.0297654533
48.4737196451
24.4928026951
24.950900666
25.3884545934
25.6575757814
25.6377848203
25.2681753364
24.5627540427
23.6184917678
22.6086861747
21.7736385356
21.5102101626
22.388751401
24.5690312992
27.5073206693
30.5226129477
33.1876381439
35.3504794346
37.1108422247
39.4015032882
48.837009145
24.029354796
24.4867122844
24.9202062453
25.1827852611
25.1542400162
24.7702410454
24.0361120679
23.0362258279
21.9378481334
21.0210879648
20.8470888112
22.1601225797
24.907724667
28.2501294618
31.4365771993
34.0930991037
36.1356861248
37.7163919076
39.8323969288
49.3347982617
23.5877879491
24.0346093294
24.4514622132
24.6928135981
24.6406918184
24.2310227077
23.4647910068
22.4176665721
21.2554050971
20.3237560988
20.4056457112
22.3113177764
25.5900398899
29.1962866127
32.4229312321
34.9954546793
36.8950756104
38.3204575177
40.3199139669
49.9457297781
23.1482233849
23.5748737524
23.9623486552
24.1679143781
24.0780492555
23.6318119471
22.8297881865
21.7444949246
20.5567537927
19.7383037687
20.327957391
22.9194680229
26.5937078034
30.2953676874
33.4473832749
35.8825435513
37.6389809746
38.945013149
40.8846022729
50.6824627204
22.6994869948
23.0949978788
23.440463006
23.5970727563
23.4572230079
22.9653251237
22.1251682392
21.0154728674
19.8716020285
19.3911393862
20.759529195
23.9790303029
27.8531713958
31.4914391107
34.4858414083
36.7635239439
38.4007217663
39.6373325186
41.5760191069
51.5781151648
22.2435399037
22.5974619805
22.888901527
22.9847667717
22.7848546555
22.2406256662
21.3635257993
20.2585388478
19.2954447489
19.4791628398
21.7532057343
25.3945615264
29.2734983455
32.736413927
35.5402542882
37.6776268021
39.2448552463
40.4852469019
42.508835031
52.7930884092
21.8562493091
22.1548879683
22.3771367868
22.3981664228
22.1270759407
21.5246296545
20.6182785163
19.5827534338
19.0421826681
20.1891857064
23.2253437326
27.0404099471
30.7854367369
34.0327658068
36.6648410353
38.7176573617
40.3038501256
41.6716014627
43.9312898934
54.6309804514
22.0795568184
22.2845886546
22.3944944878
22.3003574495
21.9262622283
21.2471435217
20.3210192377
19.4579183065
19.5916727356
21.6769450401
25.1268926274
28.9157740018
32.4645698608
35.5205364636
38.0579676036
40.1430671202
41.9153674557
43.6533549226
46.4960986891
58.0301205735
26.7691507196
26.6996660026
26.4973673745
26.1055243946
25.4875150274
24.6345243352
23.5937801073
22.6891021239
22.9062103236
24.954403546
28.1633214697
31.6609859671
34.9645426813
37.9053531542
40.50554396
42.8605001906
45.1792601847
47.8560228827
52.2144703016
65.9637384963
60.2294414297
59.3369402847
58.2634867714
57.1435329463
56.0587146962
54.9139076028
53.1045368284
49.1014928367
42.7896223539
38.559887155
38.1454662053
39.7986377819
42.2190030704
44.8911090513
47.7272798827
50.829271866
54.5720969278
59.695963885
68.1635136261
87.4750097732
147.903469087
147.34251311
146.759742666
146.312216649
146.08561727
145.921832389
144.929475815
140.122573911
126.165367777
105.292650651
89.003453367
80.4063594994
77.0448170046
76.8564907725
78.9223705606
83.0141896359
89.5878671917
99.6099897901
115.008528934
137.647541674
38.2145018147
53.9144510786
38.472534977
53.9674707094
38.6609111123
54.0263433374
39.0508357897
54.0962784158
40.083570831
54.1732430844
42.1172382932
54.2558130629
45.8676079983
54.3310338812
55.2657319308
54.3965932003
78.8426825152
54.4550964857
130.056498839
259.51279474
148.831205522
289.554872038
156.861808719
317.359273626
158.723249514
343.967954798
159.51518667
368.791155762
160.294758958
392.013931892
162.209607288
413.751335943
164.771609805
434.755722517
167.69641911
455.250675863
170.873688411
475.248793543
174.24007835
494.75109828
177.681406086
513.640467726
181.115801598
531.708291261
184.521414376
548.696556241
187.967841349
564.327392371
191.42356651
578.216026794
195.209575844
589.944442395
199.245825601
599.068566388
203.936123458
605.225715302
210.115310596
608.257292298
217.576801062
608.571224081
222.546285018
606.459748174
217.014956715
596.141075114
)
;

boundaryField
{
    inletfuel
    {
        type            calculated;
        value           nonuniform 0();
    }
    inletair
    {
        type            calculated;
        value           nonuniform 0();
    }
    outlet
    {
        type            calculated;
        value           uniform 200;
    }
    axis
    {
        type            empty;
    }
    leftside
    {
        type            calculated;
        value           nonuniform List<scalar> 
32
(
53.9144510786
53.9674707094
54.0263433374
54.0962784158
54.1732430844
54.2558130629
54.3310338812
54.3965932003
54.4550964857
259.51279474
289.554872038
317.359273626
343.967954798
368.791155762
392.013931892
413.751335943
434.755722517
455.250675863
475.248793543
494.75109828
513.640467726
531.708291261
548.696556241
564.327392371
578.216026794
589.944442395
599.068566388
605.225715302
608.257292298
608.571224081
606.459748174
596.141075114
)
;
    }
    burnerwall
    {
        type            calculated;
        value           nonuniform 0();
    }
    front
    {
        type            wedge;
    }
    back
    {
        type            wedge;
    }
    procBoundary1to0
    {
        type            processor;
        value           nonuniform List<scalar> 
27
(
281.561915754
281.021970107
279.56113197
277.541231067
126.415655259
99.4397675952
59.1433274779
26.4378548516
14.9011569149
13.3058564244
19.1473545391
272.955348825
264.31425583
253.713483917
242.010654462
229.539649718
216.141930316
201.621239528
186.390530001
168.86672237
148.879375458
131.644581959
125.485227085
122.94935379
122.94935379
37.7810539268
53.8695358029
)
;
    }
}


// ************************************************************************* //
