/*--------------------------------*- C++ -*----------------------------------*\
  =========                 |
  \\      /  F ield         | OpenFOAM: The Open Source CFD Toolbox
   \\    /   O peration     | Website:  https://openfoam.org
    \\  /    A nd           | Version:  7
     \\/     M anipulation  |
\*---------------------------------------------------------------------------*/
FoamFile
{
    version     2.0;
    format      ascii;
    class       volScalarField;
    location    "0.07";
    object      p;
}
// * * * * * * * * * * * * * * * * * * * * * * * * * * * * * * * * * * * * * //

dimensions      [1 -1 -2 0 0 0 0];

internalField   nonuniform List<scalar> 
815
(
102735.938432
102735.948363
102735.947491
102729.721368
102729.733194
102729.728416
102721.511446
102721.537905
102721.528953
102714.63751
102714.655473
102714.641068
102706.061258
102706.080028
102706.068375
102698.533523
102698.5207
102698.505689
102690.196041
102690.195897
102690.188933
102682.982025
102682.985267
102682.963215
102672.953947
102672.952193
102672.940939
102658.271653
102658.267831
102658.255448
102639.554864
102639.554921
102639.546889
102622.925964
102622.927955
102622.924749
102600.59564
102600.597782
102600.593192
102578.276516
102578.277774
102578.274411
102547.487926
102547.489221
102547.487247
102514.291813
102514.292744
102514.289441
102476.462253
102476.463359
102476.462526
102434.898955
102434.900244
102434.899727
102388.297775
102388.298928
102388.298152
102336.630757
102336.630848
102336.62924
102279.210454
102279.211818
102279.20902
102215.504023
102215.504992
102215.501442
102144.820759
102144.821551
102144.81824
102067.681297
102067.683083
102067.680504
101984.56739
101984.568552
101984.564953
101895.592075
101895.593052
101895.58911
101801.46578
101801.466772
101801.463155
101702.725838
101702.726942
101702.724104
101599.467879
101599.469059
101599.467551
101491.807656
101491.808326
101491.808044
101380.002578
101380.001722
101380.000068
102735.949757
102729.71289
102721.511439
102714.613783
102706.047535
102698.482547
102690.182159
102682.931131
102672.926869
102658.23796
102639.535521
102622.9203
102600.587659
102578.270569
102547.485245
102514.285553
102476.461237
102434.899101
102388.297214
102336.627148
102279.205703
102215.497217
102144.814056
102067.677512
101984.559936
101895.583807
101801.458259
101702.720267
101599.465465
101491.807574
101379.997894
102744.365244
102745.408248
102745.766669
102747.188268
102749.219385
102751.209725
102753.156943
102735.971138
102735.88098
102735.761825
102735.564108
102735.269173
102735.18543
102734.793693
102735.012854
102734.977825
102734.828461
102734.97688
102734.804441
102735.048369
102735.283841
102735.15877
102734.85281
102735.919785
102737.643359
102740.032068
102741.880299
102729.698378
102729.677067
102729.688111
102729.735878
102729.743858
102729.714552
102729.63167
102729.516995
102729.336797
102729.143175
102728.966544
102728.592713
102729.050041
102729.890832
102730.689905
102730.459179
102730.658065
102730.629821
102731.783792
102733.316095
102721.47206
102721.43583
102721.333647
102721.19396
102720.96928
102720.652777
102720.190067
102719.643871
102719.056827
102718.358451
102717.546145
102716.600548
102714.507671
102712.292384
102709.940545
102710.579939
102715.492023
102717.399374
102718.839549
102720.608636
102714.562841
102714.528846
102714.420908
102714.285668
102714.046765
102713.793938
102713.435578
102712.868079
102712.256229
102711.55607
102710.644017
102709.809431
102709.678099
102709.595866
102709.351501
102709.683207
102706.582188
102706.096353
102710.283723
102710.851444
102705.999951
102705.939492
102705.804811
102705.635613
102705.40183
102705.08372
102704.65115
102704.225277
102703.674103
102702.905344
102702.24781
102701.583035
102700.644835
102699.925101
102698.768206
102698.179191
102698.099056
102698.080851
102696.621456
102699.775216
102698.416935
102698.361125
102698.219493
102698.048246
102697.743098
102697.394734
102696.961205
102696.478938
102696.01387
102695.753728
102695.548463
102695.056947
102694.598658
102694.105884
102693.544517
102693.176038
102692.688733
102693.145178
102694.005989
102693.212489
102690.173339
102690.16267
102690.14581
102690.09283
102690.041625
102689.893792
102689.696845
102689.485442
102689.087185
102688.605815
102688.010526
102687.316448
102686.55892
102685.766144
102684.985767
102684.290994
102683.738501
102683.436816
102683.640523
102683.636764
102682.864874
102682.638273
102682.347987
102682.001554
102681.635474
102681.253129
102680.871111
102680.414565
102679.856096
102679.234399
102678.600628
102678.104105
102677.582933
102677.007502
102676.471934
102676.012239
102675.695763
102675.488091
102675.396484
102674.36072
102672.892556
102672.821715
102672.705731
102672.52403
102672.211251
102671.754042
102671.118662
102670.360449
102669.533637
102668.637027
102667.744856
102666.804253
102665.913292
102665.147401
102664.496709
102663.960316
102663.52407
102663.222225
102663.043425
102662.746969
102658.198042
102658.111863
102657.980777
102657.80842
102657.588791
102657.327823
102657.023356
102656.678505
102656.296735
102655.884971
102655.400749
102654.797768
102654.219977
102653.770426
102653.451309
102653.260896
102653.206267
102653.287851
102653.342664
102654.113358
102639.508155
102639.451487
102639.362874
102639.243371
102639.086689
102638.894042
102638.66611
102638.408817
102638.13244
102637.847759
102637.56738
102637.317357
102637.118772
102636.904614
102636.746283
102636.72925
102636.881235
102636.994433
102637.167971
102637.214456
102622.910989
102622.893394
102622.867103
102622.83244
102622.788487
102622.735939
102622.677674
102622.613291
102622.541213
102622.458061
102622.358467
102622.231424
102622.069698
102621.874439
102621.618632
102621.344169
102621.199991
102620.902712
102620.757777
102620.514887
102600.576169
102600.55195
102600.516259
102600.46763
102600.40431
102600.325548
102600.231179
102600.122628
102600.001571
102599.87162
102599.734717
102599.586192
102599.440039
102599.276015
102599.084504
102598.908228
102598.631904
102598.270953
102598.106939
102597.812886
102578.262091
102578.24421
102578.217164
102578.178643
102578.125404
102578.053943
102577.959894
102577.839159
102577.685581
102577.497068
102577.258798
102576.980603
102576.644527
102576.253397
102575.812371
102575.382661
102574.719438
102574.072492
102573.512315
102572.980609
102547.481021
102547.472105
102547.458326
102547.438736
102547.411556
102547.374621
102547.324752
102547.258081
102547.169884
102547.054498
102546.899766
102546.714365
102546.476166
102546.193405
102545.908893
102545.518895
102544.96506
102544.506191
102544.044307
102543.88657
102514.276699
102514.267424
102514.25783
102514.247558
102514.235525
102514.221557
102514.203136
102514.174102
102514.126394
102514.045415
102513.933391
102513.774234
102513.568844
102513.342797
102513.079745
102512.664918
102512.136386
102511.653426
102511.219359
102510.928512
102476.458044
102476.450758
102476.437134
102476.416499
102476.386843
102476.346883
102476.296993
102476.238487
102476.174402
102476.105097
102476.018786
102475.908095
102475.778783
102475.619838
102475.354254
102474.992138
102474.581342
102474.21809
102473.97742
102473.784746
102434.897627
102434.894146
102434.886552
102434.874067
102434.854301
102434.824113
102434.779668
102434.717046
102434.634542
102434.533368
102434.416261
102434.279658
102434.10728
102433.861651
102433.523519
102433.122482
102432.717179
102432.324116
102432.106473
102431.798638
102388.295285
102388.291159
102388.283526
102388.271746
102388.253588
102388.226097
102388.184783
102388.123249
102388.033957
102387.909466
102387.744064
102387.52909
102387.25182
102386.89992
102386.466898
102386.014998
102385.551565
102385.151513
102384.845942
102384.579892
102336.623131
102336.615234
102336.602399
102336.583659
102336.55652
102336.517801
102336.462631
102336.384215
102336.272904
102336.117485
102335.904794
102335.621813
102335.265161
102334.814044
102334.287291
102333.76743
102333.197292
102332.795491
102332.31031
102332.058467
102279.198717
102279.184972
102279.16468
102279.13612
102279.096161
102279.041089
102278.965407
102278.861775
102278.719428
102278.526634
102278.26422
102277.928526
102277.49409
102276.97913
102276.381729
102275.806547
102275.172612
102274.771474
102274.146238
102273.88093
102215.488076
102215.469126
102215.440379
102215.399796
102215.343114
102215.265916
102215.161746
102215.022325
102214.836902
102214.592601
102214.272335
102213.874992
102213.376874
102212.795357
102212.171037
102211.531353
102210.95183
102210.327244
102209.766905
102209.459343
102144.805484
102144.784712
102144.751981
102144.703857
102144.636277
102144.543225
102144.418428
102144.252195
102144.035614
102143.753881
102143.400409
102142.968069
102142.451254
102141.853561
102141.23302
102140.632655
102139.931805
102139.286916
102138.733328
102138.408497
102067.670689
102067.64999
102067.615149
102067.562308
102067.486905
102067.381902
102067.239937
102067.050523
102066.804305
102066.486647
102066.103716
102065.637302
102065.09095
102064.511107
102063.882645
102063.165773
102062.399913
102061.784051
102061.229259
102060.904043
101984.548969
101984.524222
101984.483494
101984.425047
101984.342147
101984.229352
101984.077263
101983.876495
101983.61343
101983.275547
101982.865395
101982.364602
101981.805846
101981.182775
101980.427921
101979.694446
101978.98006
101978.411136
101977.885444
101977.601175
101895.571987
101895.545949
101895.504339
101895.444747
101895.361235
101895.248339
101895.097788
101894.90194
101894.647839
101894.33689
101893.950458
101893.481614
101892.942631
101892.324443
101891.680378
101891.10238
101890.52817
101890.108664
101889.684818
101889.509
101801.447184
101801.42309
101801.384753
101801.330082
101801.254028
101801.151708
101801.016853
101800.842167
101800.620671
101800.356161
101800.027498
101799.651987
101799.216512
101798.78081
101798.334199
101797.969129
101797.56959
101797.343704
101797.025247
101796.979897
101702.711434
101702.693098
101702.663563
101702.621962
101702.564028
101702.486544
101702.385056
101702.253338
101702.093856
101701.900122
101701.665773
101701.423852
101701.152214
101700.926367
101700.681532
101700.536989
101700.32273
101700.292362
101700.112505
101700.184627
101599.460394
101599.450473
101599.433844
101599.410666
101599.377685
101599.333694
101599.274234
101599.198046
101599.105752
101598.996283
101598.870688
101598.767299
101598.658388
101598.623321
101598.557576
101598.62365
101598.581185
101598.751558
101598.705416
101598.906219
101491.806001
101491.802661
101491.796038
101491.786658
101491.771854
101491.752163
101491.721896
101491.685782
101491.634855
101491.581658
101491.534344
101491.536701
101491.537965
101491.640063
101491.667004
101491.877872
101491.881691
101492.178455
101492.094112
101492.297166
101379.992621
101379.981678
101379.963569
101379.938783
101379.903023
101379.857448
101379.794487
101379.720339
101379.61751
101379.502981
101379.36265
101379.279094
101379.139884
101379.193537
101379.023813
101379.237394
101378.94999
101379.342706
101378.814641
101379.489088
102753.552113
102753.591554
102742.128966
102742.062338
102733.495436
102733.642685
102721.453623
102721.600906
102711.764344
102711.975664
102700.234975
102700.334037
102693.357608
102693.368591
102683.717684
102683.726923
102674.41095
102674.622883
102663.069351
102663.073528
102653.57393
102653.507124
102637.235927
102637.233299
102620.379413
102620.368233
102597.724944
102597.697919
102572.765219
102572.743161
102543.654844
102543.655515
102510.770837
102510.757852
102473.643107
102473.633443
102431.675807
102431.663981
102384.459664
102384.448788
102331.920995
102331.912444
102273.738083
102273.729619
102209.328845
102209.319772
102138.2805
102138.273081
102060.7968
102060.783374
101977.446737
101977.44125
101889.395592
101889.391063
101796.866935
101796.870004
101700.109
101700.113593
101598.875377
101598.881293
101492.148473
101492.178093
101378.928412
101379.154908
)
;

boundaryField
{
    inletfuel
    {
        type            zeroGradient;
    }
    inletair
    {
        type            zeroGradient;
    }
    outlet
    {
        type            fixedValue;
        value           uniform 101325;
    }
    axis
    {
        type            empty;
    }
    leftside
    {
        type            zeroGradient;
    }
    burnerwall
    {
        type            zeroGradient;
    }
    front
    {
        type            wedge;
    }
    back
    {
        type            wedge;
    }
    procBoundary1to0
    {
        type            processor;
        value           nonuniform List<scalar> 
27
(
102743.869084
102743.851354
102743.845933
102743.83808
102746.678906
102748.615669
102750.13784
102753.96742
102756.876944
102759.819002
102762.067101
102743.810268
102743.740313
102743.676852
102743.62641
102743.625836
102743.438258
102743.20224
102743.111057
102743.254248
102743.197905
102743.5999
102742.963371
102744.511231
102744.511231
102762.610943
102762.682474
)
;
    }
}


// ************************************************************************* //
