/*--------------------------------*- C++ -*----------------------------------*\
  =========                 |
  \\      /  F ield         | OpenFOAM: The Open Source CFD Toolbox
   \\    /   O peration     | Website:  https://openfoam.org
    \\  /    A nd           | Version:  7
     \\/     M anipulation  |
\*---------------------------------------------------------------------------*/
FoamFile
{
    version     2.0;
    format      ascii;
    class       volScalarField;
    location    "0.07";
    object      PaSR<psiReactionThermo>:kappa;
}
// * * * * * * * * * * * * * * * * * * * * * * * * * * * * * * * * * * * * * //

dimensions      [0 0 0 0 0 0 0];

internalField   nonuniform List<scalar> 
815
(
1.34278542829e-12
1.34344359154e-12
1.34527092557e-12
1.25028544821e-12
1.25556535943e-12
1.26548158567e-12
1.28910839973e-12
1.29573246144e-12
1.30844025036e-12
1.31821728095e-12
1.32429137675e-12
1.33537711782e-12
1.29550238193e-12
1.29958378513e-12
1.307284809e-12
1.22011771516e-12
1.22335072929e-12
1.22919665758e-12
1.14067710072e-12
1.14220876846e-12
1.14560813671e-12
1.07909861529e-12
1.07982131052e-12
1.08161885678e-12
9.70236666922e-13
9.70068645595e-13
9.70846087565e-13
7.83125073762e-13
7.8307173036e-13
7.83824673408e-13
5.551111611e-13
5.54963304473e-13
5.5542822783e-13
3.70857992535e-13
3.70862244782e-13
3.71249266995e-13
2.76107528743e-13
2.76166941651e-13
2.76512091743e-13
2.33905696818e-13
2.33998784037e-13
2.34352327881e-13
2.12964384002e-13
2.13077782115e-13
2.13438944041e-13
2.00460658108e-13
2.00565471673e-13
2.00915370841e-13
1.91848765893e-13
1.91963798836e-13
1.92327604285e-13
1.85430901619e-13
1.85547725744e-13
1.85916997634e-13
1.80351095299e-13
1.80469831746e-13
1.8084793632e-13
1.76144182684e-13
1.76263420249e-13
1.76648191182e-13
1.7249829319e-13
1.72615156765e-13
1.73003038712e-13
1.69218439809e-13
1.69320457766e-13
1.69692362139e-13
1.66092376145e-13
1.66185071019e-13
1.66544647191e-13
1.63049871572e-13
1.63119922453e-13
1.63445205814e-13
1.59954046548e-13
1.6000758556e-13
1.60302311054e-13
1.56877706805e-13
1.56905296691e-13
1.57151669944e-13
1.54349711939e-13
1.54347214724e-13
1.54528877977e-13
1.56210083937e-13
1.56184448997e-13
1.56277062948e-13
1.8932938012e-13
1.8939868936e-13
1.89340025232e-13
4.11914322965e-13
4.12703774709e-13
4.1237547363e-13
1.00081768656e-12
1.00158904097e-12
1.00141814168e-12
1.34740663858e-12
1.27804061865e-12
1.32398462714e-12
1.34867440231e-12
1.31630816028e-12
1.23615522228e-12
1.15003358894e-12
1.08432417701e-12
9.72396498987e-13
7.85031074097e-13
5.56096086442e-13
3.71918199265e-13
2.77205000399e-13
2.35037466903e-13
2.14119760931e-13
2.01590607411e-13
1.93023259108e-13
1.86631876103e-13
1.81586899793e-13
1.77409063357e-13
1.73781654641e-13
1.70470748697e-13
1.67317713447e-13
1.64191028743e-13
1.6101194203e-13
1.57802760719e-13
1.55095623216e-13
1.56704595938e-13
1.89390294716e-13
4.11338837371e-13
1.0006729261e-12
6.62856113454e-13
5.00924853771e-13
2.9562581614e-13
1.61820584154e-13
1.16537454156e-13
1.09786206727e-13
1.40001449234e-13
1.35245627089e-12
1.36037631253e-12
1.3610381606e-12
1.34190730355e-12
1.29289148883e-12
1.2095299057e-12
1.08796722013e-12
9.47612784353e-13
8.08078995491e-13
6.96511959812e-13
6.561069379e-13
6.5785213369e-13
6.38126310318e-13
5.49128410676e-13
3.98228333376e-13
2.48868245232e-13
1.69210676125e-13
1.4146453561e-13
1.32264992772e-13
1.47997714005e-13
1.30201688867e-12
1.33625109815e-12
1.35658638099e-12
1.34130844053e-12
1.2750708072e-12
1.14933218046e-12
9.74333354043e-13
7.94916296837e-13
6.59648086101e-13
5.91620661581e-13
5.73839774644e-13
5.7068551863e-13
5.35378325802e-13
4.43793304225e-13
3.29426578196e-13
2.41980580104e-13
1.98572148969e-13
1.78214788106e-13
1.62068292671e-13
1.6035205012e-13
1.35197100018e-12
1.38593943331e-12
1.39408304772e-12
1.35554597015e-12
1.25618759314e-12
1.09145031972e-12
8.86632820254e-13
7.09337992959e-13
6.01432237341e-13
5.47317298437e-13
5.21296941876e-13
5.00159686258e-13
4.59360847398e-13
3.87984888065e-13
3.18983034505e-13
2.70309229407e-13
2.41113993154e-13
2.20361034216e-13
1.98380167684e-13
1.79020929265e-13
1.37147995348e-12
1.39368204854e-12
1.3846736304e-12
1.32527707946e-12
1.20708085008e-12
1.03949269775e-12
8.57494031392e-13
7.08984770161e-13
6.12844488299e-13
5.54835533509e-13
5.16383560866e-13
4.82635139095e-13
4.41172882222e-13
3.92245700455e-13
3.47365851561e-13
3.11218675308e-13
2.82842903204e-13
2.59820101156e-13
2.36338652387e-13
2.05046722449e-13
1.33170705365e-12
1.34304372215e-12
1.3242274655e-12
1.26146338997e-12
1.15451508225e-12
1.01778190337e-12
8.76472556519e-13
7.57086060767e-13
6.69463523672e-13
6.05241814088e-13
5.52977150823e-13
5.06623514804e-13
4.62625406481e-13
4.18692544147e-13
3.76912498816e-13
3.4086254787e-13
3.1140037499e-13
2.88440765896e-13
2.67878400182e-13
2.33615731468e-13
1.24866430401e-12
1.25959583495e-12
1.24750605999e-12
1.20176932503e-12
1.12319684597e-12
1.02235529138e-12
9.13887940713e-13
8.12987236785e-13
7.26243375997e-13
6.52161606524e-13
5.87518356555e-13
5.30557082225e-13
4.78167790501e-13
4.29147653491e-13
3.84373314899e-13
3.47131675964e-13
3.18838889958e-13
3.01140730911e-13
2.8821818308e-13
2.58189955123e-13
1.1591848906e-12
1.17219784165e-12
1.1738670426e-12
1.15416844005e-12
1.10527004036e-12
1.02988052839e-12
9.37191979057e-13
8.39539372124e-13
7.47872648794e-13
6.65064690013e-13
5.89904097144e-13
5.21597048188e-13
4.60108621008e-13
4.0593079484e-13
3.60698942318e-13
3.2710437577e-13
3.06958326434e-13
3.00384418726e-13
2.97764660791e-13
2.77729566064e-13
1.08974535685e-12
1.09714258325e-12
1.09480010524e-12
1.07548797261e-12
1.03346215868e-12
9.67595475636e-13
8.8332597091e-13
7.91784313515e-13
7.02162499569e-13
6.17139282216e-13
5.37697750802e-13
4.65655421765e-13
4.03150929767e-13
3.51899416309e-13
3.13879266543e-13
2.90797336275e-13
2.83610288291e-13
2.91527108852e-13
3.01399438136e-13
3.02260907765e-13
9.75357188737e-13
9.77025339416e-13
9.68401326646e-13
9.4326733554e-13
8.97431043675e-13
8.318007438e-13
7.53104695409e-13
6.69380737403e-13
5.86802301787e-13
5.07634857711e-13
4.34746722873e-13
3.72698041753e-13
3.24159100258e-13
2.89289227376e-13
2.6773645899e-13
2.59195960352e-13
2.64050305349e-13
2.8222053052e-13
3.04028802448e-13
3.42952241198e-13
7.85987472911e-13
7.80768023502e-13
7.63908504889e-13
7.32268972332e-13
6.85490915881e-13
6.27949514717e-13
5.65681832753e-13
5.02295451375e-13
4.40571681615e-13
3.82915160655e-13
3.32991146368e-13
2.93788854327e-13
2.65940614888e-13
2.48670281663e-13
2.41153661762e-13
2.43103675099e-13
2.55273040061e-13
2.78199113326e-13
3.10009374911e-13
3.80342019112e-13
5.56011026653e-13
5.50106831112e-13
5.35989510066e-13
5.13044350705e-13
4.82252132369e-13
4.46865134388e-13
4.08702753022e-13
3.68681691502e-13
3.29140474891e-13
2.93660852891e-13
2.65258575803e-13
2.45051735788e-13
2.32682638575e-13
2.27293357542e-13
2.28343633028e-13
2.35995041836e-13
2.5128137937e-13
2.76069055307e-13
3.14694242233e-13
3.9950847112e-13
3.72628937452e-13
3.71409099634e-13
3.66601315843e-13
3.5755152566e-13
3.44109767999e-13
3.26730072239e-13
3.06215760564e-13
2.8391103053e-13
2.6223910057e-13
2.43688288489e-13
2.29751056468e-13
2.20809324569e-13
2.16674777131e-13
2.17064237627e-13
2.21962041475e-13
2.31845325698e-13
2.4785840619e-13
2.72520262294e-13
3.128181738e-13
3.99807272518e-13
2.78516333432e-13
2.80004959582e-13
2.79896859279e-13
2.77190547943e-13
2.71359196349e-13
2.62516339689e-13
2.51414830548e-13
2.39299645254e-13
2.27748446703e-13
2.18188066594e-13
2.11481266911e-13
2.07978365754e-13
2.07770368081e-13
2.10874846412e-13
2.17451847461e-13
2.28002173355e-13
2.43661951741e-13
2.67117684674e-13
3.06165577429e-13
3.91614773942e-13
2.36507453131e-13
2.38720465943e-13
2.39998953293e-13
2.39342035906e-13
2.36230691599e-13
2.30804287859e-13
2.23801825541e-13
2.16290090466e-13
2.09357274303e-13
2.03907875075e-13
2.00541838218e-13
1.99626132006e-13
2.01384520168e-13
2.05943679088e-13
2.13462625163e-13
2.24319545396e-13
2.39457377059e-13
2.61321808105e-13
2.97631968844e-13
3.79760893884e-13
2.15636985677e-13
2.1808864337e-13
2.1988472909e-13
2.20046299831e-13
2.18036852366e-13
2.13973538418e-13
2.0857702853e-13
2.02877152015e-13
1.97838500532e-13
1.94171896593e-13
1.92374365711e-13
1.928387698e-13
1.95881613708e-13
2.01664918325e-13
2.10240197667e-13
2.2173594934e-13
2.36723464984e-13
2.57201215142e-13
2.90358589171e-13
3.69008773024e-13
2.03153729594e-13
2.05791762651e-13
2.07936298656e-13
2.0860073917e-13
2.07183309108e-13
2.03713835447e-13
1.98861966138e-13
1.93689410593e-13
1.89228763872e-13
1.86205805515e-13
1.85133947485e-13
1.86510872666e-13
1.90774746987e-13
1.98072507804e-13
2.08226699379e-13
2.20952817584e-13
2.36302447265e-13
2.55653645479e-13
2.85381582508e-13
3.60797558696e-13
1.94648877442e-13
1.97463883781e-13
1.99907320015e-13
2.00963846202e-13
1.9994552263e-13
1.96761237788e-13
1.9198970759e-13
1.86719045546e-13
1.82123118955e-13
1.79092601042e-13
1.78298971076e-13
1.80461626611e-13
1.86200062435e-13
1.9556061694e-13
2.07918944288e-13
2.22379273904e-13
2.38389033164e-13
2.56694805968e-13
2.83117957998e-13
3.55575261777e-13
1.88316813556e-13
1.91295060588e-13
1.93994164197e-13
1.95370619376e-13
1.94656697678e-13
1.91636777118e-13
1.86764107189e-13
1.81098037094e-13
1.75953067851e-13
1.72477154776e-13
1.71665222933e-13
1.74647111747e-13
1.82293841934e-13
1.94350553769e-13
2.09422422445e-13
2.25826862186e-13
2.42456306128e-13
2.59611088478e-13
2.82937997809e-13
3.53099307634e-13
1.83332085034e-13
1.86452554308e-13
1.89358464828e-13
1.90985627721e-13
1.9050332181e-13
1.8758779588e-13
1.82559414228e-13
1.76395439321e-13
1.70489478772e-13
1.66277971394e-13
1.65262588515e-13
1.69255499562e-13
1.79406122454e-13
1.94750761674e-13
2.12745684473e-13
2.30910245206e-13
2.47819962174e-13
2.63658770525e-13
2.84289726757e-13
3.53009613393e-13
1.79204058492e-13
1.82431095899e-13
1.85482854464e-13
1.8728088915e-13
1.86953704228e-13
1.84096152682e-13
1.78906915804e-13
1.72248710821e-13
1.65524769911e-13
1.60437790557e-13
1.59187537286e-13
1.64603987809e-13
1.77952200117e-13
1.96927344243e-13
2.17626355903e-13
2.37041332816e-13
2.5377639919e-13
2.68203083393e-13
2.86596691946e-13
3.54620241788e-13
1.75610341836e-13
1.78896962959e-13
1.82019055806e-13
1.83895011672e-13
1.83633671763e-13
1.80777612451e-13
1.75428834464e-13
1.68328329734e-13
1.60841219839e-13
1.54918802059e-13
1.53676919393e-13
1.61247328953e-13
1.78435595291e-13
2.00948506198e-13
2.23739998968e-13
2.43733477897e-13
2.59860580263e-13
2.72858394289e-13
2.89489839925e-13
3.57484658218e-13
1.72306316623e-13
1.75598849643e-13
1.78707784933e-13
1.80557574367e-13
1.80258988266e-13
1.77329315736e-13
1.71805398873e-13
1.64331466154e-13
1.56221447761e-13
1.49717251598e-13
1.49147641419e-13
1.59920364036e-13
1.81266761267e-13
2.067070877e-13
2.30705721191e-13
2.50592269219e-13
2.65799572605e-13
2.77449930004e-13
2.92784561217e-13
3.6129170435e-13
1.69129373554e-13
1.72354764272e-13
1.75356566884e-13
1.77070366328e-13
1.76623610454e-13
1.73536170588e-13
1.67813924788e-13
1.600378774e-13
1.51511847821e-13
1.4495858244e-13
1.46311497459e-13
1.61440712631e-13
1.86645197565e-13
2.1395132372e-13
2.38181050022e-13
2.57401827591e-13
2.71522149722e-13
2.82004577755e-13
2.96467579374e-13
3.65885698269e-13
1.65940901947e-13
1.69027597909e-13
1.71827536731e-13
1.73296937109e-13
1.72596406506e-13
1.69270439715e-13
1.63324998473e-13
1.55323554552e-13
1.46689203515e-13
1.4106374276e-13
1.46206147998e-13
1.66367282002e-13
1.94394168051e-13
2.22303780024e-13
2.45913325634e-13
2.64074930005e-13
2.77107453469e-13
2.8668670701e-13
3.00690967544e-13
3.7135272249e-13
1.62664155519e-13
1.65531227669e-13
1.68035854262e-13
1.69163228228e-13
1.68118363833e-13
1.64487674257e-13
1.58306208696e-13
1.50194104059e-13
1.41988238684e-13
1.38964064798e-13
1.49892966134e-13
1.74638348157e-13
2.04010914264e-13
2.31344618442e-13
2.53723239332e-13
2.70679322212e-13
2.82801413947e-13
2.91843793938e-13
3.05815698555e-13
3.77919023202e-13
1.59313305961e-13
1.6188442985e-13
1.64005846992e-13
1.64704974069e-13
1.63242719102e-13
1.5926133378e-13
1.52861199585e-13
1.44872152935e-13
1.38125993002e-13
1.40102845609e-13
1.57747774436e-13
1.85514356093e-13
2.14774340815e-13
2.40711500781e-13
2.6162191819e-13
2.77501879222e-13
2.89076527045e-13
2.98116730453e-13
3.12672452073e-13
3.86717996077e-13
1.56413835914e-13
1.58591776801e-13
1.60222407339e-13
1.60393832733e-13
1.58437331198e-13
1.54069653016e-13
1.4752264821e-13
1.40158399138e-13
1.36662694197e-13
1.45835988267e-13
1.69112642098e-13
1.98024622952e-13
2.26155842798e-13
2.50414267109e-13
2.70002568201e-13
2.8521939042e-13
2.96898869357e-13
3.0683597665e-13
3.23056553575e-13
3.99887300923e-13
1.57704500177e-13
1.59225964251e-13
1.6006949231e-13
1.59436930543e-13
1.56770570713e-13
1.51899990598e-13
1.45303570389e-13
1.39361330268e-13
1.4100522567e-13
1.57230450394e-13
1.83538992741e-13
2.12120198964e-13
2.38692571693e-13
2.6146916366e-13
2.80310703284e-13
2.95723941811e-13
3.08728627966e-13
3.21322484326e-13
3.41683495545e-13
4.24064507615e-13
1.89484461561e-13
1.89148525537e-13
1.87873853228e-13
1.85216516574e-13
1.8089563619e-13
1.74882139512e-13
1.67668163074e-13
1.61910017153e-13
1.64910733323e-13
1.8140659004e-13
2.06054096715e-13
2.3243857448e-13
2.57144873447e-13
2.7902470981e-13
2.98283064642e-13
3.15629465602e-13
3.32575335434e-13
3.51921334157e-13
3.83042086539e-13
4.80204106464e-13
4.08864484252e-13
4.03556369027e-13
3.96949696673e-13
3.89737148058e-13
3.82383618566e-13
3.74466868768e-13
3.6295900964e-13
3.39862435108e-13
3.03589440107e-13
2.79011440772e-13
2.78581076467e-13
2.91833907119e-13
3.10168271613e-13
3.30087011202e-13
3.51032959781e-13
3.73753862565e-13
4.00923858061e-13
4.37710222296e-13
4.97581336978e-13
6.30896039793e-13
9.98851194366e-13
9.95359113849e-13
9.91532599342e-13
9.88215210998e-13
9.85892491784e-13
9.83766673948e-13
9.77200096431e-13
9.502927065e-13
8.71698594191e-13
7.46109318588e-13
6.41481599406e-13
5.84357463665e-13
5.62086917111e-13
5.61625223118e-13
5.76872324926e-13
6.062394812e-13
6.52731406487e-13
7.22458369856e-13
8.26915164703e-13
9.75003028193e-13
2.60052204986e-13
3.36581221547e-13
2.60602135568e-13
3.37082143621e-13
2.60651171232e-13
3.38283479571e-13
2.6240396202e-13
3.40441009694e-13
2.69078795102e-13
3.43913085455e-13
2.83092285196e-13
3.4886393065e-13
3.0890045098e-13
3.55606091337e-13
3.70366283905e-13
3.64127320323e-13
5.20508415422e-13
3.78209421171e-13
8.25664288629e-13
1.56972712694e-12
9.54949903029e-13
1.78890762334e-12
1.02482902612e-12
1.9936332199e-12
1.05415784164e-12
2.18940160835e-12
1.07209431876e-12
2.37132790983e-12
1.08625883013e-12
2.54077782396e-12
1.10568471792e-12
2.69878367225e-12
1.12836423799e-12
2.85099281392e-12
1.15306450199e-12
2.99913542621e-12
1.1792167117e-12
3.14335598621e-12
1.2064298981e-12
3.28368097793e-12
1.23381978017e-12
3.41927338648e-12
1.26078513976e-12
3.54862153222e-12
1.287059925e-12
3.66986898733e-12
1.3130240974e-12
3.78103068886e-12
1.3382940754e-12
3.87937493167e-12
1.36472858229e-12
3.96199118451e-12
1.39137030069e-12
4.02585318469e-12
1.42017064411e-12
4.06863747269e-12
1.4556510175e-12
4.08943191316e-12
1.49675057739e-12
4.09115429916e-12
1.52564107124e-12
4.07533049224e-12
1.50279254805e-12
3.99900536394e-12
)
;

boundaryField
{
    inletfuel
    {
        type            calculated;
        value           nonuniform 0();
    }
    inletair
    {
        type            calculated;
        value           nonuniform 0();
    }
    outlet
    {
        type            calculated;
        value           uniform 0;
    }
    axis
    {
        type            empty;
    }
    leftside
    {
        type            calculated;
        value           uniform 0;
    }
    burnerwall
    {
        type            calculated;
        value           nonuniform 0();
    }
    front
    {
        type            wedge;
    }
    back
    {
        type            wedge;
    }
    procBoundary1to0
    {
        type            processor;
        value           uniform 0;
    }
}


// ************************************************************************* //
