/*--------------------------------*- C++ -*----------------------------------*\
  =========                 |
  \\      /  F ield         | OpenFOAM: The Open Source CFD Toolbox
   \\    /   O peration     | Website:  https://openfoam.org
    \\  /    A nd           | Version:  7
     \\/     M anipulation  |
\*---------------------------------------------------------------------------*/
FoamFile
{
    version     2.0;
    format      ascii;
    class       surfaceScalarField;
    location    "0.07";
    object      phi;
}
// * * * * * * * * * * * * * * * * * * * * * * * * * * * * * * * * * * * * * //

dimensions      [1 0 -1 0 0 0 0];

internalField   nonuniform List<scalar> 
1572
(
5.41188472346e-10
-2.83653368317e-08
2.78371617754e-09
-8.49490178069e-08
-1.413360371e-07
6.65635005281e-09
-2.56317165507e-09
-2.7551974004e-08
-1.01482813838e-08
-8.2677294249e-08
-1.38028742417e-07
-2.25403859912e-08
-5.00940771207e-09
-2.5101201169e-08
-1.96726068009e-08
-7.57940870478e-08
-1.26372746863e-07
-4.46763583085e-08
-6.11330501653e-09
-2.21684028947e-08
-2.46001938739e-08
-6.68551690619e-08
-1.11165548461e-07
-5.57478201262e-08
-5.71160423015e-09
-2.00790119257e-08
-2.26470957294e-08
-6.07171960444e-08
-1.00701263065e-07
-5.09108779892e-08
-3.73132592682e-09
-2.09468131636e-08
-1.62905476461e-08
-6.18399617981e-08
-1.02086654775e-07
-3.73717821294e-08
-1.00164490582e-09
-2.68587063167e-08
-3.58199125507e-09
-7.98039143166e-08
-1.32233704259e-07
-7.31901913288e-09
-1.08536701229e-09
-3.61356238899e-08
-3.04124700714e-09
-1.08828823638e-07
-1.81336836266e-07
-5.29593855052e-09
-1.20391229929e-09
-4.77899501123e-08
-4.2718592855e-09
-1.4420617957e-07
-2.40260592833e-07
-9.17257807811e-09
-4.45505848283e-09
-5.56343966474e-08
-1.81172436872e-08
-1.6731755241e-07
-2.78630595376e-07
-4.07855638442e-08
-7.34287257764e-09
-5.79646749928e-08
-2.911900987e-08
-1.74460421171e-07
-2.90500481251e-07
-6.53033753855e-08
-7.60866579662e-09
-5.78051658164e-08
-3.0627680462e-08
-1.73727564423e-07
-2.89269790817e-07
-6.89169095354e-08
-7.37951012956e-09
-5.68802307001e-08
-2.93473862773e-08
-1.71088641125e-07
-2.85054012918e-07
-6.57294239446e-08
-6.04868840144e-09
-5.70718142895e-08
-2.44195178531e-08
-1.71415381012e-07
-2.85668189119e-07
-5.49471196438e-08
-5.27272384142e-09
-5.81454452011e-08
-2.1334331256e-08
-1.74377032815e-07
-2.90675427757e-07
-4.80203325691e-08
-4.57646306569e-09
-6.01523567198e-08
-1.84788133717e-08
-1.80209596584e-07
-3.00289251492e-07
-4.17500008233e-08
-3.6586250065e-09
-6.33807856124e-08
-1.4957612154e-08
-1.89560285187e-07
-3.15680738321e-07
-3.39784875079e-08
-3.48567335889e-09
-6.71109810296e-08
-1.41322090632e-08
-2.00551331343e-07
-3.33919803295e-07
-3.19536005228e-08
-3.40024151061e-09
-7.12592040433e-08
-1.37298693034e-08
-2.1285737413e-07
-3.54412516642e-07
-3.09630079139e-08
-3.30393215655e-09
-7.58177022544e-08
-1.35687360914e-08
-2.26168847837e-07
-3.76551908496e-07
-3.07253413864e-08
-4.07898115185e-09
-7.9886674933e-08
-1.58744044428e-08
-2.38806528846e-07
-3.97812603131e-07
-3.53475820409e-08
-4.45528026006e-09
-8.38240338437e-08
-1.74277896553e-08
-2.51004263092e-07
-4.18321450681e-07
-3.88790381948e-08
-4.91921296232e-09
-8.74558555463e-08
-1.94296553237e-08
-2.62138661512e-07
-4.37107103336e-07
-4.34116636672e-08
-5.7540993977e-09
-9.02533737728e-08
-2.25067033309e-08
-2.71040577361e-07
-4.52255118262e-07
-5.01305821045e-08
-5.9503418541e-09
-9.27058233676e-08
-2.36281346108e-08
-2.78572158922e-07
-4.64690450363e-07
-5.32312554225e-08
-6.79410951851e-09
-9.39974704195e-08
-2.69421544783e-08
-2.82683088825e-07
-4.71634697132e-07
-6.04526894899e-08
-7.33646825441e-09
-9.4193766941e-08
-2.91065316359e-08
-2.83512811465e-07
-4.73248301414e-07
-6.51842466104e-08
-7.35023203838e-09
-9.35183053459e-08
-2.92063288718e-08
-2.81680901247e-07
-4.70330840468e-07
-6.55252725911e-08
-6.52414147859e-09
-9.24095623334e-08
-2.59081481441e-08
-2.78540099745e-07
-4.64993705767e-07
-5.83671683836e-08
-4.45873822758e-09
-9.16449643369e-08
-1.79607596836e-08
-2.76129671802e-07
-4.6069493921e-07
-4.07395334171e-08
-1.28536926589e-09
-5.62607812918e-09
-1.32520242555e-08
-1.70272545247e-07
1.1797070481e-08
-1.65430507162e-07
-3.86408524246e-08
-1.51557889291e-07
-7.51036748787e-08
-1.32830258659e-07
-9.36135630843e-08
-1.2029685346e-07
-8.44308830077e-08
-1.2161169715e-07
-6.2434162416e-08
-1.57702366261e-07
-1.12763039845e-08
-2.16751679812e-07
-7.36333512258e-09
-2.87570526804e-07
-1.44919937599e-08
-3.33035605361e-07
-6.8143633604e-08
-3.47231573308e-07
-1.08482778955e-07
-3.45660868355e-07
-1.14801817671e-07
-3.41060218341e-07
-1.08842741308e-07
-3.4206200393e-07
-9.12610013676e-08
-3.48361623227e-07
-7.97128748136e-08
-3.60360425731e-07
-6.91727589402e-08
-3.78112567789e-07
-5.7482408229e-08
-3.99683522026e-07
-5.36165533964e-08
-4.23996822238e-07
-5.18830890562e-08
-4.49919767623e-07
-5.19213051171e-08
-4.75933101316e-07
-5.8183844453e-08
-5.00943062981e-07
-6.41945398918e-08
-5.23514479782e-07
-7.21454062344e-08
-5.42231235947e-07
-8.27295196564e-08
-5.56580613985e-07
-8.93188999808e-08
-5.64861332652e-07
-1.00708711798e-07
-5.66921724496e-07
-1.08344567805e-07
-5.63503469906e-07
-1.09018134793e-07
-5.57010348433e-07
-9.74145169232e-08
-5.51643544711e-07
-6.827814613e-08
-2.25930176048e-08
-5.15603430801e-06
8.28184168975e-06
-9.10706126668e-07
2.13694940366e-05
2.6042413376e-06
3.00148465955e-05
4.69594038197e-06
3.39480075736e-05
5.02764587336e-06
3.70494698296e-05
4.06946246164e-06
3.88296987745e-05
3.8457270552e-05
1.69647166679e-06
4.01146962516e-08
-6.3832782907e-07
8.34764251224e-08
-1.02182556253e-06
1.4340060914e-07
-1.50500496666e-06
2.2249557261e-07
-2.10554789774e-06
2.31109291733e-07
-2.83910343992e-06
1.09619456636e-07
-3.71099038524e-06
-1.92866743371e-07
-4.69422198517e-06
-7.74924773828e-07
-5.71165649054e-06
-1.7820601672e-06
-6.61205388077e-06
-3.36194671427e-06
-7.2881774131e-06
-5.83600072689e-06
-7.48758655923e-06
-9.80245152238e-06
-6.36360799875e-06
-1.49372399376e-05
-2.07085746598e-06
-1.5022082545e-05
5.76050237642e-06
-9.75054735265e-06
1.37469498595e-05
-4.38413067906e-06
1.95814438727e-05
-7.95977402298e-07
2.31119492912e-05
1.66908360592e-06
2.60091296688e-05
2.29084434175e-06
2.86953080025e-05
2.91081866014e-05
1.38528244269e-06
-9.75002040833e-08
-6.244569725e-07
-2.02400128873e-07
-1.00599287869e-06
-3.88963997902e-07
-1.49218715155e-06
-6.91727583701e-07
-2.10243074244e-06
-1.15846106811e-06
-2.8506740184e-06
-1.86539180323e-06
-3.7178228597e-06
-2.908768707e-06
-4.63885825856e-06
-4.34908164792e-06
-5.53633414386e-06
-6.18087613086e-06
-6.31218207773e-06
-8.44709334035e-06
-6.89668129163e-06
-1.13993734696e-05
-6.99215156763e-06
-1.51966967545e-05
-5.88966880038e-06
-1.77535763473e-05
-3.47334783071e-06
-1.66025893728e-05
9.59764339588e-07
-1.23002081825e-05
5.30779594219e-06
-6.92827320017e-06
8.41178347242e-06
-1.91816938629e-06
1.08652039396e-05
1.42716931568e-06
1.42504339305e-05
2.94432964035e-06
1.76777890216e-05
2.00590853746e-05
1.77677278194e-06
-1.92614448601e-07
-5.72787288679e-07
-3.93368087943e-07
-9.21996917001e-07
-7.11875603979e-07
-1.36358408206e-06
-1.1964945874e-06
-1.90823958223e-06
-1.91211670744e-06
-2.55608647852e-06
-2.92292636479e-06
-3.28137655284e-06
-4.25816894227e-06
-4.03326789453e-06
-5.91409897961e-06
-4.76042644852e-06
-7.86927979076e-06
-5.40314555223e-06
-1.022355757e-05
-5.81623079878e-06
-1.26780535307e-05
-6.10307661643e-06
-1.43179195632e-05
-6.0744591417e-06
-1.42113419938e-05
-5.50013660366e-06
-1.13854331832e-05
-3.781414688e-06
-7.02221459512e-06
-2.00347721154e-06
-3.01136417052e-06
-1.89192139029e-07
8.66003921379e-07
1.28481439273e-06
3.73962795376e-06
4.34469024106e-06
4.99846147534e-06
8.09362534574e-06
1.29142301457e-05
2.68600710574e-06
-2.39143560957e-07
-4.99017098735e-07
-4.83219040937e-07
-7.94392556902e-07
-8.62839658515e-07
-1.15648127084e-06
-1.42668031223e-06
-1.58414053654e-06
-2.24620884667e-06
-2.05445715106e-06
-3.37100307835e-06
-2.55545046415e-06
-4.729595059e-06
-3.13991000593e-06
-6.21783650062e-06
-3.78073729041e-06
-7.68263206134e-06
-4.46911718456e-06
-8.80603578559e-06
-5.21339012983e-06
-9.29567194103e-06
-6.09092843508e-06
-9.20011183194e-06
-6.62693677962e-06
-8.19868412158e-06
-6.87271168792e-06
-5.48292867933e-06
-6.77226321205e-06
-1.17461320352e-06
-6.71553785909e-06
4.10334165005e-06
-6.38414653059e-06
8.74918569914e-06
-5.33732940691e-06
1.14035923273e-05
-2.12524638297e-06
1.11001981111e-05
2.81785531088e-06
1.16841800959e-05
4.93181208033e-06
-2.09632083075e-07
-4.49686927341e-07
-4.12063164787e-07
-7.0707818219e-07
-7.11458091105e-07
-1.01294375554e-06
-1.12396353687e-06
-1.364219211e-06
-1.66378731553e-06
-1.73309196797e-06
-2.27035497148e-06
-2.17607122339e-06
-2.90068565772e-06
-2.73323980487e-06
-3.47393135507e-06
-3.41845653446e-06
-3.76921134859e-06
-4.35209979259e-06
-3.79986185674e-06
-5.34368745135e-06
-3.66669639526e-06
-6.37800942271e-06
-3.01880454232e-06
-7.40328858331e-06
-1.57371377967e-06
-8.40084664102e-06
8.20083041789e-07
-9.26580402002e-06
3.85207584804e-06
-1.00067054043e-05
7.32121703532e-06
-1.03501691604e-05
1.08082192703e-05
-9.69929174339e-06
1.4125191137e-05
-7.01298599831e-06
1.33762239667e-05
1.26695210431e-07
1.34253467521e-05
6.04768519175e-06
-1.62479312863e-07
-4.44053614375e-07
-3.15818071733e-07
-6.95210122706e-07
-5.20676116746e-07
-9.95876344205e-07
-7.58424726419e-07
-1.35282240999e-06
-9.53582322651e-07
-1.78985039474e-06
-1.06167955505e-06
-2.33766153491e-06
-1.03897187259e-06
-3.04390414216e-06
-8.25249339061e-07
-3.95757210552e-06
-5.06777551221e-07
-5.06596541432e-06
-6.16380012329e-08
-6.28150078375e-06
5.59517627369e-07
-7.63346537509e-06
1.4947417254e-06
-9.10614318468e-06
2.818195205e-06
-1.06249039051e-05
4.64555618726e-06
-1.21375898288e-05
6.89955432794e-06
-1.34671043586e-05
9.6356994585e-06
-1.44397363504e-05
1.26200125598e-05
-1.41373052906e-05
1.50497207375e-05
-1.10760033639e-05
1.46735972167e-05
-1.70362289523e-06
1.78863267341e-05
6.19203904579e-06
-1.86279709156e-08
-5.81213879372e-07
-2.63335534852e-08
-9.09237506453e-07
-2.66420777535e-08
-1.30406825176e-06
-7.78263417241e-09
-1.7746805751e-06
5.06845128169e-08
-2.35050171427e-06
1.76249553702e-07
-3.07127201427e-06
3.83450254812e-07
-3.97822539323e-06
6.54099766716e-07
-5.09630458894e-06
9.66307007578e-07
-6.42013169916e-06
1.36729947221e-06
-7.93297992313e-06
1.83496421818e-06
-9.58387714894e-06
2.36287665544e-06
-1.13667117118e-05
2.96207084852e-06
-1.32198989128e-05
3.66261331661e-06
-1.511233672e-05
4.53011406673e-06
-1.68953857378e-05
5.58802712217e-06
-1.83243301003e-05
6.88495148132e-06
-1.8460067847e-05
8.71431316616e-06
-1.60879497072e-05
8.86789734364e-06
-5.24125978844e-06
1.87988127273e-05
3.01456319111e-06
-3.08003797085e-09
-8.10068598023e-07
1.52415931725e-08
-1.27783417646e-06
5.59237504509e-08
-1.84053984365e-06
1.27081027361e-07
-2.50486309037e-06
2.4504108768e-07
-3.30873659841e-06
4.35176595612e-07
-4.30207831043e-06
7.34034953088e-07
-5.53747392448e-06
1.13641190657e-06
-6.98964477681e-06
1.58801076552e-06
-8.59942663706e-06
2.03048515384e-06
-1.03463491267e-05
2.33216216635e-06
-1.2100862042e-05
2.49142894501e-06
-1.40227456891e-05
2.66210617355e-06
-1.62201593292e-05
2.92941849642e-06
-1.85870597316e-05
3.38265868642e-06
-2.09992586858e-05
3.99519904282e-06
-2.30966686076e-05
4.60943765106e-06
-2.37513769744e-05
4.20764051845e-06
-2.07346613998e-05
3.1257559651e-06
-9.23957368321e-06
1.62060761474e-05
-7.21078611676e-07
-3.47824779982e-08
-1.07050196381e-06
-6.07552255416e-08
-1.69143112859e-06
-8.58623398984e-08
-2.43986899952e-06
-9.40815797954e-08
-3.32899017956e-06
-8.80885522405e-08
-4.37271320973e-06
-1.05797135325e-07
-5.57967320174e-06
-2.28606861402e-07
-6.95407237282e-06
-5.14961466085e-07
-8.48633336001e-06
-9.62033328899e-07
-1.01760509811e-05
-1.57357506665e-06
-1.19966475557e-05
-2.28680952817e-06
-1.38964931296e-05
-2.90518034819e-06
-1.62315067282e-05
-3.44380610788e-06
-1.89075699354e-05
-3.90771857069e-06
-2.18538873818e-05
-4.30613770121e-06
-2.49875787335e-05
-4.77611403724e-06
-2.7867757316e-05
-5.44896921995e-06
-2.94153291205e-05
-6.65865866013e-06
-2.71820889445e-05
-8.31113383044e-06
-1.63263507006e-05
4.5154320776e-06
-4.71101394103e-06
-1.72005706026e-07
-1.23499260148e-06
-3.37069411117e-07
-1.9447121956e-06
-5.74493550232e-07
-2.79289517971e-06
-8.95749767364e-07
-3.78876757243e-06
-1.31253385191e-06
-4.94063535674e-06
-1.83180429625e-06
-6.25780650092e-06
-2.44901372883e-06
-7.75393950263e-06
-3.13381269078e-06
-9.44404101215e-06
-3.83992305704e-06
-1.13555023424e-05
-4.47685832614e-06
-1.35202364097e-05
-4.88944496068e-06
-1.59718028294e-05
-5.28592741702e-06
-1.87296187184e-05
-5.86086628435e-06
-2.17376656013e-05
-6.65854186885e-06
-2.51281874682e-05
-7.70686466606e-06
-2.88985062908e-05
-9.16165400391e-06
-3.25492015693e-05
-1.1243032808e-05
-3.50339563333e-05
-1.41296529858e-05
-3.39194508287e-05
-1.5029625225e-05
-2.63524482711e-05
-1.34149264793e-05
-6.55570882191e-06
-2.68838865589e-07
-1.28629049344e-06
-5.20226907757e-07
-2.02352682947e-06
-8.76929615909e-07
-2.90343830212e-06
-1.35073111085e-06
-3.93652556623e-06
-1.94888653217e-06
-5.13405326742e-06
-2.67499026471e-06
-6.51163088438e-06
-3.52836735849e-06
-8.09019745932e-06
-4.5022004321e-06
-9.89503567566e-06
-5.59312993421e-06
-1.19604743874e-05
-6.80196344456e-06
-1.43306101501e-05
-8.13522169395e-06
-1.70549267833e-05
-9.58864148117e-06
-2.01915791269e-05
-1.10824668854e-05
-2.37965430727e-05
-1.26948218294e-05
-2.78940068719e-05
-1.467264852e-05
-3.23780345283e-05
-1.72168563956e-05
-3.68790864633e-05
-2.02922454072e-05
-4.06959536478e-05
-2.30010748443e-05
-4.21738724604e-05
-2.16505385368e-05
-4.00531573683e-05
-3.80575656407e-05
-7.87489154641e-06
-2.83578666287e-07
-1.28154564414e-06
-5.46097043518e-07
-2.01952145512e-06
-9.16014358637e-07
-2.90508703534e-06
-1.40452530936e-06
-3.95285335524e-06
-2.01945974005e-06
-5.17922392845e-06
-2.76628458303e-06
-6.60514241354e-06
-3.64848594139e-06
-8.25869757677e-06
-4.66710261475e-06
-1.01753278289e-05
-5.82524096874e-06
-1.23997089767e-05
-7.13448846647e-06
-1.49847404339e-05
-8.61722750124e-06
-1.79912616964e-05
-1.03124337716e-05
-2.14890741914e-05
-1.22745476263e-05
-2.555462535e-05
-1.45873498993e-05
-3.02290565926e-05
-1.73712518318e-05
-3.5423537853e-05
-2.07701689241e-05
-4.08019083403e-05
-2.43289837922e-05
-4.63343446263e-05
-2.63409005198e-05
-5.14444073345e-05
-2.28376143504e-05
-5.61048887597e-05
-6.56697748174e-05
-6.93991757811e-06
-2.669688601e-07
-1.26644311077e-06
-5.1488487008e-07
-1.99894202021e-06
-8.69210245288e-07
-2.88146777998e-06
-1.34687628634e-06
-3.93129926418e-06
-1.9646064402e-06
-5.16849183404e-06
-2.73891395942e-06
-6.61870871722e-06
-3.68720229046e-06
-8.31566267591e-06
-4.82887222309e-06
-1.03021044492e-05
-6.18957530356e-06
-1.26298003552e-05
-7.80401972068e-06
-1.53605560843e-05
-9.71888181799e-06
-1.85660083019e-05
-1.19836326571e-05
-2.23413019933e-05
-1.4659241808e-05
-2.67847968328e-05
-1.77901159688e-05
-3.19931144848e-05
-2.13864118679e-05
-3.79482124158e-05
-2.51989822777e-05
-4.46015374806e-05
-2.84192996532e-05
-5.24952752557e-05
-2.91421190211e-05
-6.19278833248e-05
-2.35694674027e-05
-7.40200241762e-05
-9.48654914013e-05
-6.58156500882e-06
-2.25462207087e-07
-1.271074561e-06
-4.3762866732e-07
-2.00841066904e-06
-7.44644769724e-07
-2.89890038442e-06
-1.16551458497e-06
-3.96157362668e-06
-1.721707068e-06
-5.21859336383e-06
-2.43765137335e-06
-6.69832773361e-06
-3.34192636022e-06
-8.43776242297e-06
-4.46819812536e-06
-1.04845993396e-05
-5.85733076579e-06
-1.28970863275e-05
-7.5594853613e-06
-1.57457370936e-05
-9.63074888863e-06
-1.91185572266e-05
-1.21312653467e-05
-2.31324038327e-05
-1.51115826914e-05
-2.7922917075e-05
-1.85789600143e-05
-3.36564179211e-05
-2.24563722803e-05
-4.0414748333e-05
-2.61104558526e-05
-4.87112631163e-05
-2.85827807136e-05
-5.93730267703e-05
-2.79927796508e-05
-7.34083240437e-05
-2.12103106211e-05
-9.27708350226e-05
-0.000123336570022
-5.26585038149e-06
-1.97480424883e-07
-1.29477752292e-06
-3.85435504956e-07
-2.0467366844e-06
-6.61207567717e-07
-2.9553443002e-06
-1.04614278457e-06
-4.04042583454e-06
-1.56647168703e-06
-5.32465883961e-06
-2.25374784089e-06
-6.83768618552e-06
-3.14635910297e-06
-8.61788654039e-06
-4.28964813174e-06
-1.07166310692e-05
-5.73749187325e-06
-1.31975177727e-05
-7.55212513369e-06
-1.61404713748e-05
-9.79707213212e-06
-1.9653340235e-05
-1.25360911362e-05
-2.38750283969e-05
-1.57873671828e-05
-2.9007152221e-05
-1.95077087328e-05
-3.52898148166e-05
-2.33816845696e-05
-4.30767870984e-05
-2.66831537613e-05
-5.32779802196e-05
-2.8363242422e-05
-6.69832177225e-05
-2.67593910433e-05
-8.5658563417e-05
-1.94425768343e-05
-0.000111862310785
-0.000151173045471
-4.4943677756e-06
-1.73746315756e-07
-1.3370208729e-06
-3.41545001261e-07
-2.11397680742e-06
-5.89993829098e-07
-3.052446266e-06
-9.40203198944e-07
-4.1735998204e-06
-1.41977786478e-06
-5.49968872708e-06
-2.06204950223e-06
-7.06206948748e-06
-2.90961047846e-06
-8.89888393485e-06
-4.01385038183e-06
-1.10639017364e-05
-5.43643170975e-06
-1.36243373939e-05
-7.24327700911e-06
-1.66729675944e-05
-9.50417758755e-06
-2.03328326085e-05
-1.22661285083e-05
-2.47836390794e-05
-1.55242366486e-05
-3.02907087785e-05
-1.91499120413e-05
-3.72184908867e-05
-2.26278619121e-05
-4.62971439882e-05
-2.52647339272e-05
-5.85887995232e-05
-2.60327040191e-05
-7.54638995897e-05
-2.35006972289e-05
-9.87126840054e-05
-1.60908212827e-05
-0.000131045746666
-0.00017671731396
-3.85511644907e-06
-1.47752619978e-07
-1.40039823185e-06
-2.93951564787e-07
-2.21384368378e-06
-5.12735377731e-07
-3.19567181035e-06
-8.25701065657e-07
-4.36756137439e-06
-1.26261735197e-06
-5.75022528795e-06
-1.86167029244e-06
-7.3747529323e-06
-2.67168228986e-06
-9.27844108513e-06
-3.74905310153e-06
-1.15193426728e-05
-5.15905974463e-06
-1.41698449087e-05
-6.97307442237e-06
-1.73329447811e-05
-9.25952366362e-06
-2.11512478744e-05
-1.20490049708e-05
-2.58551680649e-05
-1.52872834581e-05
-3.17977878946e-05
-1.86862591134e-05
-3.95688586375e-05
-2.17399639944e-05
-5.01001106769e-05
-2.375263983e-05
-6.46182629434e-05
-2.37877529495e-05
-8.47018721012e-05
-2.07233920025e-05
-0.000112317917679
-1.35933922565e-05
-0.000150113172395
-0.000200767402927
-3.29538516755e-06
-1.35963090759e-07
-1.47907486445e-06
-2.69530974744e-07
-2.33821756451e-06
-4.69464584306e-07
-3.37538195987e-06
-7.56290063048e-07
-4.61267685408e-06
-1.1578946105e-06
-6.07060103731e-06
-1.71221447359e-06
-7.77900130607e-06
-2.46941011161e-06
-9.77352823124e-06
-3.49251420477e-06
-1.21119808771e-05
-4.8534722982e-06
-1.48721404651e-05
-6.62558769097e-06
-1.81710872121e-05
-8.86657024973e-06
-2.2180473432e-05
-1.1582385448e-05
-2.71885235983e-05
-1.46446962386e-05
-3.36761972429e-05
-1.77195219927e-05
-4.24238346203e-05
-2.03011606597e-05
-5.45178982257e-05
-2.17178765485e-05
-7.13362889298e-05
-2.12165432377e-05
-9.45329335586e-05
-1.80254133702e-05
-0.000126135452716
-1.13574605148e-05
-0.000168931382702
-0.00022352114008
-2.74389622629e-06
-1.30410964201e-07
-1.56903325437e-06
-2.57865020115e-07
-2.48071395694e-06
-4.48665662944e-07
-3.58200729011e-06
-7.22742885079e-07
-4.8956490708e-06
-1.10667965417e-06
-6.44304576764e-06
-1.63725017391e-06
-8.25318855452e-06
-2.36348792912e-06
-1.03607137351e-05
-3.3494085624e-06
-1.28217108299e-05
-4.67086913467e-06
-1.57167212727e-05
-6.40454543246e-06
-1.91763399314e-05
-8.60107873183e-06
-2.34074945161e-05
-1.12312085412e-05
-2.87754775885e-05
-1.41076920052e-05
-3.59025351842e-05
-1.68593313781e-05
-4.57345517801e-05
-1.89663504145e-05
-5.9497039217e-05
-1.9842381636e-05
-7.86350904693e-05
-1.89054355764e-05
-0.000104819249333
-1.56052626464e-05
-0.000140115693689
-9.75254788629e-06
-0.000187073813039
-0.00024532245325
-2.33726660067e-06
-1.31359498312e-07
-1.66512223381e-06
-2.60152326103e-07
-2.63320909251e-06
-4.52550879556e-07
-3.80382978253e-06
-7.28025616749e-07
-5.20090513584e-06
-1.11218109363e-06
-6.84759995285e-06
-1.64007743475e-06
-8.77318479758e-06
-2.35817183373e-06
-1.10126022975e-05
-3.32732651994e-06
-1.36212552131e-05
-4.62037176905e-06
-1.66823151403e-05
-6.31125538824e-06
-2.03378070249e-05
-8.44068128126e-06
-2.48312399437e-05
-1.094644265e-05
-3.06161790379e-05
-1.35937288532e-05
-3.84605461921e-05
-1.59641300729e-05
-4.9479817753e-05
-1.75769402594e-05
-6.49666018653e-05
-1.79634179703e-05
-8.6372085768e-05
-1.66770014621e-05
-0.000115385733125
-1.32929495677e-05
-0.00015413248436
-8.25683709274e-06
-0.000204399392884
-0.000266129213662
-1.89233848932e-06
-1.42490279711e-07
-1.76283150542e-06
-2.78537058321e-07
-2.78891245033e-06
-4.81239677777e-07
-4.0308534473e-06
-7.70113914086e-07
-5.51462079159e-06
-1.1706992747e-06
-7.26550415689e-06
-1.71699330816e-06
-9.31431786948e-06
-2.45349639309e-06
-1.16974221526e-05
-3.43751085376e-06
-1.44711346609e-05
-4.73687531663e-06
-1.77221017207e-05
-6.41683137966e-06
-2.16046049915e-05
-8.49737186899e-06
-2.64020067301e-05
-1.08738672784e-05
-3.2662572546e-05
-1.32442186627e-05
-4.131826883e-05
-1.51907181664e-05
-5.36011003209e-05
-1.62962414118e-05
-7.08283525458e-05
-1.62168131311e-05
-9.4409600143e-05
-1.45984563079e-05
-0.000126096586627
-1.12159018558e-05
-0.000167964571314
-6.86599545274e-06
-0.000220874112551
-0.000285842278635
-1.45602961658e-06
-1.57138370112e-07
-1.85745133624e-06
-3.06606764593e-07
-2.9401546066e-06
-5.28624912704e-07
-4.25184609532e-06
-8.43206158986e-07
-5.82133608502e-06
-1.27644847177e-06
-7.67613177719e-06
-1.86162003699e-06
-9.84993968583e-06
-2.64118007348e-06
-1.23817521286e-05
-3.66801334246e-06
-1.53306861426e-05
-5.00165252476e-06
-1.87891500579e-05
-6.69176087067e-06
-2.29259747926e-05
-8.72388102402e-06
-2.80702814517e-05
-1.09306039224e-05
-3.48757344415e-05
-1.29537483004e-05
-4.44352754309e-05
-1.44073709232e-05
-5.80384829072e-05
-1.49855086976e-05
-7.69676228053e-05
-1.44145722091e-05
-0.000102638388622
-1.23986714317e-05
-0.000136880267654
-9.43149847195e-06
-0.000181038851685
-5.67972688251e-06
-0.000236406964032
-0.000304442315247
-1.04265965282e-06
-1.76901032261e-07
-1.94397631043e-06
-3.45485810192e-07
-3.07829049069e-06
-5.9432137063e-07
-4.4549250516e-06
-9.45583227241e-07
-6.10383460414e-06
-1.42519405926e-06
-8.05708382121e-06
-2.0671780737e-06
-1.03501584023e-05
-2.91139957795e-06
-1.30275590894e-05
-4.0063751847e-06
-1.61517446375e-05
-5.40028800536e-06
-1.98247491603e-05
-7.11856958716e-06
-2.42343117517e-05
-9.09333968242e-06
-2.97660597913e-05
-1.10715747716e-05
-3.71960553465e-05
-1.26696974964e-05
-4.77412043199e-05
-1.35681881338e-05
-6.26956582795e-05
-1.35689210032e-05
-8.32745457074e-05
-1.24325156986e-05
-0.000110974423924
-1.04329550208e-05
-0.000147149806883
-7.82821152373e-06
-0.000193224129873
-4.56256109985e-06
-0.000250903044446
-0.000321776042201
-6.16594235319e-07
-2.01832681639e-07
-2.01624205256e-06
-3.93151178873e-07
-3.19386962622e-06
-6.74905981947e-07
-4.62536166053e-06
-1.07080174541e-06
-6.34198772701e-06
-1.60784271603e-06
-8.38063245539e-06
-2.32010044146e-06
-1.07791169143e-05
-3.24537354973e-06
-1.3588637298e-05
-4.42567220397e-06
-1.68772863291e-05
-5.89392618085e-06
-2.07601282469e-05
-7.63741320817e-06
-2.54530826509e-05
-9.51136089582e-06
-3.14141031314e-05
-1.11698788426e-05
-3.95561927642e-05
-1.22425793869e-05
-5.11625887316e-05
-1.25448349868e-05
-6.7442574411e-05
-1.19514181143e-05
-8.96014119212e-05
-1.06744229464e-05
-0.000118818234085
-8.90753485254e-06
-0.000156501035189
-6.62960230419e-06
-0.000204348704425
-3.82819329854e-06
-0.000264142988804
-0.000337807333832
-3.20790181668e-07
-2.24252187127e-07
-2.06941768194e-06
-4.40443339669e-07
-3.27933980451e-06
-7.5887664341e-07
-4.75132721357e-06
-1.20379527193e-06
-6.5199252341e-06
-1.80483026291e-06
-8.62430556804e-06
-2.59507539725e-06
-1.11074292586e-05
-3.61105030363e-06
-1.40259396444e-05
-4.88572369922e-06
-1.74577851644e-05
-6.42878708551e-06
-2.1536284745e-05
-8.16817388251e-06
-2.65215720365e-05
-9.85619726183e-06
-3.29664102322e-05
-1.10832362095e-05
-4.19096980937e-05
-1.15777182524e-05
-5.46014105406e-05
-1.13418846928e-05
-7.20818825065e-05
-1.05521318897e-05
-9.54040150162e-05
-9.33331390815e-06
-0.000125814398607
-7.73250989856e-06
-0.000164831583265
-5.72204953743e-06
-0.000214274473024
-3.19257747425e-06
-0.00027607050926
-0.00035239595068
5.36490115608e-08
-2.50502604439e-07
-2.10063253084e-06
-4.90276121654e-07
-3.32975733981e-06
-8.42176152189e-07
-4.82669470184e-06
-1.33235627378e-06
-6.62803725456e-06
-1.99108550458e-06
-8.77577808563e-06
-2.85155079135e-06
-1.1317348872e-05
-3.9469846182e-06
-1.43158592897e-05
-5.29954070283e-06
-1.78610638435e-05
-6.88604114058e-06
-2.21127070292e-05
-8.55831641007e-06
-2.73938890843e-05
-9.96119708772e-06
-3.43806114575e-05
-1.07254232509e-05
-4.41539899072e-05
-1.08221659514e-05
-5.77678822904e-05
-1.03863930343e-05
-7.61724011095e-05
-9.57913281141e-06
-0.000100403881143
-8.4806769746e-06
-0.000131800255391
-7.12784397685e-06
-0.000171944897237
-5.42800625572e-06
-0.000222811144435
-3.14903494967e-06
-0.000286501043642
-0.000365622004957
2.04286964021e-07
-2.68879706201e-07
-2.10871546114e-06
-5.2550699424e-07
-3.34332013593e-06
-9.01210613374e-07
-4.8484632187e-06
-1.42298995744e-06
-6.66204355355e-06
-2.12101618267e-06
-8.8287721704e-06
-3.02730251129e-06
-1.13999434798e-05
-4.16987292468e-06
-1.44457945163e-05
-5.55436278129e-06
-1.80708447167e-05
-7.11193692367e-06
-2.24716201187e-05
-8.60948823157e-06
-2.80544288192e-05
-9.66681530601e-06
-3.55931486426e-05
-1.00911645328e-05
-4.608125747e-05
-9.96824621805e-06
-6.04306065093e-05
-9.48809012598e-06
-7.95267662382e-05
-8.78333250574e-06
-0.000104462530518
-7.91923953515e-06
-0.000136646279958
-6.88374146771e-06
-0.00017774370655
-5.47230090035e-06
-0.000229915824094
-3.20952210875e-06
-0.000295531265588
-0.000377471287728
4.62105522276e-07
-2.7156326192e-07
-2.09558085491e-06
-5.31092895377e-07
-3.32306772865e-06
-9.10572386881e-07
-4.82058954806e-06
-1.43611138216e-06
-6.62722673522e-06
-2.13664722431e-06
-8.78940692191e-06
-3.04098817918e-06
-1.13622131124e-05
-4.16990278026e-06
-1.4422940876e-05
-5.507221129e-06
-1.80951511792e-05
-6.9323831257e-06
-2.26231768137e-05
-8.15504378555e-06
-2.85047210439e-05
-8.88684719192e-06
-3.65279452406e-05
-9.07894915632e-06
-4.75832479556e-05
-8.90931989457e-06
-6.24507638275e-05
-8.54200650139e-06
-8.20423248273e-05
-8.09139089547e-06
-0.000107493273906
-7.59009943459e-06
-0.000140286693696
-6.95760841419e-06
-0.000182184162156
-5.86003224878e-06
-0.000235560509192
-3.6395093676e-06
-0.000303064471875
-0.00038796668717
4.67832714874e-07
-2.44576081138e-07
-2.06981292177e-06
-4.79688838427e-07
-3.28232507644e-06
-8.23189560348e-07
-4.76245035568e-06
-1.29803310986e-06
-6.54989420032e-06
-1.928987033e-06
-8.69236511397e-06
-2.73946144708e-06
-1.12481521189e-05
-3.74214523144e-06
-1.4301415911e-05
-4.90336726066e-06
-1.79974627023e-05
-6.06869921011e-06
-2.26355814171e-05
-6.95831998285e-06
-2.87843230897e-05
-7.40525355093e-06
-3.71924800961e-05
-7.48301181053e-06
-4.86358860099e-05
-7.35951146025e-06
-6.38514348321e-05
-7.16512891136e-06
-8.37872063182e-05
-6.983642086e-06
-0.000109612308065
-6.80657861145e-06
-0.000142882673602
-6.49070330177e-06
-0.000185457614029
-5.62697976678e-06
-0.000239908885888
-3.4236827243e-06
-0.000309211557189
-0.000396739168099
5.30622412511e-07
-1.72560558588e-07
-2.04812716591e-06
-3.3894861527e-07
-3.24801802655e-06
-5.81288935917e-07
-4.7136998512e-06
-9.14861678565e-07
-6.4854051088e-06
-1.35526987299e-06
-8.61234925071e-06
-1.91650873798e-06
-1.11552805996e-05
-2.60350121585e-06
-1.42041832962e-05
-3.38634885776e-06
-1.79207765218e-05
-4.13751912204e-06
-2.26522207049e-05
-4.66213874356e-06
-2.89984993424e-05
-4.88179985837e-06
-3.76647239096e-05
-4.86493775675e-06
-4.93765019168e-05
-4.72789374503e-06
-6.48528579745e-05
-4.57890166771e-06
-8.50433333331e-05
-4.46179837044e-06
-0.000111163431267
-4.37696215555e-06
-0.000144786514996
-4.14755092803e-06
-0.00018790972794
-3.53689932822e-06
-0.000243108980229
-1.64300314089e-06
-0.00031400378579
-0.000403033860345
8.6351305041e-07
-5.96037433413e-08
-1.17879972876e-07
-2.01499372253e-07
-3.1387204072e-07
-4.5812228016e-07
-6.34855946929e-07
-8.39717167919e-07
-1.05479556276e-06
-1.22102133611e-06
-1.24140142646e-06
-1.06726623333e-06
-8.02759233579e-07
-5.02004945323e-07
-2.53352315559e-07
-1.92648415721e-08
6.1262503068e-08
2.1685889535e-07
5.27944549995e-08
1.8902247982e-07
-3.00008550046e-07
9.23278537157e-07
4.20867466238e-06
7.72017048606e-07
7.6596735168e-07
2.79013681158e-06
-3.69906665233e-07
9.33486094122e-07
1.60406682845e-06
-1.31542558781e-06
1.47258538778e-06
8.49796094511e-07
-1.70915314891e-06
2.68673088962e-06
1.31913360348e-06
-8.70475863654e-07
3.30452820319e-06
2.57841632459e-06
6.72289292909e-07
3.39230643488e-06
4.14931778718e-06
2.42275271497e-06
1.50682227089e-06
4.21088210346e-06
2.19180294859e-06
-7.65615252651e-07
2.34130915421e-06
-4.69329595639e-07
-2.5129850119e-06
-1.96186729047e-06
-5.25591628289e-06
-3.28309408042e-06
-7.57568358698e-06
-1.10514024717e-05
-3.79940484615e-06
-1.42152189651e-05
-1.7596941897e-05
-3.22554182218e-06
-2.06739207318e-05
-2.37885226352e-05
-2.89314027443e-06
-2.72408507525e-05
-2.98157000747e-05
-2.31799809944e-06
-3.31737801984e-05
-3.54142327055e-05
-2.03605852266e-06
-3.87273886824e-05
-4.08692937513e-05
-1.68945772677e-06
-4.40935204918e-05
-4.6110431898e-05
-1.40120045452e-06
-4.92923288407e-05
-5.11902905531e-05
-1.14834669085e-06
-5.42847097268e-05
-5.61309849127e-05
-9.31502191774e-07
-5.91528678366e-05
-6.09427073263e-05
-7.12633427843e-07
-6.38247784869e-05
-6.55916046944e-05
-4.78687636231e-07
-6.82878457899e-05
-7.00310821626e-05
-2.47347999466e-07
-7.25268308335e-05
-7.42322157558e-05
-4.38446726114e-08
-7.64583004899e-05
-7.81839787824e-05
1.71897677195e-07
-8.01820260459e-05
-8.18155027002e-05
3.09676575215e-07
-8.34809677774e-05
-8.51555825159e-05
4.80253822513e-07
-8.65653052341e-05
-8.81307645705e-05