/*--------------------------------*- C++ -*----------------------------------*\
  =========                 |
  \\      /  F ield         | OpenFOAM: The Open Source CFD Toolbox
   \\    /   O peration     | Website:  https://openfoam.org
    \\  /    A nd           | Version:  7
     \\/     M anipulation  |
\*---------------------------------------------------------------------------*/
FoamFile
{
    version     2.0;
    format      ascii;
    class       volScalarField;
    location    "0.07";
    object      Qdot;
}
// * * * * * * * * * * * * * * * * * * * * * * * * * * * * * * * * * * * * * //

dimensions      [1 -1 -3 0 0 0 0];

internalField   nonuniform List<scalar> 
815
(
23182656.2141
23590186.1375
24658967.5879
33606076.1531
34540215.7841
36536844.0582
29559633.2424
29288144.5755
28761069.6858
14924294.0563
14836306.6667
14595514.1881
8489968.42729
8422273.32787
8287349.56045
5068645.43568
5036819.86912
4962436.97672
3034818.55331
3009395.81633
2964792.97163
1701921.97947
1689337.22656
1661253.37209
865395.399168
856998.505216
841012.741013
399564.760353
395660.204744
387443.903336
181197.627542
179396.592849
175871.538443
86520.0125094
85820.2853462
84426.6844271
45809.3350741
45515.622859
44906.2919627
26549.7744994
26400.2082893
26112.9192483
16048.5629942
15981.8080226
15841.6292742
9827.61591839
9788.81368067
9717.91287904
5985.0201083
5967.51679861
5934.22455887
3607.08377399
3598.80038815
3583.2070597
2138.97079515
2135.16661794
2128.18611247
1243.54120491
1241.89463172
1238.95600309
707.499146787
706.822166197
705.61889386
393.449261831
393.004948361
392.530786722
213.4735526
213.319925412
213.189611256
113.353823473
113.256894648
113.227397273
58.9455035834
58.9142437747
58.930939211
30.2804352464
30.2681015563
30.2868874133
15.6191890757
15.6139815039
15.6269347376
8.48197203058
8.4801162408
8.48726930002
5.72429144964
5.72725009948
5.72962959928
6.64619007249
6.65980246683
6.66139869644
6.48652448558
6.49226045038
6.49972664218
26147332.209
39415649.7653
28012717.4163
14256120.4249
8093081.88913
4855361.5466
2901645.60641
1624113.7836
819951.564066
376640.871686
171168.873077
82584.1962093
44119.4026892
25744.3641608
15664.7191265
9630.26147955
5894.48416559
3565.78680921
2121.21684612
1236.63029772
705.071106399
392.559818352
213.416590673
113.425045919
59.083391698
30.3832468997
15.6829650743
8.51690066129
5.73906345475
6.65706203324
6.51025961759
1184376.37758
338967.779806
54386.5667071
5551.19510031
757.897472382
262.251690563
128.220047914
29634786.3753
37606783.8102
50503893.6412
69724212.9654
71170252.3799
50380320.8705
33609326.5196
20609843.2457
11732984.1877
6530517.62904
3709794.86706
2066223.87892
1063684.60141
450882.663673
126586.873306
21994.1122718
3169.47504632
833.520127502
445.244027792
232.22901621
45932369.1773
52884266.4713
43487209.6854
33930888.2999
24819541.8075
16861936.5142
10563837.1405
6238774.44027
3680744.92139
2255066.24455
1392066.68006
815849.875591
420439.436922
166937.543892
47345.6066455
10306.0038498
2613.32020442
1255.40644028
777.500936712
406.516087945
26318783.8418
23036476.0387
18905539.6658
14458301.0372
10256136.8837
6750973.92258
4153032.0718
2477907.11502
1506975.18764
933373.015329
568470.093314
327390.241663
166795.616249
66148.7450194
21573.6631101
6940.76380086
3163.2093109
2035.41009244
1323.88592643
678.25873319
13447541.8225
11796732.4043
9666859.76283
7349079.626
5160616.47592
3348625.89308
2028786.69102
1190939.993
703040.873753
418607.252324
246933.852471
140980.448842
73877.2748891
33139.0943095
14299.5012763
7166.15759198
4566.17849434
3214.44054833
2111.26448537
1068.89037866
7654800.01247
6754795.39373
5564936.4915
4236695.26541
2961458.62218
1902195.801
1137178.52874
655059.594361
376609.133778
218448.694724
127097.751135
73782.4858795
42162.4831497
23329.852403
13667.4184766
9022.15130388
6452.28130433
4588.15027909
2999.93880241
1514.73415164
4611226.01418
4099257.81469
3407092.95831
2616157.2687
1842540.99138
1191144.45597
713575.634537
407687.049152
232084.651407
135447.617647
81801.475615
51249.9757235
33105.2995072
21924.5175552
15164.6426688
10940.8581691
7974.75400212
5656.88123395
3690.97455104
1851.39674905
2764472.70166
2488851.52954
2116362.31274
1678869.49143
1223207.34423
813150.304219
496440.595302
286727.938095
165883.223153
100516.555555
64420.1279043
43212.5863792
29920.7601009
21171.0058512
15261.8542621
11138.0756541
8126.35318877
5781.91160762
3788.005957
1881.00434945
1541116.96694
1378762.74317
1166494.21849
925772.575624
683157.833591
467439.096927
299946.875629
186718.254309
117617.357933
76690.8557141
51801.7095773
35853.6012321
25164.7075787
17859.1149811
12853.1439025
9409.60812463
6974.5660979
5096.80382302
3381.98973681
1649.25190637
774788.879773
688032.248591
578143.3527
457408.453921
340389.165024
239844.480776
162707.718506
108893.94662
73468.0025689
50279.5231188
34779.0292612
24289.2896607
17183.2454352
12356.2731082
9056.65170228
6775.16711622
5144.35701314
3860.33495773
2623.33651578
1322.57173569
353930.071139
310730.178795
258453.814768
204104.916369
154179.961864
112878.922388
81260.3314297
58122.7656624
41546.4532295
29660.5855456
21167.6944889
15197.2583429
11053.4588778
8169.96719146
6134.51881065
4682.0194186
3610.81922695
2738.04395814
1879.95233042
942.295753178
161564.752062
143109.045615
120902.189398
97894.3745367
76583.0516454
58561.513139
44082.1117386
32747.1713835
24060.8969714
17566.8514217
12836.9173482
9455.75983107
7052.3997623
5324.73696747
4060.81397094
3126.93126828
2415.88545032
1824.5317269
1240.84562115
596.55501691
78733.2669813
71185.8314394
61829.733323
51754.9521828
41969.624895
33169.6655435
25667.8437777
19521.7056689
14677.5505865
10981.7629725
8221.17008239
6177.76236699
4666.42076786
3540.96107845
2698.109815
2062.94831378
1570.06135253
1156.46593756
758.741285924
343.962009906
42462.3233118
39166.5778965
34890.4736836
30021.740603
25016.6104744
20269.2265789
16039.5048027
12455.3312605
9544.73033258
7256.86545256
5493.99088716
4149.84205058
3131.12736478
2360.52421689
1778.00049013
1334.97144251
988.499687709
699.178400666
434.641195777
185.928080398
24969.705554
23394.2827807
21258.3080299
18699.5274067
15931.9736116
13179.9253722
10624.6904015
8381.86916553
6501.33389844
4979.36886501
3777.45431408
2844.17435731
2128.6636902
1584.44474533
1171.83270223
857.059826089
611.202540451
410.081927439
238.655364697
96.3397384073
15288.9542229
14506.3115117
13401.4575854
12015.4931858
10443.4623556
8805.95128869
7218.58857191
5770.76829268
4515.64677895
3471.19549416
2629.3138331
1967.35389445
1456.76323371
1067.6556357
772.470723059
547.515432849
373.627603782
236.137047973
127.843576252
48.8501283087
9449.39037553
9065.40535681
8500.05326951
7757.18142352
6873.35231898
5907.34817145
4926.36524351
3992.69038687
3153.05949261
2433.36459472
1840.84496335
1369.20920957
1003.31077977
723.774283563
511.510154015
350.312563341
227.796822095
135.181786813
68.015924026
24.6906412413
5812.10833551
5630.89992399
5350.94795918
4964.36291598
4481.18590648
3926.06613857
3333.74942099
2743.13934765
2189.99130224
1700.04712453
1286.95870959
953.330757912
692.466670299
492.159620862
339.611947453
224.375891885
138.774890827
77.3181350567
36.2984046489
12.6108549223
3530.39148677
3449.82312256
3317.82172019
3125.05249464
2871.19605574
2564.05714464
2218.80266493
1856.73555102
1502.00793061
1175.98480833
893.425011244
661.130145809
477.411903054
334.90680578
225.678178394
143.735026627
84.575205875
44.3828740109
19.5985320946
6.57622659712
2107.57278108
2075.03186491
2016.97432489
1926.08534737
1799.11476201
1636.79176207
1444.01182079
1230.59618874
1010.85877839
800.328943119
612.105847792
454.205617741
327.280972382
227.050036585
149.443224297
91.7842855694
51.5266221351
25.643033481
10.7665975793
3.52525889536
1232.41418606
1221.37373601
1198.41766943
1158.64620033
1098.87470779
1017.59678868
915.171121558
794.991897569
664.331784426
533.177389434
411.885692365
307.953015013
222.365661453
152.775434441
98.2422147564
58.2994195034
31.3979450011
14.9549913989
6.040518754
1.94634673903
704.429281001
702.089382585
694.601264046
679.005477565
653.002968761
614.856944252
563.434277098
499.103063288
424.854101294
346.417522235
271.34627132
205.6284663
149.336815414
101.623772024
63.8750500428
36.7531213368
19.1219420753
8.8013255592
3.45702002837
1.10374853734
393.077104355
393.742384993
392.386653164
387.371694713
377.28742135
360.800430192
336.630971929
304.08674859
263.946416485
219.15750387
174.939911373
135.229116605
98.8789036817
66.5531978612
40.9371125985
22.9443871853
11.6182738227
5.21488771518
2.01015794274
0.639073266313
214.132376479
215.439591028
216.078138776
215.209393147
212.046564912
205.743472035
195.314056574
179.902179285
159.366017794
135.125656245
110.677748392
87.6621515684
64.3340952783
42.7488339892
25.7902179748
14.1576251889
7.02755593525
3.10028671144
1.18101192013
0.374833870594
113.999567286
115.139376214
116.143804304
116.611775373
116.144689164
114.260488945
110.313433367
103.607544389
93.7593705049
81.5304376334
69.0941889204
55.987783701
40.9742987189
26.8537930343
15.943531436
8.62023213329
4.22202374319
1.84230530843
0.696759744308
0.220736260861
59.4805161792
60.2806207796
61.1263814609
61.8392605526
62.2354603613
62.060904549
60.9314906066
58.3649029433
54.0435477203
48.5377379507
42.7833470568
35.1011496996
25.4523499969
16.4673392621
9.66381711517
5.17430293151
2.51400383496
1.08982836701
0.409984388272
0.129118322241
30.6264409872
31.1310019802
31.7210717093
32.3257223824
32.8686028751
33.2244341644
33.175204613
32.4213408359
30.8195883942
28.8433698335
26.2687945776
21.4925189408
15.3930865616
9.85965797519
5.74447960616
3.05951051225
1.48019762581
0.63886535077
0.23880502713
0.0741569358853
15.8228887499
16.120231414
16.4931374906
16.9193587439
17.3722629519
17.7926516179
18.0593346045
18.0109792214
17.6734267891
17.2683270166
15.9058600865
12.8286414316
9.07681890933
5.77396070461
3.35220153196
1.78152659495
0.859866956016
0.36940821481
0.136602030532
0.0412140510751
8.59071741866
8.7498290642
8.96242201414
9.22777904279
9.54128259707
9.87550841156
10.1629016629
10.334584454
10.4770800356
10.4670843232
9.49288003241
7.49851372049
5.24658191263
3.32273449619
1.92663624434
1.02294256948
0.492351421636
0.209899901861
0.0761563253912
0.02183212184
5.76265510108
5.81808798871
5.9110813245
6.05688754394
6.265274272
6.52391038656
6.77606790962
6.92945473943
6.94277094732
6.63758208114
5.72686031944
4.38793150393
3.02711955076
1.90662564747
1.10321377435
0.584312535488
0.279627885771
0.117657179822
0.0414358223637
0.0109211435275
6.64787485542
6.64802398329
6.70237840016
6.85305101273
7.1341919734
7.53851547183
7.92797890314
7.84227604582
6.80613716414
5.33698691388
3.99739855969
2.83678120563
1.8835203252
1.16429038278
0.667186572157
0.350842216053
0.166331650778
0.0687356914803
0.0232258918714
0.00536406631018
6.53512433676
6.60284434944
6.73323665201
6.95427242538
7.29564272474
7.76884232049
8.33974531143
8.79551377884
8.43707229498
6.65856334917
4.50736759696
2.86858323531
1.76300965416
1.0396443267
0.580173818003
0.300478916578
0.140622553863
0.0567168179147
0.0179736881095
0.00343102697917
87.7684468648
61.7449947438
157.146443505
112.629714137
271.089596729
195.349529339
440.069598628
315.226274281
660.452180975
461.595740652
884.760803057
589.202154259
1021.55539426
622.363213231
952.269917981
484.534675426
686.760790034
222.424797197
513.675501668
155.361500684
295.867846504
66.0620254743
175.395683266
34.3055487644
106.58381987
20.5090484847
63.5655231317
12.6176980542
36.4516497136
7.52250900368
20.20728835
4.30148612134
10.9768430122
2.39656010264
5.94341115657
1.32710128062
3.25185048176
0.741815844294
1.81493297742
0.422655433195
1.03630278586
0.246088797412
0.604087180747
0.145960489512
0.357319371929
0.0876018310793
0.212719084789
0.0526627403562
0.126143105022
0.0314236389708
0.0735140740682
0.0182679098406
0.0414030740415
0.0101672066948
0.0220186607863
0.00524182132156
0.0106004906498
0.00240237154487
0.00438362738366
0.0009318293522
0.00151775391411
0.000312793672661
0.000614585014559
0.000138632248921
)
;

boundaryField
{
    inletfuel
    {
        type            zeroGradient;
    }
    inletair
    {
        type            zeroGradient;
    }
    outlet
    {
        type            zeroGradient;
    }
    axis
    {
        type            empty;
    }
    leftside
    {
        type            zeroGradient;
    }
    burnerwall
    {
        type            zeroGradient;
    }
    front
    {
        type            wedge;
    }
    back
    {
        type            wedge;
    }
    procBoundary1to0
    {
        type            processor;
        value           nonuniform List<scalar> 
27
(
17116232.138
17414720.2776
18018097.7697
18887840.9817
3550125.15304
975863.879622
157809.683798
14158.3669076
1149.64040735
182.782461647
69.8829662255
20823355.0981
25077993.7049
31680896.7486
41376608.9416
55171761.7416
74760259.1629
99819550.4661
68451353.895
40823883.4304
22918186.3357
12119122.4651
6182729.22603
2918478.24934
2918478.24934
47.3912209614
32.4383850055
)
;
    }
}


// ************************************************************************* //
