/*--------------------------------*- C++ -*----------------------------------*\
  =========                 |
  \\      /  F ield         | OpenFOAM: The Open Source CFD Toolbox
   \\    /   O peration     | Website:  https://openfoam.org
    \\  /    A nd           | Version:  7
     \\/     M anipulation  |
\*---------------------------------------------------------------------------*/
FoamFile
{
    version     2.0;
    format      ascii;
    class       volScalarField;
    location    "0.07";
    object      T;
}
// * * * * * * * * * * * * * * * * * * * * * * * * * * * * * * * * * * * * * //

dimensions      [0 0 0 1 0 0 0];

internalField   nonuniform List<scalar> 
815
(
2376.99697957
2375.80319057
2373.15072642
2488.34307916
2484.33683028
2475.54346371
2489.45427781
2481.11362571
2463.00913649
2404.39495267
2394.5450981
2373.39545898
2292.91391275
2284.14732632
2265.45823365
2134.50745692
2128.44096824
2115.14038916
1872.63378593
1869.04201973
1861.31900462
1515.48143016
1513.01753939
1508.09519949
1157.15911016
1155.52252049
1152.67713836
894.99822613
894.197815862
892.855781692
738.300678705
737.948862514
737.467306732
655.034335383
654.942554171
654.843055376
610.818006621
610.792877631
610.787390034
584.202511332
584.189833072
584.185854328
565.905939247
565.884296729
565.850059831
551.893504617
551.856483693
551.783931082
540.257120053
540.207452232
540.102759382
530.065997564
530.002126233
529.864609485
520.762450996
520.685359547
520.518089585
512.023625019
511.935089705
511.741462315
503.669768412
503.568200569
503.348821598
495.574906041
495.462767922
495.222066637
487.690546882
487.569745179
487.31131895
480.007775737
479.879119751
479.605418679
472.524963069
472.39172962
472.107870988
465.277016196
465.139941845
464.848209046
458.292917223
458.154158863
457.859056737
451.637238544
451.4992716
451.205782694
445.458405599
445.322454723
445.033444243
440.008319957
439.874397386
439.590321755
435.804760122
435.6784177
435.405862677
2369.38662002
2463.0752788
2437.55065032
2344.20306206
2239.82918367
2096.79382852
1850.80342178
1501.58834343
1149.05473491
891.155449151
736.879727979
654.761340994
610.817357677
584.20364252
565.818134123
551.693887863
539.964339167
529.678809993
520.289935968
511.476212852
503.047714399
494.89098301
486.955338418
479.228007553
471.715708123
464.445024172
457.451212221
450.799920475
444.633043555
439.19540392
435.026769631
697.777792746
473.368480848
373.588518668
343.420850397
334.159604397
330.421526112
336.621272743
2360.64439367
2339.40480797
2301.28414962
2238.90022202
2142.61883787
1986.27050033
1791.87202887
1584.54643177
1386.04318283
1212.19139268
1062.4502109
909.692334601
732.849817852
564.6057691
446.391680191
390.733307804
371.795846681
361.431415209
352.969904922
354.104183786
2435.56911676
2372.61379986
2262.86203973
2104.02241304
1905.86007
1686.16890358
1469.67042168
1279.14029786
1122.66056489
993.993808171
879.504516702
764.143833963
645.549519739
541.135858194
471.956005323
438.862517289
423.378808315
407.549856373
389.160594791
379.062717408
2383.02347596
2269.54958891
2113.39762866
1921.4339633
1707.70184156
1493.1198113
1301.34504773
1146.25593735
1024.17151471
922.945603577
832.630432918
747.360699844
667.027013622
597.404524226
552.365105859
527.800267337
508.412931038
480.616756576
445.698004817
414.071082631
2283.11244559
2162.19399142
2004.05447899
1818.39210676
1620.35527416
1429.56536584
1265.40080642
1135.53967625
1035.00566892
954.344487239
886.104750672
824.48926899
767.04292247
718.448597954
685.614016234
661.464506272
631.347276513
587.119484471
527.552653101
461.245094275
2186.22640695
2081.58764735
1946.2150157
1788.71790316
1621.85299767
1461.99725601
1323.4393095
1212.10987911
1125.6075655
1057.47659065
1000.49232504
950.720224249
907.130066792
870.74687035
842.43456015
814.974152691
775.979331755
715.992436553
627.427710397
516.766942484
2058.03855711
1981.93079328
1882.32459741
1764.85970738
1638.39627211
1513.40895942
1398.49568742
1300.00638625
1218.62579698
1151.66842137
1096.32575841
1050.49124312
1012.61943498
982.119011274
957.359707641
932.037686844
895.031257008
830.820538975
720.776695553
567.215670503
1828.21066166
1785.27927949
1727.31996901
1654.83191548
1568.5930487
1474.17817731
1378.96999687
1289.84269244
1211.9351699
1146.47970679
1093.19064959
1050.92717076
1018.47243004
994.738831626
978.171245152
963.795520595
940.673381134
886.945181725
771.838828659
592.891604078
1487.52828859
1461.64242579
1426.0825523
1380.77225623
1326.20328338
1264.86948122
1200.62266896
1138.24519572
1081.95847225
1033.63612234
994.683983934
965.431290431
944.971702354
932.373340685
926.650990818
924.315535908
915.871983501
878.24955212
771.984076271
591.619144911
1141.37759186
1127.01861218
1106.80872695
1080.80302225
1049.8827411
1015.90267127
980.952605112
947.061527266
916.558241421
891.017521554
871.591821593
858.547887071
851.224736183
848.906890001
850.389331603
852.722281256
847.825600523
815.869882703
724.080046061
576.758264711
887.597116808
880.368076154
870.127283995
857.325132491
842.829683825
827.928275545
813.622957433
800.658381474
789.989961077
781.971432784
776.651316531
773.869656031
773.325519691
774.572546729
776.538095294
776.667507391
768.638704604
738.259280153
665.606365454
558.784722555
735.68634635
733.226623771
729.864343043
725.907937552
721.798680649
718.158699276
715.24928085
713.130998191
711.877958778
711.447735145
711.674980108
712.319255243
713.067328191
713.434084911
712.420330461
707.899973052
695.574746677
667.555914398
614.272393338
542.635512348
654.612312818
654.450910166
654.344485897
654.419168029
654.82520056
655.715137211
657.152574003
659.036467884
661.154879858
663.201292569
664.829122804
665.702554056
665.480043879
663.72313148
659.668641569
651.921792652
638.039038229
614.19707239
576.796277418
530.875014263
610.9171738
611.303523356
611.973710582
613.017947295
614.543130518
616.625323066
619.235498761
622.169299461
625.062401389
627.456217404
628.891114632
628.972563085
627.384794671
623.82036244
617.859306709
608.828529483
595.662503269
576.913050718
551.838150221
523.798157887
584.273047617
584.569854877
585.122869681
586.029275745
587.401374148
589.316226327
591.740291526
594.455284387
597.051516831
599.003705317
599.794434541
599.021431785
596.444355247
591.944943818
585.455763772
576.864773116
565.965553473
552.501116334
536.812505008
520.620796637
565.775055813
565.806611323
565.979401346
566.392527907
567.165946412
568.395516389
570.082036843
572.050937552
573.923148163
575.178295673
575.295623906
573.904561186
570.86283467
566.248301495
560.283367038
553.234325315
545.36701122
536.930428973
528.39104087
519.948507239
551.523092635
551.258759338
550.996888504
550.828127491
550.872132531
551.240487737
551.97832356
552.984066146
553.961248521
554.455313781
553.994188281
552.266460955
549.237560015
545.154188732
540.442044497
535.579910103
531.017906031
527.117671943
524.042019841
520.665910731
539.676702506
539.13397855
538.456665361
537.721018417
537.038837221
536.528396318
536.271944688
536.245039794
536.259908349
535.974247754
535.011813889
533.152679476
530.477532982
527.367002838
524.363331614
522.016074418
520.767607432
520.860817952
522.013548614
522.098369745
529.282422988
528.490235344
527.439741615
526.190209291
524.840145448
523.50602044
522.293819787
521.246239438
520.288385983
519.21812355
517.798375084
515.941207519
513.857928334
512.029205826
511.024211643
511.336998782
513.27787422
516.854601036
521.349787624
523.946827642
519.796777612
518.786591365
517.41029439
515.711604212
513.773917905
511.706812071
509.627994934
507.629572215
505.738022953
503.89871885
502.048185083
500.279516061
498.964227086
498.64905836
499.83200853
502.842339619
507.785256183
514.395885857
521.602695392
526.136407851
510.897884664
509.698280955
508.04133569
505.957462473
503.517010159
500.821211393
497.991442086
495.153345341
492.415506264
489.86402382
487.63166875
486.0425215
485.661362157
487.051533432
490.533482785
496.196524038
503.911784706
513.164029505
522.618282066
528.707693948
502.392814168
501.02871477
499.131504034
496.722136902
493.861506072
490.64384343
487.191521812
483.652577378
480.200905679
477.050874165
474.541235046
473.269697823
474.010239326
477.266278962
483.086331392
491.286104466
501.515887976
513.059885738
524.385824554
531.7265361
494.171090329
492.666404503
490.566129132
487.886473694
484.683750667
481.048771512
477.106926689
473.025335003
469.030765358
465.453719259
462.84579569
462.106011351
464.19100119
469.435883285
477.556283849
488.112714378
500.57579215
514.078641935
526.94255647
535.255590761
486.180694441
484.558034303
482.290098294
479.393235415
475.923996355
471.975677134
467.680494994
463.224941141
458.884461668
455.102981835
452.659463363
452.757402923
456.437221756
463.735616427
474.036822099
486.712365174
501.106136047
516.234871473
530.323515558
539.338112047
478.408253965
476.690439893
474.291357912
471.230939905
467.571148585
463.4127664
458.900053581
454.243070338
449.771434526
446.057205013
444.132606498
445.459295663
450.96911976
460.300967658
472.589921154
487.100897284
503.095597833
519.521528049
534.538568611
543.993625502
470.863015793
469.075119239
466.583835622
463.415578684
459.64186568
455.375639464
450.779346326
446.09515213
441.725195679
438.407974953
437.451996922
440.435300817
447.927675322
459.168623578
473.181631372
489.203925372
506.464382521
523.874325759
539.5531771
549.222074975
463.57025538
461.739277013
459.196849025
455.978417423
452.167911332
447.894892296
443.347127746
438.814719894
434.808775573
432.292551214
432.824038387
437.8207534
447.287296149
460.205483566
475.634068371
492.83556604
511.038105918
529.150741107
545.278367
554.978112388
456.568049692
454.723349044
452.1728148
448.962865954
445.192187801
441.011066529
436.642618433
432.452196847
429.119561324
427.882486798
430.385517697
437.530637147
448.775851511
463.073727908
479.587711243
497.639947392
516.491947749
535.087399471
551.543042014
561.185053795
449.921896711
448.090999307
445.572891849
442.426742591
438.767645682
434.770267724
430.706828975
427.059895558
424.7526294
425.269888641
430.006671213
439.147530977
451.846537551
467.176262567
484.439479504
503.043383405
522.316109906
541.274868014
558.069138715
567.658157792
443.767657479
441.967508233
439.510307207
436.469584074
432.976800862
429.231249791
425.56434478
422.619076376
421.6246274
424.163809069
431.039094363
441.804693951
455.565620121
471.580350834
489.297114869
508.227681931
527.797194838
547.125856917
564.396860503
573.956500449
438.343707373
436.579860684
434.195145476
431.276506772
427.96882847
424.48684885
421.202883382
418.907872707
419.16322861
423.564576515
432.202885878
444.173297303
458.653257959
475.086598054
493.064224984
512.212981047
532.06138241
551.839667499
569.72325242
579.129309751
434.200154305
432.491824011
430.191650695
427.393570259
424.251525021
420.986474816
417.973816899
416.02499565
416.86534594
422.29404744
432.056637821
444.845047046
459.819318453
476.544911359
494.723918287
514.072458085
534.183204739
554.342437318
572.688394677
581.75841241
375.276598665
398.255766388
391.019534983
412.257517352
409.361434388
427.646286482
431.693286198
445.012342532
459.129997406
464.224487833
489.746882059
483.848427954
515.763679485
500.251540638
526.373230845
509.033037266
523.393574644
509.868839455
518.846677481
503.937760813
512.208176751
497.009480181
506.18655586
490.49189403
502.103268794
485.662714548
499.983923214
482.618545994
499.496485272
480.987302339
500.076795408
480.344611623
501.335761503
480.387299573
503.023071053
480.93431877
505.015531465
481.88169891
507.27092525
483.166162798
509.789579569
484.739095209
512.579213826
486.558873182
515.640076834
488.576435855
518.944647205
490.730082081
522.455142245
492.935774113
526.059951339
495.065358947
529.639188326
496.937724936
532.943210129
498.293202153
535.598568682
498.948137265
537.239770904
498.972909235
537.701825811
498.848871461
537.262894757
499.013173202
)
;

boundaryField
{
    inletfuel
    {
        type            fixedValue;
        value           nonuniform 0();
    }
    inletair
    {
        type            fixedValue;
        value           nonuniform 0();
    }
    outlet
    {
        type            zeroGradient;
    }
    axis
    {
        type            empty;
    }
    leftside
    {
        type            fixedValue;
        value           uniform 294;
    }
    burnerwall
    {
        type            zeroGradient;
    }
    front
    {
        type            wedge;
    }
    back
    {
        type            wedge;
    }
    procBoundary1to0
    {
        type            processor;
        value           nonuniform List<scalar> 
27
(
2123.45348217
2124.05871816
2125.73066355
2128.15997054
982.472048154
560.454098139
384.603852229
331.992100843
318.903783386
316.557437057
324.339640148
2133.33164427
2143.10489659
2152.82481356
2158.02945036
2153.53033469
2127.6757164
2075.48933333
1964.42822273
1790.14599038
1599.15294182
1420.89987224
1247.21332486
1002.38204159
1002.38204159
361.553317013
385.368506444
)
;
    }
}


// ************************************************************************* //
