/*--------------------------------*- C++ -*----------------------------------*\
  =========                 |
  \\      /  F ield         | OpenFOAM: The Open Source CFD Toolbox
   \\    /   O peration     | Website:  https://openfoam.org
    \\  /    A nd           | Version:  7
     \\/     M anipulation  |
\*---------------------------------------------------------------------------*/
FoamFile
{
    version     2.0;
    format      ascii;
    class       volVectorField;
    location    "0.07";
    object      U;
}
// * * * * * * * * * * * * * * * * * * * * * * * * * * * * * * * * * * * * * //

dimensions      [0 1 -1 0 0 0 0];

internalField   nonuniform List<vector> 
815
(
(0.0083612399648 -2.44572224999e-11 -15.2608042453)
(0.0259238187667 -6.7632889271e-11 -15.1548136909)
(0.04623492893 -1.0075884487e-10 -15.0236735453)
(-0.0362759456779 -4.46699531733e-11 -14.5544509946)
(-0.0941730186509 -1.21017316181e-10 -14.4297359191)
(-0.147199690576 -1.96281212036e-10 -14.263821671)
(-0.06585584983 -1.12511008744e-10 -12.7763877988)
(-0.170236848967 -1.1206288087e-10 -12.6463256318)
(-0.267369808326 -1.2458297463e-10 -12.4724294421)
(-0.0717285862414 -8.02993961612e-11 -10.6158299556)
(-0.188127370567 -5.48984477823e-11 -10.5015694163)
(-0.298877097887 -1.47068513209e-10 -10.3482736292)
(-0.061271460672 -9.62527145283e-11 -8.73368466091)
(-0.159689059161 -8.12886527753e-11 -8.63422920643)
(-0.250630696311 -9.25733688558e-11 -8.50303582357)
(-0.0350565195932 -6.6834773492e-12 -7.54579115748)
(-0.0968459933199 -1.87689718816e-11 -7.46879354942)
(-0.160091907399 -3.05229575903e-11 -7.36577716207)
(-0.0079661468646 -3.40292990361e-12 -8.05950723862)
(-0.0198988164114 -9.96692519459e-12 -8.00307072831)
(-0.0283483268359 -1.81423054647e-11 -7.93508601831)
(-0.00673316822335 2.21735714277e-12 -8.29405934137)
(-0.0142823017787 4.03361267195e-12 -8.25058157578)
(-0.0165783309235 -8.75476312845e-12 -8.20486213393)
(-0.00526483340043 2.66818245014e-11 -8.18275479944)
(-0.0127915320819 7.89838470988e-11 -8.14567839985)
(-0.0183786024612 -1.74547515945e-12 -8.11306031836)
(-0.013794915877 -5.44331079131e-12 -7.60000478053)
(-0.0364876278 -3.94430279586e-11 -7.57522968801)
(-0.0578789851156 -7.85271933241e-11 -7.55459382918)
(-0.0182070152378 1.0362146884e-10 -6.79146033849)
(-0.0470866765061 -3.70259588649e-11 -6.77545702215)
(-0.0736194661217 -1.43658026918e-10 -6.76189975412)
(-0.0158970184253 -2.05909099279e-11 -6.2289866072)
(-0.0414168961131 -5.65702785477e-11 -6.21595057989)
(-0.0654457365924 -8.43961246851e-11 -6.20689677557)
(-0.0137920502772 -3.06707223108e-11 -5.71056267892)
(-0.0357413508371 -8.32057341553e-11 -5.69842641756)
(-0.0562233365003 -1.14562725579e-10 -5.69195523705)
(-0.0104099570797 -5.5640571112e-11 -5.55762523102)
(-0.0273148371732 -1.62500269163e-10 -5.54580821395)
(-0.0434109636223 -1.87447812226e-10 -5.54089086171)
(-0.00839605770621 -1.64054871857e-11 -5.42638968328)
(-0.0220826890499 -4.74682444957e-11 -5.41551170619)
(-0.0351859812993 -8.54316544519e-11 -5.41150363534)
(-0.0068738598354 -1.14784108169e-12 -5.49331314339)
(-0.0180542764767 6.21902609465e-13 -5.48304072883)
(-0.0287789457424 -7.65894859924e-11 -5.47968950835)
(-0.00514577615371 -1.57414395625e-11 -5.60966264131)
(-0.0135962428321 -4.4518784646e-11 -5.6004256504)
(-0.0218831453516 -7.25902943871e-11 -5.59746774086)
(-0.00462927648529 -1.18769436986e-11 -5.81286027514)
(-0.0121756519532 -3.42000237731e-11 -5.80466782253)
(-0.0194714489135 -5.93164550421e-11 -5.80203373353)
(-0.0042670237895 2.36087938701e-12 -6.04892235147)
(-0.0111977948174 3.67955521034e-12 -6.04179643948)
(-0.0178556658477 -1.41344334622e-11 -6.03941299127)
(-0.0039085711429 4.86652327293e-11 -6.31340750021)
(-0.0103871780804 1.40447769085e-10 -6.3074974493)
(-0.0167185338811 1.04005836674e-10 -6.30542431427)
(-0.00460925499751 2.78918514026e-11 -6.57702786428)
(-0.0117897868446 8.0248697899e-11 -6.57256672966)
(-0.0183304861234 1.31694908544e-11 -6.57088695665)
(-0.00477778867022 -1.61348565166e-12 -6.82346358745)
(-0.012258455586 -4.7295542428e-12 -6.82049585705)
(-0.019129012447 -8.5889069558e-12 -6.8195062689)
(-0.004973541729 -1.80624044571e-12 -7.03278498956)
(-0.0128436837484 -5.1756629169e-12 -7.03148444671)
(-0.0201622074302 -8.87783439257e-12 -7.03092182602)
(-0.0055426516408 -2.00813723714e-12 -7.18705633418)
(-0.0141884891289 -5.41453694596e-12 -7.18748154955)
(-0.0221209854256 -8.28060910342e-12 -7.18759200564)
(-0.00539463797262 -5.09050034902e-12 -7.27572759632)
(-0.0139447942459 -8.28903011554e-12 -7.27782860698)
(-0.0220777075082 -6.73226703197e-12 -7.27833151078)
(-0.00584020725941 -6.87240746966e-11 -7.29110638791)
(-0.0150903867014 -3.38536886721e-11 -7.29495356807)
(-0.0238009060799 -1.09719060401e-11 -7.29594689735)
(-0.00598170846276 -8.58645839262e-12 -7.23133916822)
(-0.015456324036 -2.91264204327e-11 -7.23704238761)
(-0.0243495783503 -4.58105925345e-11 -7.23864919785)
(-0.00568581859245 3.50205154951e-11 -7.10152702892)
(-0.0146928195871 -7.75798751458e-11 -7.10940134625)
(-0.0231901605588 -6.57328747384e-11 -7.11169393092)
(-0.00479745156784 -7.9917179405e-11 -6.92393005671)
(-0.012351511001 -1.35263420621e-11 -6.93520689234)
(-0.0195527779189 2.03472789342e-11 -6.9378259555)
(-0.00311681926945 2.36897215901e-11 -6.75474829656)
(-0.00807525215114 1.00229041284e-10 -6.77085287217)
(-0.0129369933175 -3.62989504846e-11 -6.77147362294)
(-0.000847669085697 -7.74616266845e-11 -6.70700139093)
(-0.00234285361857 1.9231126299e-10 -6.72214327913)
(-0.00393667290213 2.04931705829e-10 -6.71943838093)
(0.0662508344449 -1.11973338469e-10 -14.885057131)
(-0.203835607684 -1.76155276386e-10 -14.0813443829)
(-0.367040625648 -1.39676894484e-10 -12.2799443323)
(-0.412314717758 -1.44029328764e-10 -10.1785467926)
(-0.339856976844 -1.14637378711e-10 -8.35925477792)
(-0.221324117847 -4.08023359367e-11 -7.25189352479)
(-0.034822005704 -2.64637120347e-11 -7.86394694312)
(-0.0183452325991 -2.12843096796e-11 -8.15922313913)
(-0.023835691894 -3.36537307724e-11 -8.07866330248)
(-0.0803968974783 -8.85840149262e-11 -7.52639520253)
(-0.101286785799 -1.18334196518e-10 -6.73862556894)
(-0.0902745836867 -1.02564393191e-10 -6.1907958942)
(-0.0766619302281 -1.28243021052e-10 -5.68063109017)
(-0.0591294098 -1.72422756711e-10 -5.53215952514)
(-0.0479946089843 -1.17825705779e-10 -5.4039599386)
(-0.0392157401651 -1.30372353925e-10 -5.47250683984)
(-0.0303353576876 -9.64991742469e-11 -5.59011026378)
(-0.0268053636949 -8.43792795089e-11 -5.79426096197)
(-0.0245390632017 -4.18789083844e-11 -6.03101610569)
(-0.0231490395315 2.41147776538e-11 -6.29640130139)
(-0.0248278645279 -2.89528736468e-11 -6.56131472207)
(-0.0259458416626 -1.20626909775e-11 -6.80961082154)
(-0.0275073445204 -1.26468492557e-11 -7.02055662427)
(-0.0299902442316 -1.09019707146e-11 -7.17700132556)
(-0.0304186426677 -4.57199662595e-12 -7.26741535072)
(-0.0325965287743 4.89033082625e-12 -7.284920215)
(-0.0332730412256 -6.78484961079e-11 -7.22775442235)
(-0.031731442803 -7.70911211117e-11 -7.10105090186)
(-0.026869266965 -1.54928141729e-11 -6.92688507041)
(-0.0178742647128 -1.30580067868e-11 -6.75834198558)
(-0.00555328868896 1.16278902613e-10 -6.70500645621)
(-0.479106721144 -1.46214664395e-11 1.13613973345)
(-0.125519592208 -7.04909802951e-12 1.79767889266)
(0.0679188236115 -1.23784750474e-11 1.89006233757)
(0.16214697369 -6.11943766134e-12 1.64584528051)
(0.150859641156 -2.03910184234e-12 1.43278902431)
(0.138751048814 -1.81532343687e-12 1.21101305658)
(0.0808768538805 -8.00822443861e-12 1.00263225503)
(0.125804267145 -1.16458785106e-10 -14.616511986)
(0.214187910519 -7.40362956543e-11 -14.1067279654)
(0.276910201995 -7.2910421009e-11 -13.3606234306)
(0.332120271354 -7.77978740055e-11 -12.3657939895)
(0.306062222752 -6.06554206129e-11 -11.1193964178)
(0.148017702605 -5.42447464936e-11 -9.68862849099)
(-0.0212808090638 -5.76297880464e-11 -8.17522065605)
(-0.269138154165 -6.94283336144e-11 -6.69796286218)
(-0.540299867809 -7.6833504585e-11 -5.29818328116)
(-0.792600849866 -3.25150709999e-11 -4.05426875797)
(-1.05984452707 -8.28881526775e-12 -2.92140825101)
(-1.36860661484 -6.67738139693e-12 -1.70878737671)
(-1.40857746127 -2.64439308968e-11 -0.346693499729)
(-1.06805198265 -1.20577736021e-11 0.840343413144)
(-0.570307200749 -2.84315064741e-12 1.42310396598)
(-0.222418530158 -1.09227939638e-11 1.50899999881)
(-0.0801639988248 -5.74631127072e-12 1.35181338484)
(0.0414499700688 -2.28773967583e-12 1.19149861136)
(0.0668122883138 -1.01864681878e-11 1.01757661398)
(0.0582084533157 -7.99350053903e-12 0.838754093707)
(-0.307505582446 -1.75588616061e-10 -13.7263877579)
(-0.444879342585 -2.12681207376e-10 -13.0797241167)
(-0.62267270623 -8.28332949652e-11 -12.1965531967)
(-0.824530768629 -1.05007605979e-10 -11.0958765107)
(-1.01038684897 -7.04103852694e-11 -9.80638979497)
(-1.18127366944 -6.17717109577e-11 -8.38549068775)
(-1.34224914943 -6.55370787001e-11 -6.93861324532)
(-1.49065468764 -7.41009012928e-11 -5.61374598902)
(-1.60239739995 -4.85138348966e-11 -4.4435725366)
(-1.6754535152 -3.02609827085e-11 -3.43674417458)
(-1.69769694153 -2.10019173759e-12 -2.48959881858)
(-1.6713320492 -1.79531561831e-11 -1.49197150451)
(-1.51263169411 -1.76038348975e-11 -0.420329673098)
(-1.12664291442 -1.14298867549e-11 0.457561263448)
(-0.721945616307 -5.65453338265e-12 0.964363633199)
(-0.393461301274 -9.29875326322e-12 1.04928790666)
(-0.133139505721 -4.26101161047e-12 1.01587003464)
(0.0166856974864 -2.48928280499e-12 0.9198961675)
(0.0905852374022 -8.45056936178e-12 0.820023822191)
(0.0695641695309 -8.47134654287e-12 0.67692280736)
(-0.54806083935 -1.67350238116e-10 -11.9146551806)
(-0.791964149047 -2.04292633252e-10 -11.2694582262)
(-1.02246947175 -1.21383823292e-10 -10.4189626551)
(-1.23694333415 -7.19840595663e-11 -9.37385316024)
(-1.41899537004 -7.02446886498e-11 -8.17455293992)
(-1.56771217383 -6.08375971565e-11 -6.91439552948)
(-1.67448931871 -6.09235731069e-11 -5.71740147943)
(-1.74614670446 -8.01203399726e-11 -4.67203932457)
(-1.78136988898 -4.72224222243e-11 -3.78611616367)
(-1.77639570116 -4.56252116209e-11 -3.01693252088)
(-1.7353923657 -1.52991525185e-11 -2.28294253866)
(-1.58589567538 -2.24841514318e-11 -1.54436386586)
(-1.28932234559 -2.06300207945e-11 -0.808395330804)
(-0.90443489314 -1.08331724349e-11 -0.198894786588)
(-0.507158268289 -2.04529784142e-12 0.124116891724)
(-0.218816247339 -6.51258458262e-12 0.28566517774)
(-0.0301403846869 8.114291587e-12 0.354828210398)
(0.125387820729 -1.71701228179e-12 0.468331677316)
(0.158459040121 -8.43915869487e-12 0.491464057855)
(0.115230561698 -1.50841243762e-11 0.462274644026)
(-0.61722172141 -1.58557047435e-10 -9.85670588832)
(-0.880591890995 -1.78343169067e-10 -9.27992223477)
(-1.11834863667 -1.24344481132e-10 -8.52913629376)
(-1.33237253604 -1.18492928842e-10 -7.63115563572)
(-1.51248356895 -7.3699332766e-11 -6.64022715774)
(-1.66871521992 -5.31031899288e-11 -5.63789536821)
(-1.73911020094 -3.00780138926e-11 -4.70082328424)
(-1.72322629779 -4.78717765622e-11 -3.90483449316)
(-1.68649542073 -3.06587555554e-11 -3.23411592585)
(-1.5827164938 -4.11021414376e-11 -2.64569541921)
(-1.38232408247 -9.8777942158e-12 -2.09570107062)
(-1.13145620411 -3.30098517503e-11 -1.56692556392)
(-0.883655540118 -3.43542083392e-11 -1.06722230784)
(-0.570593927753 -1.11634311042e-11 -0.676057324483)
(-0.227538804273 1.34252966504e-11 -0.447389117254)
(0.116572602847 -3.58043004515e-12 -0.319332500639)
(0.432086974224 3.55577738073e-12 -0.150735265863)
(0.49998338261 2.67756510644e-14 0.0657861364847)
(0.406194179422 -5.6735520716e-12 0.238234357692)
(0.22954751959 -1.21331624007e-11 0.356492329669)
(-0.496981981251 -1.61804830898e-10 -8.08764610145)
(-0.694909044703 -1.08381060667e-10 -7.60408912137)
(-0.865719261369 -9.29939943052e-11 -6.98969001985)
(-1.00580426327 -8.33624524756e-11 -6.28255813741)
(-1.09501266437 -7.26728834371e-11 -5.5405820501)
(-1.09430326522 -6.32499435525e-11 -4.81970258263)
(-1.06352401901 -5.60907561935e-11 -4.16260179849)
(-1.01867613014 -5.01638838596e-11 -3.60710949208)
(-0.912679286679 -4.08090263953e-11 -3.14016083505)
(-0.756098379418 -3.20083031157e-11 -2.72012718858)
(-0.617857734077 -1.49609840439e-11 -2.3423343494)
(-0.471667230119 -8.62094138638e-12 -1.98211159709)
(-0.262926739699 -3.57318263812e-11 -1.65296884976)
(-0.0379317268021 -1.67848934507e-11 -1.33465976215)
(0.232186011069 -6.84542357172e-13 -1.09486961739)
(0.471517632611 -1.0195108818e-12 -0.842134755983)
(0.655432968354 4.35203797094e-12 -0.590565256877)
(0.694969340336 2.18563853269e-12 -0.277404438263)
(0.555196636293 6.82149394967e-12 0.0559745370722)
(0.289062518396 -1.00651620814e-11 0.372315033644)
(-0.338657458289 -5.68115445279e-11 -7.03076141466)
(-0.487401726776 -7.23613353067e-11 -6.61102722025)
(-0.600132864723 -8.11071647923e-11 -6.07476947394)
(-0.652533473035 -7.97173884425e-11 -5.46912687567)
(-0.616508143184 -7.17282914765e-11 -4.86894955942)
(-0.537211729073 -6.26798503419e-11 -4.33051432367)
(-0.431128006957 -5.21397151838e-11 -3.90036846476)
(-0.290791817595 -4.42627567372e-11 -3.56045842223)
(-0.157740937207 -3.55593670634e-11 -3.28607892902)
(-0.0572973518113 -2.96803587328e-11 -3.03779548031)
(0.0460171801336 -1.7106121835e-11 -2.80603703708)
(0.168699609262 -1.26648362011e-11 -2.55630229319)
(0.297456740377 -1.97579644457e-11 -2.2972214191)
(0.439647425505 -1.56038603295e-11 -2.04040789419)
(0.594550030758 -4.02668521322e-12 -1.7719356668)
(0.733682830982 2.35901117639e-13 -1.49113224602)
(0.864645945538 5.94342090929e-12 -1.11593890047)
(0.834547553981 4.24509079788e-12 -0.643393061308)
(0.653208449699 1.37319280107e-11 -0.0368974330708)
(0.320432546983 -7.35286724369e-12 0.545623592561)
(-0.0393009825871 -4.09545498498e-11 -7.72469746236)
(-0.0374447930597 -5.95925360411e-11 -7.43828057544)
(-0.0318187290885 -7.99433651233e-11 -7.04942108483)
(-0.018225073068 -8.48108771489e-11 -6.58707650238)
(0.0119111817288 -7.83108605954e-11 -6.11315506514)
(0.0581059076364 -7.24218194862e-11 -5.68296030859)
(0.124285751894 -5.39510021015e-11 -5.31144232536)
(0.179050749746 -4.05446820251e-11 -4.98766613452)
(0.218808446175 -2.85786227581e-11 -4.68323136247)
(0.258319694933 -2.10270095389e-11 -4.38014849084)
(0.293087660757 -1.18579020413e-11 -4.05755643852)
(0.322033460363 -8.11068062333e-12 -3.73342005221)
(0.347651384215 -1.37271022515e-11 -3.40237093591)
(0.371452827509 -1.00156148729e-11 -3.07482244002)
(0.404039479932 -2.8434976051e-12 -2.731300154)
(0.4378513118 2.58520079455e-12 -2.34881591724)
(0.477324499298 1.32274196933e-11 -1.8346729638)
(0.492989006075 6.44236293405e-12 -1.11793855233)
(0.408100207161 1.02066099966e-11 -0.15755958512)
(0.183306623295 -6.42157844977e-12 0.780211739721)
(-0.0138324563346 -3.98020084252e-11 -8.06768636726)
(0.00404036328898 -5.89583250864e-11 -7.86970173758)
(0.031815650544 -1.00691978994e-10 -7.59365789655)
(0.0645131241848 -1.08157774867e-10 -7.2630547012)
(0.102528556363 -9.55620570022e-11 -6.89966920948)
(0.148203193249 -9.58182891166e-11 -6.52588957292)
(0.205397687015 -6.05801234198e-11 -6.14968543227)
(0.267210877045 -3.89169585249e-11 -5.76852379524)
(0.316397540774 -2.00126618773e-11 -5.37653230495)
(0.343293198803 -9.98107241215e-12 -4.98757464087)
(0.339377321216 -7.1662198502e-13 -4.61458459807)
(0.313314803383 -1.23467935911e-12 -4.27456150908)
(0.284876321502 -1.23990631749e-11 -3.95561553698)
(0.270574781548 -4.09810637918e-12 -3.65690672814)
(0.275338129706 1.08375749297e-12 -3.35926149442)
(0.287812093833 7.01053533525e-12 -3.01916645671)
(0.318249592946 3.03754270998e-11 -2.51275627648)
(0.24637359285 8.82800777527e-12 -1.69233574029)
(0.153403761327 1.12330624105e-11 -0.471593297482)
(0.0366598580828 -6.38958316475e-12 0.756106090953)
(-0.0343287728116 -5.88726373793e-11 -8.00499505104)
(-0.0466095188076 -5.847094174e-11 -7.83643596687)
(-0.0517508948539 -1.438407075e-10 -7.59853179453)
(-0.047902679787 -1.42135565621e-10 -7.30199384809)
(-0.0358786267699 -1.1175914812e-10 -6.95928299972)
(-0.0278417857935 -1.24345767945e-10 -6.58342389761)
(-0.0394536813246 -6.07845857841e-11 -6.18547550671)
(-0.0808889657344 -3.32825904211e-11 -5.77335242008)
(-0.13780412184 -5.28300376592e-12 -5.37234044471)
(-0.198397718216 4.06915815209e-12 -4.99965225252)
(-0.26105860206 1.55277599468e-11 -4.67011064993)
(-0.301980968093 8.89310507069e-12 -4.37739485853)
(-0.313407755343 -1.1055277602e-11 -4.11458908761)
(-0.319075996466 3.65310401579e-12 -3.86896684054)
(-0.319809007282 6.18277001777e-12 -3.6255324857)
(-0.313619473831 1.22363751687e-11 -3.32342022255)
(-0.308665128841 3.08219209732e-11 -2.8563707135)
(-0.313848917807 8.38901733241e-12 -2.06428357762)
(-0.316422130339 1.41384816422e-11 -0.788939798547)
(-0.199968542246 -6.17627020678e-12 0.450224165828)
(-0.12052448631 -1.0408649269e-10 -7.46144439593)
(-0.177042977309 -1.38702576068e-10 -7.31475175694)
(-0.233459300093 -1.37526877998e-10 -7.11109093275)
(-0.291019988579 -1.70506748262e-10 -6.85720053472)
(-0.346711478621 -1.12610992081e-10 -6.56438816039)
(-0.400837551497 -9.53994764944e-11 -6.24955821056)
(-0.450779602681 -4.87458675243e-11 -5.92803398268)
(-0.492672733396 -2.26270169134e-11 -5.60956386325)
(-0.519749210256 1.57578137435e-11 -5.3076977177)
(-0.528110876847 1.88556683151e-11 -5.02886460353)
(-0.514085189786 3.50792228954e-11 -4.77426529732)
(-0.488383833759 2.81312130798e-11 -4.53981305439)
(-0.472352692638 2.68518679084e-11 -4.32548546695)
(-0.473018892439 1.5750286432e-11 -4.1185453934)
(-0.482627077989 9.87468478472e-12 -3.89112226268)
(-0.506350933932 1.31370401819e-11 -3.59470952503)
(-0.559355709044 1.82374795269e-11 -3.1401008453)
(-0.592531917401 5.2910256706e-12 -2.37179860632)
(-0.529961612679 -1.07754547976e-12 -1.24620953006)
(-0.321069567333 -5.54934158236e-12 -0.147947290893)
(-0.148628322416 -1.26418332328e-10 -6.68562899718)
(-0.216029150762 -1.72704360092e-10 -6.56951309156)
(-0.28382762078 -1.34183522947e-10 -6.4122522302)
(-0.353145911682 -1.21315419722e-10 -6.21851699216)
(-0.420031035415 -1.01655859996e-10 -5.99728317428)
(-0.483599833287 -9.53526012145e-11 -5.76151161962)
(-0.542977076421 -3.68208831043e-11 -5.52163623579)
(-0.596285105624 -1.72089656367e-11 -5.2839585209)
(-0.642446557564 3.69007495706e-11 -5.05499453135)
(-0.682610396922 2.65460339656e-11 -4.83952477562)
(-0.718363488842 3.36210933769e-11 -4.63937725373)
(-0.750959906904 4.32886415614e-11 -4.45607128925)
(-0.775616596541 2.13490215757e-11 -4.28519831388)
(-0.792351179235 2.71236275084e-11 -4.11329239245)
(-0.812573214505 1.1353410398e-11 -3.91565509435)
(-0.850733215933 1.1200404246e-11 -3.65294816842)
(-0.878141573492 1.22608928116e-11 -3.25973248496)
(-0.862019231156 3.25612727144e-12 -2.62879242873)
(-0.723653772986 4.22307895063e-13 -1.76693676663)
(-0.405366001492 -3.88471862831e-12 -0.98265396772)
(-0.132293559002 -1.24609506271e-10 -6.15235545805)
(-0.191605236244 -1.32323558768e-10 -6.06876855825)
(-0.251880683527 -1.24179944179e-10 -5.95741169289)
(-0.312993206402 -1.05198369772e-10 -5.82173142779)
(-0.37259826208 -7.77700278948e-11 -5.66772942998)
(-0.430060467312 -4.99044267267e-11 -5.50306026797)
(-0.485700938891 -2.0114924273e-11 -5.3353685024)
(-0.538637765194 4.37971536778e-12 -5.16922266244)
(-0.587850540328 3.14004691991e-11 -5.00723276636)
(-0.633636964751 2.92361463749e-11 -4.84920740894)
(-0.676160192606 3.22166125136e-11 -4.69337645562)
(-0.717536533387 3.02514518633e-11 -4.53744687651)
(-0.760005794132 1.92135325478e-11 -4.37894043881)
(-0.804325643986 1.73187343722e-11 -4.21154165757)
(-0.851342268176 1.04669359562e-11 -4.02247992185)
(-0.906814457479 6.5570635163e-12 -3.78563135617)
(-0.933708193027 8.34736717712e-12 -3.45595272537)
(-0.894129235511 1.786465818e-12 -2.99166789276)
(-0.729895855742 -5.05937577114e-13 -2.41106401568)
(-0.380806121398 -2.10838023233e-12 -1.96279445421)
(-0.110873890372 -1.45560026325e-10 -5.65144266276)
(-0.159528288361 -1.32831930945e-10 -5.58438496511)
(-0.210992160459 -1.19258879631e-10 -5.49478026113)
(-0.265015446381 -9.05891112866e-11 -5.38634180402)
(-0.321026049411 -5.82565316566e-11 -5.26447262843)
(-0.378530090808 -2.58920561979e-11 -5.13590263834)
(-0.437308140609 -1.31794576174e-11 -5.0067127227)
(-0.496973409702 3.26870397477e-12 -4.88029167902)
(-0.557595971091 3.45137712206e-11 -4.75711726822)
(-0.618987391653 2.94886152161e-11 -4.63574600279)
(-0.681828232878 3.22927613832e-11 -4.51376155564)
(-0.749331467115 3.09923566385e-11 -4.39125581628)
(-0.81729794474 1.43508126941e-11 -4.26619038681)
(-0.88253617284 1.57426640108e-11 -4.13559874728)
(-0.945566747306 1.08282268869e-11 -3.99317593926)
(-0.994002909805 1.94510424482e-13 -3.82811494942)
(-0.991299376807 7.49281376414e-12 -3.613161858)
(-0.916585717179 1.16411549457e-12 -3.34752852848)
(-0.726096246046 -2.99461675769e-13 -3.05878919995)
(-0.362048402098 -1.80820901618e-13 -2.93591170214)
(-0.0858141956096 -1.96580416725e-10 -5.50795819486)
(-0.124124954764 -1.46518597741e-10 -5.44800431517)
(-0.165268937001 -1.31274820177e-10 -5.36707250047)
(-0.209351042954 -8.41304470493e-11 -5.26925489111)
(-0.256369377079 -4.26451740719e-11 -5.15978130478)
(-0.306450920664 1.96550962261e-12 -5.044954034)
(-0.359954914346 -1.21457512047e-11 -4.93051129533)
(-0.416998468775 -1.49553172776e-11 -4.81968664645)
(-0.478320267034 8.25126648642e-12 -4.71255670418)
(-0.542914774993 2.56803242148e-11 -4.6069099945)
(-0.614728313162 3.30886949596e-11 -4.50078758761)
(-0.691221624706 3.78087295958e-11 -4.39492891177)
(-0.766035238088 5.25881565864e-12 -4.28909222605)
(-0.838284520501 1.58609122139e-11 -4.18711938752)
(-0.905453632002 1.78002038365e-11 -4.09053437398)
(-0.941469353087 6.19427305924e-12 -3.99865707382)
(-0.92336815051 1.05397168065e-11 -3.90489988796)
(-0.831693788914 4.10279359449e-13 -3.8290492942)
(-0.642169778783 2.43523881121e-13 -3.79574486601)
(-0.296303625856 1.51035835096e-12 -3.93497965618)
(-0.0699922859764 -1.62242537916e-10 -5.38154979896)
(-0.10168931874 -1.56105818176e-10 -5.32266935336)
(-0.136161941505 -1.67448122071e-10 -5.24214795559)
(-0.173892381126 -8.93573476235e-11 -5.14427360172)
(-0.215232532681 -4.0698755305e-11 -5.03428511776)
(-0.260748999385 -7.36198609694e-12 -4.91874192967)
(-0.311063441873 -9.0388768722e-12 -4.80397367681)
(-0.366856714642 -1.68795840425e-12 -4.69422896811)
(-0.428578961741 1.23343466304e-11 -4.59069464859)
(-0.496525219963 1.71090544632e-11 -4.4919957404)
(-0.574104965862 3.08122725554e-11 -4.39836321432)
(-0.655035872562 3.10193448776e-11 -4.31055548601)
(-0.733944247354 1.39245663728e-11 -4.23480445508)
(-0.809314663059 1.491877479e-11 -4.17945391368)
(-0.871716626908 1.32011808356e-11 -4.15322327213)
(-0.89249968648 5.18120266874e-12 -4.16057978701)
(-0.861979945559 4.08162723969e-12 -4.21184016086)
(-0.759913224633 -3.1090911433e-12 -4.32385127249)
(-0.57918464606 3.0200226277e-13 -4.52301545477)
(-0.252384123508 2.74938099904e-12 -4.85389268574)
(-0.0577158386408 -2.18651049017e-10 -5.45029017949)
(-0.0847789866101 -1.58950099372e-10 -5.38937467053)
(-0.114162859917 -1.28555674101e-10 -5.30477323569)
(-0.146400653705 -9.52026668919e-11 -5.2007715977)
(-0.182071820834 -3.90768973197e-11 -5.08249023513)
(-0.222037273753 7.64940313666e-12 -4.95667792063)
(-0.266937388691 -9.03995851153e-12 -4.8304117023)
(-0.317779479697 -3.70977794555e-12 -4.70945927664)
(-0.374869158489 4.83770061261e-12 -4.5969987626)
(-0.441116349547 -9.54746415277e-13 -4.49427330884)
(-0.51501199208 3.1288141761e-11 -4.40298887176)
(-0.591147517419 4.14816377291e-11 -4.32768101017)
(-0.666715213723 1.62601303974e-11 -4.28003227929)
(-0.736855085731 1.47793101265e-11 -4.27327465854)
(-0.786584230293 1.49328183637e-11 -4.3205405016)
(-0.794741975482 3.21098295229e-12 -4.43156126927)
(-0.754646193026 4.42528127968e-13 -4.62342142355)
(-0.652648016425 -1.08690185614e-11 -4.90563646242)
(-0.47358098655 -5.25823159078e-13 -5.2948344303)
(-0.199043516594 3.21642092989e-12 -5.76596851389)
(-0.0458979624886 -1.322319125e-10 -5.56679055735)
(-0.0685762147943 -1.5591246124e-10 -5.50219583712)
(-0.0932949131671 -1.34606333399e-10 -5.41149481569)
(-0.121052967595 -1.26926567776e-10 -5.29864703913)
(-0.152397914099 -5.17678604787e-11 -5.16851349075)
(-0.188155690644 -1.89384473059e-11 -5.02789766108)
(-0.228892615226 -1.83912235592e-11 -4.88459368951)
(-0.275945217928 -6.40448374498e-12 -4.74616269549)
(-0.331227659574 3.78579437589e-12 -4.618364038)
(-0.394620642651 1.21124183652e-11 -4.50562014177)
(-0.464200745738 2.97209490392e-11 -4.41276050508)
(-0.537299202316 3.63113782781e-11 -4.3505297357)
(-0.609409639783 1.98060453707e-11 -4.33544376044)
(-0.671762752831 1.12483488646e-11 -4.38605757511)
(-0.708336744843 3.99372913732e-13 -4.51765508899)
(-0.708394809916 -3.29199785989e-12 -4.7436833294)
(-0.665692221692 -1.4132377572e-12 -5.07746444686)
(-0.571185611802 -5.59925472169e-12 -5.5215869288)
(-0.4052214767 -1.66707476206e-12 -6.06684302076)
(-0.164425667459 2.41680662778e-12 -6.65678893472)
(-0.0400908834146 -1.2742284824e-10 -5.76940672059)
(-0.0594691192216 -1.87213383894e-10 -5.70073087885)
(-0.0807056790946 -1.30163055875e-10 -5.60363250204)
(-0.104637531534 -1.03539099694e-10 -5.4816078419)
(-0.131757584677 -5.67291798361e-11 -5.33912037916)
(-0.162984830287 -3.09683915979e-11 -5.18282875277)
(-0.199301942041 -3.79748812356e-11 -5.0209219091)
(-0.241849159624 -1.28130173926e-11 -4.86239865051)
(-0.291605063994 -8.35616564721e-14 -4.71556031693)
(-0.348878209169 1.1166091034e-11 -4.58820252355)
(-0.41270086529 2.69787104626e-11 -4.49045827655)
(-0.479873272943 4.8375143427e-11 -4.43905119011)
(-0.544652894566 2.95942678395e-11 -4.45716914662)
(-0.596135597768 1.02552526115e-11 -4.56778234494)
(-0.622661535938 -2.09381005462e-12 -4.78709161134)
(-0.619858515379 -1.73807477893e-11 -5.12731353534)
(-0.579095691958 -4.20796973709e-12 -5.59179354345)
(-0.487749657304 -5.84165220301e-12 -6.17282153803)
(-0.337135650795 -4.02255772152e-12 -6.83795119228)
(-0.133411952893 9.13262822573e-13 -7.51078085148)
(-0.0364967756705 -8.58914500049e-11 -6.00423348784)
(-0.0538481785971 -1.06525286516e-10 -5.93113138711)
(-0.0729310123865 -1.02313296281e-10 -5.82740717142)
(-0.0944608930823 -1.11930256889e-10 -5.6961251315)
(-0.118860946021 -6.16920689351e-11 -5.54136459725)
(-0.146903394414 -3.71193331758e-11 -5.36957300857)
(-0.179539557558 -3.18138761658e-11 -5.18910703173)
(-0.217814452139 -2.57032949069e-11 -5.00995224933)
(-0.262805272117 -1.01179439279e-11 -4.84278972943)
(-0.314863131412 8.36749734173e-12 -4.69941491517)
(-0.373090535698 1.18387578217e-11 -4.59548230638)
(-0.434158082086 4.09590122376e-11 -4.55543363223)
(-0.490570082495 2.2816709388e-11 -4.61054721688)
(-0.530920336542 1.01154216337e-11 -4.78730881017)
(-0.550715553 -6.41186347557e-12 -5.10027235527)
(-0.544665667257 -1.94168873955e-11 -5.55350469457)
(-0.501490280414 -5.4975153647e-12 -6.1379466134)
(-0.411247567173 -6.59748298655e-12 -6.83751232175)
(-0.280337908908 -8.42895299402e-12 -7.60187813564)
(-0.112458509167 -1.08907249775e-12 -8.33998147831)
(-0.0347434758272 -5.58814660588e-11 -6.26770584807)
(-0.0513937295689 -5.82439457594e-11 -6.19043750211)
(-0.0696074002572 -4.85396700365e-11 -6.08061843106)
(-0.0900300217615 -5.34688895383e-11 -5.94092346421)
(-0.112964873828 -5.56340584929e-11 -5.77510218172)
(-0.139080989169 -4.17239671341e-11 -5.58935540594)
(-0.169119200063 -3.97497134555e-11 -5.39204649136)
(-0.203944908751 -5.46499362247e-11 -5.19384076012)
(-0.244546227721 -3.25297474957e-11 -5.00738562134)
(-0.291077872761 1.15208093072e-11 -4.84815912511)
(-0.343096696192 1.9775870566e-11 -4.73807257154)
(-0.39647238712 5.17697479744e-11 -4.71092715779)
(-0.441941654283 2.16084998954e-11 -4.80662219311)
(-0.473077259189 1.65425084039e-11 -5.05482393319)
(-0.488491578518 9.50973041441e-12 -5.46229866975)
(-0.475413916826 -8.9572699622e-12 -6.02145661249)
(-0.43137713842 -3.11002659922e-12 -6.71366191729)
(-0.342190642151 -7.43984617377e-12 -7.51384102258)
(-0.229010595207 -1.48058390176e-11 -8.36132664149)
(-0.0932626186851 -3.31918429353e-12 -9.15030550609)
(-0.0360784122061 -9.32546454582e-11 -6.5308218004)
(-0.0522962743191 -1.41376882021e-11 -6.44980698337)
(-0.0702286214264 -1.0252598177e-10 -6.33466097824)
(-0.0902666992799 -1.02783432232e-10 -6.18777492089)
(-0.112620790921 -6.11442540422e-11 -6.01266345492)
(-0.137814505934 -4.35828771328e-11 -5.81531848112)
(-0.166387067391 -3.65548930022e-11 -5.60404243499)
(-0.199029009886 -2.75946744175e-11 -5.38994330179)
(-0.236472492012 -1.41912517822e-11 -5.18731120336)
(-0.278622722632 2.49075560374e-11 -5.01515534389)
(-0.325420613422 8.79245850294e-12 -4.90220375258)
(-0.369520316122 4.77295751959e-11 -4.89260388351)
(-0.405637824218 1.07718582045e-11 -5.03607244988)
(-0.428967810188 3.01040850368e-12 -5.36077997102)
(-0.436568626146 9.95138437404e-13 -5.86191609729)
(-0.41642047576 -5.40179664666e-12 -6.5186012914)
(-0.369316349363 2.74120003271e-12 -7.30720767026)
(-0.282862931567 -7.18840631202e-12 -8.18964363677)
(-0.184682621424 -1.35185537756e-11 -9.10936538996)
(-0.0750405916377 -5.39300831891e-12 -9.94034721747)
(-0.0376999048665 -1.49224049886e-11 -6.77781805024)
(-0.0545606565242 1.07546127643e-11 -6.69378684018)
(-0.0730999045485 -5.18512992403e-11 -6.57436612807)
(-0.0936497487281 -6.65567760531e-11 -6.42185969602)
(-0.116324215536 -5.55887029459e-11 -6.23971120852)
(-0.141526365278 -4.17175900771e-11 -6.03378617977)
(-0.169570576192 -2.91998493842e-11 -5.81241906503)
(-0.200990940077 -3.36216562027e-13 -5.587114193)
(-0.236051899443 -9.37541869868e-12 -5.37349322467)
(-0.2747535418 1.490088098e-11 -5.19396267341)
(-0.315778684861 1.76598519046e-11 -5.08455715194)
(-0.351518507003 3.60840916752e-11 -5.10054274637)
(-0.377410610163 1.48502239959e-11 -5.30073336251)
(-0.392765481671 5.44271544402e-12 -5.70503318531)
(-0.390638556142 -2.70753377747e-12 -6.2954032742)
(-0.36272901246 -5.67669185949e-12 -7.04016828091)
(-0.307957204262 -3.67447511692e-12 -7.90990122422)
(-0.229507696193 -8.27313168088e-12 -8.86361043697)