/*--------------------------------*- C++ -*----------------------------------*\
  =========                 |
  \\      /  F ield         | OpenFOAM: The Open Source CFD Toolbox
   \\    /   O peration     | Website:  https://openfoam.org
    \\  /    A nd           | Version:  7
     \\/     M anipulation  |
\*---------------------------------------------------------------------------*/
FoamFile
{
    version     2.0;
    format      ascii;
    class       volScalarField;
    location    "0.08";
    object      alphat;
}
// * * * * * * * * * * * * * * * * * * * * * * * * * * * * * * * * * * * * * //

dimensions      [1 -1 -1 0 0 0 0];

internalField   nonuniform List<scalar> 
814
(
0.000211167193518
0.000130668976827
1.69989237802e-05
0.000173661327288
0.000107779450925
1.47172728798e-05
0.000158498338799
0.000101759569623
1.41230389968e-05
0.00013446640102
9.65128386639e-05
2.77744865188e-05
0.000120819412688
9.36340129141e-05
4.5965826777e-05
0.000110705675244
9.3372390141e-05
6.2816176403e-05
0.000105222750729
9.77235061698e-05
8.03263094801e-05
0.000105901039761
0.000105870099044
9.76497252011e-05
0.000111717335835
0.000117013829532
0.000114316314057
0.000122248386986
0.000130712671732
0.000131102105145
0.000137096957124
0.000146935244388
0.000149429057515
0.000156202387105
0.00016603976198
0.00017064445633
0.000179123814141
0.000188364742007
0.000195244267425
0.00020549600825
0.000213763023939
0.000222706810379
0.000234696611466
0.000242242309769
0.000252481547927
0.000266105190789
0.00027283705772
0.000283314635312
0.000297800076201
0.000303602305265
0.000312864749509
0.000325408683463
0.000329389367813
0.000335718256456
0.000338332848093
0.000339583235844
0.000341373281908
0.000320986691748
0.000319951815918
0.00031667214985
0.000272664675266
0.000269881739598
0.000264036534555
0.000220376408555
0.000218745831028
0.000215286635798
0.000216018014989
0.000216720819621
0.000218892815711
0.000250728147389
0.000252684589248
0.000256433990087
0.000261512276696
0.000261426560337
0.000262202524028
0.000247197336121
0.000246805517418
0.000245071963787
0.00023330765273
0.000231494177405
0.000228752595073
0.000219637952884
0.000218602681493
0.000215650368839
0.000214383040036
0.000212731402554
0.00021027389226
0.00021577498486
0.000215139071811
0.00021312413189
0.000239250136683
0.000237862977692
0.000236408837075
0.00026893954074
0.000268991816793
0.000268160900632
0.000444234848177
4.80197757486e-05
5.95516908329e-05
7.25923414276e-05
8.61270119892e-05
0.000101296869214
0.000119123518244
0.000140520489629
0.000165880694021
0.000194961142956
0.00022680592832
0.000259970281834
0.000292482130789
0.000321386063639
0.00034108280731
0.000341013223763
0.000310565099505
0.000255435990406
0.000211284608258
0.000222889688834
0.000261717835445
0.000262861530967
0.000242809451272
0.000224676391256
0.000211907074333
0.000206632832088
0.000210660083634
0.000234168137389
0.000267413122799
3.27885697037e-05
0.000181184591874
0.000258656465762
0.00029467348925
0.000317787799713
0.000340597165546
0.000365601016832
0.000391822765036
0.000418249939417
0.000442160763594
0.000461603557093
0.000474903699507
0.000480906292571
0.000479811309621
0.00047188278646
0.000460716877259
0.000446895799887
0.000434734450986
0.000405268101253
0.000119088228272
4.93498946451e-05
0.000130059154362
0.0002205304587
0.000281397227392
0.000324265939932
0.000358434564107
0.000387363813601
0.000414796084157
0.000440426382359
0.000463655152307
0.000481715195364
0.000493916668651
0.000498240532183
0.000495656281128
0.00048532522842
0.000472396658603
0.000455915547668
0.00044181759907
0.000399865773736
0.000120920430424
7.75631260527e-05
3.53297898131e-05
8.19762183763e-05
0.000184550318422
0.000263462023784
0.0003255533705
0.000372664093151
0.000411871901239
0.000444026029804
0.000469852330147
0.000488519551491
0.000500506890054
0.000504448681751
0.000501386055528
0.000490657361948
0.000477059828559
0.000460206583378
0.000445321757298
0.000395885812601
0.000122523829385
7.89801642037e-05
1.03112472939e-05
1.84482984086e-05
4.91298994219e-05
0.000102698324171
0.000196949438006
0.000286741447784
0.000364293880175
0.000424985809989
0.00046712852886
0.000492616699888
0.000506412162794
0.000510599532887
0.000507188502487
0.000496183061876
0.000481919411279
0.000464763433425
0.000449051231767
0.000392993025384
0.000137572821446
1.18843340947e-05
4.9631030975e-06
6.08824723402e-06
1.13072673987e-05
2.71390999024e-05
6.57742875602e-05
0.000137060651668
0.000244620982266
0.000357765521841
0.000443947834878
0.000491784598864
0.000513257754452
0.000519171793859
0.00051551679561
0.000503757350681
0.000488499593592
0.000470451300061
0.00045361956827
0.000389658924723
0.000143338184772
1.63419163636e-05
8.95305034743e-06
6.97323759458e-06
6.07921546493e-06
9.31659070534e-06
2.21038604158e-05
6.42686706938e-05
0.000157247184721
0.000285141022207
0.00040443453716
0.000480872362146
0.000517495054953
0.000528547835769
0.000525636095153
0.000512979570059
0.000496549748058
0.00047716298238
0.000458982296094
0.000387372712151
0.000148200791078
2.64832990078e-05
1.53129448291e-05
1.02258439297e-05
5.82758218886e-06
5.52026960395e-06
1.0933170881e-05
3.85167037796e-05
0.000112847515972
0.000232334704243
0.00036054524304
0.000458639494027
0.000514809726167
0.000535864114233
0.00053587456651
0.000522841201259
0.000505228607215
0.00048429959257
0.000464281740069
0.000385023126917
0.000153607674037
4.12248864605e-05
2.44228493209e-05
1.49113191658e-05
7.00338195847e-06
4.94316849476e-06
8.19422498645e-06
2.91662712231e-05
8.90610097559e-05
0.000192605589211
0.000316170860813
0.000427309835189
0.000503172658582
0.000538806218282
0.00054493818052
0.000532750948128
0.000514131213628
0.000491583653315
0.000469213489035
0.00038128902122
0.000159694207646
6.11116722303e-05
3.78333247278e-05
2.24923696098e-05
1.03040844233e-05
5.77874741705e-06
7.23863034504e-06
2.24928988133e-05
6.92388748527e-05
0.000156683042568
0.000272199211401
0.000390531271517
0.000483467048775
0.000536140238618
0.000552015541311
0.000542576471713
0.000523396686034
0.00049917278618
0.000474141858059
0.000376466892985
0.000164708637666
8.65111844424e-05
5.72217106664e-05
3.46990774057e-05
1.63854749238e-05
7.48660277113e-06
6.6791348471e-06
1.56318773845e-05
4.94308992604e-05
0.000122536678784
0.000230135582594
0.00035133736177
0.000457576275623
0.000527345037014
0.000556233013041
0.000552112278562
0.00053322984011
0.000507318496861
0.000479432529144
0.000371645462282
0.000168307316944
0.000117264021284
8.33820304549e-05
5.24020525929e-05
2.50638493683e-05
9.81081757973e-06
6.99923110658e-06
1.08753855485e-05
3.294822973e-05
9.22339336215e-05
0.000191212661545
0.000311541750255
0.000427142280875
0.00051250308458
0.000556455930753
0.000560701880139
0.000543559942933
0.000516134481001
0.000485162389978
0.000367538470201
0.000170959433741
0.000152224174859
0.00011541267159
7.50704284182e-05
3.57936668633e-05
1.30253242086e-05
8.4322957035e-06
9.12268711734e-06
2.26574965191e-05
6.84553536602e-05
0.000156481100704
0.000272562258109
0.000393409413275
0.000492173682464
0.000551717093195
0.000567292284782
0.000554002035194
0.000525599953263
0.000491237032617
0.000364003699215
0.000173152460362
0.000189822183689
0.000151907512613
0.000102077981735
4.8755177738e-05
1.73680986909e-05
1.09713472387e-05
9.99461022693e-06
1.8212371942e-05
5.20976651993e-05
0.000126925200869
0.000235457773641
0.000357624140704
0.000467128581823
0.000541688983166
0.000570710674903
0.00056392791957
0.000535600273648
0.000497543414494
0.000360393307081
0.000175068480008
0.000228861331394
0.000191530767286
0.000132833868439
6.3989255284e-05
2.22552886692e-05
1.49754686301e-05
1.38129315521e-05
1.84066157407e-05
4.25453137032e-05
0.000103031856487
0.000200937440639
0.000320638055506
0.000437818097928
0.000526319928412
0.000569946473785
0.000572486988931
0.00054590825898
0.000504008064758
0.000356511747133
0.000176780356466
0.000267664550486
0.000232793308253
0.000166873568795
8.19802210809e-05
2.81173038916e-05
2.08675538914e-05
2.17945477981e-05
2.2606243913e-05
3.76978765952e-05
8.32243474584e-05
0.000168105070463
0.000282064222058
0.000403766488162
0.000505235135814
0.000564194228226
0.000578665241399
0.000556124334541
0.00051058519471
0.000352818931811
0.000178367209525
0.000303076800253
0.000271257160727
0.000200042165966
0.000100654305871
3.54135538242e-05
2.76308523698e-05
3.36420130467e-05
3.06263480366e-05
3.5278786057e-05
6.41034266032e-05
0.000132423688697
0.000238244510531
0.000362440200835
0.0004765552712
0.000552295593111
0.000581254887973
0.000565634487184
0.000517233399654
0.000349717200995
0.000179908373873
0.000330260124342
0.000297186016333
0.000220425643751
0.000113340637194
4.49072786622e-05
3.70786067395e-05
4.6818823176e-05
4.37596246283e-05
3.79384081462e-05
4.73279852315e-05
9.14789135315e-05
0.000182836767153
0.000307926488296
0.000436194105541
0.000532086659678
0.000578891782842
0.00057358425639
0.000523872386138
0.000347575120419
0.000181460836237
0.000343486336444
0.000303372794043
0.000219635498993
0.000114079804831
5.6126055478e-05
5.66899206653e-05
6.49998753887e-05
6.16890935097e-05
5.08401725219e-05
4.26390391281e-05
5.76666904417e-05
0.000119302111519
0.000235454942096
0.00037825225722
0.000499755290548
0.000569926863199
0.00057898259494
0.000530342359418
0.000346672854795
0.000183078142107
0.00033295361205
0.000282572816443
0.000195935812199
0.000108554894309
7.87179238346e-05
9.10746190248e-05
9.54993876365e-05
8.66158126198e-05
7.20444138092e-05
5.36075141471e-05
4.55640281544e-05
7.07089963653e-05
0.000155816902836
0.000301141163551
0.000451997681471
0.000552548291155
0.000580913760991
0.000536355769387
0.000347126103249
0.000184830451283
0.000292063966121
0.000237406816045
0.00016588577308
0.000120476249136
0.000125204793748
0.00013570027405
0.000131591107413
0.000118217261817
9.61073811561e-05
7.36273078357e-05
5.14138047695e-05
4.98957770406e-05
9.56981842011e-05
0.00021913862649
0.000391014134225
0.000526514811197
0.000578897307621
0.000541548122774
0.000348894307645
0.000186782028653
0.000235233502955
0.000196097194829
0.000165978935533
0.000169292511065
0.00018288816224
0.000178498839853
0.000161825167694
0.000142661071543
0.000119918016621
9.27341895667e-05
6.54451408904e-05
4.7645908363e-05
6.49034903628e-05
0.000155146999237
0.000329789473326
0.000496358731005
0.000573607980741
0.000545495487277
0.000351745876597
0.000188965105698
0.000204591565034
0.00020170042997
0.00021517626775
0.000231871835955
0.000228388628306
0.000204323577411
0.000173656050529
0.000148304902513
0.000127663039579
0.000103438846074
7.79208567798e-05
5.23578238156e-05
5.36464860135e-05
0.00011980098887
0.000285931269034
0.000470653638872
0.000566657982682
0.000547796030816
0.000355335416418
0.000191378935318
0.000233916401373
0.000254999756011
0.000271601563113
0.000268438032447
0.000241115720188
0.000199859186915
0.000160669234532
0.000132777613175
0.000116533744747
0.000104752143148
8.40408082286e-05
5.59150807035e-05
5.13902029012e-05
0.00011009748881
0.000271718697694
0.000457585161464
0.000559297989745
0.000547639523152
0.000359192181466
0.000193984776583
0.000272314995467
0.000282225738387
0.00027698896918
0.000251676172577
0.000210571910514
0.000165229128688
0.000129047202535
0.000105574513301
9.89771024518e-05
9.8053317951e-05
8.130045535e-05
5.45074437601e-05
5.44598909163e-05
0.000123801305723
0.000284681566993
0.000453387478045
0.000548707658495
0.000543502547007
0.000363048552434
0.000196715001596
0.000263401987365
0.00025654344369
0.00023648919542
0.000204480458034
0.000166480834103
0.000130990018047
0.000105863118557
9.02509701591e-05
8.38197134443e-05
8.15956930503e-05
6.6367496294e-05
4.94071923348e-05
7.13659135565e-05
0.000161710195945
0.000305802126523
0.000440246645451
0.000526407044053
0.000532235073432
0.000366410062489
0.000199483169227
0.000237130351481
0.000222461480952
0.000199440189216
0.000170359132293
0.000140021483649
0.00011552203727
9.66710932368e-05
8.14881000515e-05
7.21013250509e-05
6.54967728885e-05
5.64601212912e-05
6.12610297498e-05
0.00010943631761
0.000192512786716
0.000292650877377
0.000392287514192
0.000478790312014
0.000508139221705
0.000368992659821
0.000202341958116
0.00021644257494
0.000199718454843
0.000177808769215
0.000153563429786
0.000131196478574
0.000115129338175
9.60979860682e-05
8.11684903527e-05
7.28177774875e-05
6.86827541929e-05
6.89367088065e-05
8.60940302278e-05
0.000122981119581
0.000167092192794
0.00022454468062
0.000301611037152
0.00039506914624
0.000461506717255
0.00036797431802
0.000205264577468
0.000203639441309
0.000187689529858
0.000168315028068
0.000148956279508
0.000134921522342
0.000124336106593
0.000104633175446
9.04438555445e-05
8.35423963384e-05
8.16906782973e-05
8.418007382e-05
9.33557252412e-05
0.000105089782417
0.000117999138188
0.000143665167326
0.000194663318516
0.000281141189973
0.000381513098521
0.00035728576653
0.000208508611667
0.000199329657378
0.000185585099322
0.000169156458067
0.000153054539707
0.000141701061825
0.000134693616919
0.000118865440166
0.00010557194187
9.74951188173e-05
9.38208752333e-05
9.38243812049e-05
9.68058301372e-05
9.80133010697e-05
9.68690968561e-05
9.95539836447e-05
0.000118393798819
0.000173507930353
0.000276556443461
0.000327451495786
0.000211403437374
0.000205048970289
0.00019465313532
0.000182252329856
0.000169685857039
0.000159346027579
0.000149960154596
0.000139388478682
0.000129379387369
0.000121108252778
0.000115036024186
0.000111419832635
0.000110041243844
0.000108380380426
0.000104309057283
9.71548274814e-05
9.1829543439e-05
0.000108779559976
0.000178830649091
0.000272991402642
0.000213143274736
0.000230232434959
0.000223262310826
0.000214898152827
0.000205847771482
0.000196848627782
0.000187524101501
0.000176911249408
0.000165600965612
0.000155690282927
0.000146729165456
0.000138391769085
0.0001312447886
0.000126075910377
0.000122561168858
0.000115975434613
0.000100067666282
8.90523419706e-05
0.000118604411871
0.000210222583978
0.000211409447429
0.000265345310524
0.000261021602331
0.000255153220264
0.000247747317465
0.000238738189269
0.00022799883123
0.000214886903927
0.000199348153153
0.000182950967538
0.000168382665681
0.000154603352913
0.000142956128521
0.000135622323786
0.000236610830602
0.000123383311519
0.000179152144408
0.000160573018236
0.000179203426562
0.000181430209924
0.000177040699548
0.000178878963933
0.000174969600303
0.000169569332216
0.000172557678008
0.000158093380522
0.000170264902594
0.000146519348749
0.000167841835822
0.000135478698863
0.000165332319542
0.000125161801153
0.000162666972183
0.000115607269672
0.000159860471952
0.000106815683441
0.000156968147059
9.87643237155e-05
0.00015406476888
9.14255922692e-05
0.000151206249703
8.47668761626e-05
0.000148443526512
7.87531740202e-05
0.000145841885777
7.33561301597e-05
0.000143465264591
6.85415053589e-05
0.000141353346153
6.42768982631e-05
0.000139513173735
6.05412731706e-05
0.000137947139322
5.7331432049e-05
0.000136596963323
5.46458390031e-05
0.000135447658525
5.25231100254e-05
0.000134460028093
5.09597350192e-05
0.000133695010674
4.99976073504e-05
0.000133288233187
4.96078308059e-05
0.000133334228384
4.97610747845e-05
0.000134044949898
5.03402900132e-05
0.000135161866198
5.12126417153e-05
)
;

boundaryField
{
    inletfuel
    {
        type            calculated;
        value           nonuniform List<scalar> 3(0.000868248047317 0.000868170555975 0.000868313822006);
    }
    inletair
    {
        type            calculated;
        value           nonuniform List<scalar> 
20
(
0.00041402198491
0.000414020180517
0.000414018291699
0.000414015201244
0.000414012174051
0.000414008454341
0.000414004824803
0.000414000736643
0.000413996497011
0.000413991957475
0.000413987309141
0.000413982765697
0.000413978736432
0.000413975514906
0.000413973001387
0.000413971250788
0.000413969907899
0.000413969857594
0.000413968248016
0.000413968646532
)
;
    }
    outlet
    {
        type            calculated;
        value           nonuniform 0();
    }
    axis
    {
        type            empty;
    }
    leftside
    {
        type            compressible::alphatWallFunction;
        Prt             0.85;
        value           nonuniform List<scalar> 
33
(
0
0
6.51751569097e-06
6.92397428666e-06
7.22972817991e-06
0
0
0
0
0
0
0
0
0
0
0
0
0
0
0
0
0
0
0
0
0
0
0
0
0
0
0
0
)
;
    }
    burnerwall
    {
        type            compressible::alphatWallFunction;
        Prt             0.85;
        value           uniform 0;
    }
    front
    {
        type            wedge;
    }
    back
    {
        type            wedge;
    }
    procBoundary0to1
    {
        type            processor;
        value           nonuniform List<scalar> 
27
(
0.000254246341818
0.000252823322334
0.000252380409478
0.000251340430056
0.000133692606618
0.000132346514157
0.000117941485117
9.33988693585e-05
9.61249991339e-05
0.000165280359613
0.000206552334062
0.000250185733872
0.000247757366554
0.000243708954425
0.000237484044287
0.000228474229468
0.000216394640774
0.000201809513018
0.00018609699281
0.000168983963141
0.000152136908033
0.000137316189706
0.000126608800528
0.000133692606618
0.000122364250116
0.00013614355411
5.20436739155e-05
)
;
    }
}


// ************************************************************************* //
