/*--------------------------------*- C++ -*----------------------------------*\
  =========                 |
  \\      /  F ield         | OpenFOAM: The Open Source CFD Toolbox
   \\    /   O peration     | Website:  https://openfoam.org
    \\  /    A nd           | Version:  7
     \\/     M anipulation  |
\*---------------------------------------------------------------------------*/
FoamFile
{
    version     2.0;
    format      ascii;
    class       volScalarField;
    location    "0.08";
    object      dQ;
}
// * * * * * * * * * * * * * * * * * * * * * * * * * * * * * * * * * * * * * //

dimensions      [1 2 -3 0 0 0 0];

internalField   nonuniform List<scalar> 
814
(
8.88934432326e-10
2.72664746961e-09
3.21756657288e-09
9.99271677171e-08
4.3383644207e-07
1.38059298858e-06
3.25913753148e-06
2.18427020009e-05
0.000311069307545
0.000120588329935
0.00162849080822
0.0622408709496
0.000474806999005
0.00618732998515
0.113106252413
0.000598291038534
0.00583670104737
0.0516659789053
0.000603427248005
0.00446483350777
0.0232061809072
0.000516358971056
0.00299189391541
0.0105535913033
0.000391650737573
0.00184022286542
0.00489969799783
0.00026978291479
0.00107219601156
0.00234154004201
0.000172101246597
0.000604244751559
0.00116294853853
0.000103680586696
0.000335501808463
0.000607842759677
6.01620423812e-05
0.000187361272489
0.000339384817099
3.45136739518e-05
0.000107482667834
0.00020339971542
2.00883595622e-05
6.41933915274e-05
0.000128424998144
1.21470819852e-05
4.00621120426e-05
8.37090529691e-05
7.845271742e-06
2.66021914507e-05
5.72833696941e-05
5.66097216543e-06
1.95462417834e-05
4.29097738622e-05
4.73730793436e-06
1.64266161305e-05
3.61677238714e-05
4.53163978218e-06
1.56011334285e-05
3.3854676359e-05
4.97917115219e-06
1.69321193802e-05
3.60801746439e-05
7.81544119966e-06
2.62230279668e-05
5.44110900221e-05
2.09064961285e-05
6.77343301501e-05
0.00013174545041
5.72854524113e-05
0.000182206276082
0.000341835518859
0.000133526562382
0.000424885325449
0.000804072227701
0.00025398705183
0.000822499101038
0.00159896031087
0.000368943216773
0.00118982311964
0.00230954274742
0.000433413828525
0.00138917683107
0.00264327505357
0.000460613956213
0.00145555162971
0.00271371621534
0.000447137830222
0.00140303665737
0.00255990204852
0.000521846309307
0.00159878573599
0.00280464236617
0.00124926064494
0.00376881275052
0.00634362798994
0.00982491540157
0.328459362348
0.116775859811
0.0429754839682
0.0170116363497
0.00720827326296
0.00327010975031
0.00159946830998
0.000856050213268
0.00050591818868
0.000323336301227
0.000212091161882
0.000139396497412
9.56427364157e-05
7.1928535511e-05
6.03804261806e-05
5.56908668369e-05
5.83053164401e-05
8.52442270768e-05
0.000191148956384
0.000477260968692
0.00113822766036
0.00234393579618
0.0033653184361
0.00376188292815
0.00375431979044
0.00345987690231
0.00360212232
0.00773305408699
3.42255274984e-05
1.4573235159e-05
1.29723925679e-05
1.01269468314e-05
6.80408796509e-06
4.05617052108e-06
2.13898396357e-06
7.53765965365e-07
2.3815021574e-07
6.89628623543e-08
1.8135520415e-08
4.29549142989e-09
9.0050591089e-10
1.64530060643e-10
2.54455454497e-11
3.26203813218e-12
3.33783237708e-13
2.63307004172e-14
1.56085301779e-15
1.27737561776e-16
0.00241563390314
0.000916967009796
0.000532728978874
0.000287994187996
0.000139719568109
6.28753414197e-05
1.98907910191e-05
5.62074175499e-06
1.49755137652e-06
3.7606581505e-07
8.79503583136e-08
1.88998440006e-08
3.66113639802e-09
6.28457700845e-10
9.25508689009e-11
1.1439814745e-11
1.13475703734e-12
8.7560848919e-14
5.1195965378e-15
3.81965985002e-16
0.0171204652579
0.0219143170473
0.00761310690251
0.00217357032503
0.000749452304297
0.000226142457768
6.19157036428e-05
1.59697675489e-05
3.89872254522e-06
9.16744137724e-07
2.03215755561e-07
4.1608368962e-08
7.740496068e-09
1.28660847796e-09
1.84907683441e-10
2.24435898031e-11
2.19531917931e-12
1.68602074714e-13
9.79087649189e-15
6.58974217473e-16
0.151411818932
0.178895190985
0.0398447466082
0.0145754582603
0.00613395974063
0.00168213543916
0.000429502788897
8.67334830454e-05
1.72310474898e-05
3.64562740452e-06
7.72486533385e-07
1.53056939909e-07
2.77579937821e-08
4.5366329006e-09
6.47117256163e-10
7.84773135308e-11
7.71307526757e-12
6.01948614754e-13
3.59991034402e-14
3.36949970676e-15
1.11886270491
1.0417262713
0.308921126777
0.0680642972085
0.0225193918187
0.00910648105185
0.00280147204965
0.000562821009017
8.53447126381e-05
1.29302973851e-05
2.57720898381e-06
5.0902922763e-07
9.24916936945e-08
1.52071275861e-08
2.19599788435e-09
2.7106657359e-10
2.72291805893e-11
2.19826076339e-12
1.41089384612e-13
1.9059126208e-14
0.48265321022
0.69176014934
0.831135044464
0.2237273145
0.0549931791149
0.0219927108017
0.00769977461389
0.00165369049576
0.000265795976173
3.74287118607e-05
6.98347140979e-06
1.45922766139e-06
2.78276082763e-07
4.75670299659e-08
7.12369645157e-09
9.12236168627e-10
9.51644838827e-11
8.04389382133e-12
5.63077708585e-13
9.80478599829e-14
0.168035162651
0.274907918105
0.543437375988
0.419812831269
0.084747068425
0.0282849921121
0.0107621643966
0.00261952473961
0.000506017309049
8.57809484114e-05
1.58045559603e-05
3.57431143358e-06
7.38342422211e-07
1.34710373929e-07
2.13656104458e-08
2.8849204644e-09
3.16717986646e-10
2.82329422273e-11
2.16251068159e-12
4.42279738794e-13
0.0660175726915
0.123114042597
0.293778910991
0.685721572653
0.113449844343
0.0284045769937
0.0109294289979
0.00307791451617
0.000751269984459
0.000164301091032
3.3358331326e-05
7.59898278219e-06
1.73245874023e-06
3.42587140339e-07
5.83170653652e-08
8.39768010186e-09
9.79654995802e-10
9.25287481429e-11
7.73827831797e-12
1.70065921304e-12
0.0284949812378
0.0626532271358
0.189599758688
0.775166646929
0.183586308764
0.0336130309438
0.0118257583797
0.00359894354702
0.00104054617162
0.000281586592088
6.56201459226e-05
1.47392789644e-05
3.6527161971e-06
7.86929689168e-07
1.44711542389e-07
2.2369250233e-08
2.7899903513e-09
2.80221089406e-10
2.54639320811e-11
5.64642065121e-12
0.0135902468377
0.0363710371611
0.132519394483
0.585952376048
0.315084210809
0.0494827634228
0.016058540828
0.00487663811878
0.00145514811705
0.000442946651092
0.000118452258846
2.79115039858e-05
6.96078225757e-06
1.65170094784e-06
3.29012552829e-07
5.47091067581e-08
7.31727284881e-09
7.83605231841e-10
7.69942904065e-11
1.66115652931e-11
0.00722961269908
0.0231323265127
0.0918673662724
0.40474814253
0.521452931647
0.0813581548898
0.0241553529248
0.00750386720048
0.0021091820127
0.000654438008152
0.000196672949276
5.06373440833e-05
1.24701052655e-05
3.20928409845e-06
6.91307158791e-07
1.23571584967e-07
1.7738313783e-08
2.02941688466e-09
2.14872719025e-10
4.4469481423e-11
0.00431985035543
0.015793520527
0.0644465105454
0.274600586793
0.960491342765
0.14464181031
0.0359128588635
0.0115592414112
0.00307906079263
0.000922482898943
0.000301335070694
8.65619382911e-05
2.20552113873e-05
5.75059438186e-06
1.35134660671e-06
2.59444434371e-07
3.99432074882e-08
4.8887370902e-09
5.56961870803e-10
1.10411797112e-10
0.00285004334885
0.0113166775164
0.0468749850457
0.201294195527
0.928314781877
0.226114335539
0.0485351111906
0.0156118402529
0.00420020671628
0.00123256553016
0.000428700436806
0.000138733723551
3.77708943339e-05
9.76645800806e-06
2.47699433259e-06
5.09617302761e-07
8.40063431282e-08
1.10088583988e-08
1.35095983724e-09
2.58107796872e-10
0.00198303900162
0.00822800236757
0.0347080109361
0.154997332863
0.754478350643
0.306154134282
0.057615107473
0.0174813721927
0.0050135269435
0.00154014142478
0.000571963358972
0.000208536770354
6.23131770816e-05
1.63729371777e-05
4.25250781949e-06
9.43817151487e-07
1.66186317315e-07
2.33106471914e-08
3.08628277849e-09
5.73762597881e-10
0.00134905512425
0.00558195454305
0.0232048559472
0.104961683319
0.54818150743
0.419800804194
0.0766868135815
0.0218446099157
0.00636285934126
0.00201077855268
0.000766281685503
0.000303972853138
0.000100456984144
2.72813197435e-05
7.00764058328e-06
1.66405763275e-06
3.11654678383e-07
4.67020952784e-08
6.67027049384e-09
1.2168566674e-09
0.00087759394666
0.0034877031098
0.0138584067038
0.0609776325601
0.326672089357
0.688833120129
0.162883716601
0.0551361049441
0.016114918746
0.00431591741641
0.00133249922705
0.000486896312432
0.000167888005783
4.69891620855e-05
1.15936601367e-05
2.82962226477e-06
5.60541546027e-07
8.91911558387e-08
1.36949232871e-08
2.47063972414e-09
0.000601181338956
0.00231934168617
0.00907944254662
0.040307872692
0.214870425879
0.938606302059
0.462807682293
0.199650479347
0.0703821910993
0.0183679322269
0.00421014788005
0.00110502802159
0.000331853472181
8.97464533142e-05
2.05781190849e-05
4.71003744131e-06
9.76582945501e-07
1.63394242934e-07
2.67841089266e-08
4.80942832748e-09
0.000455396452734
0.00174739752044
0.00688399011437
0.0303557712031
0.139404607988
0.455908906806
1.28912139142
0.681019438904
0.295473249371
0.0914272827
0.0208121311241
0.00403626444318
0.000879773493622
0.000203926203791
4.12144216519e-05
8.01176090371e-06
1.66846355189e-06
2.88549179896e-07
4.99541724716e-08
8.97533249081e-09
0.000382051526126
0.00144817652027
0.00561174277123
0.022620797723
0.0759484594943
0.20396968451
0.577623538606
1.70601362723
0.997184701835
0.359033315484
0.0942013644572
0.0183190989401
0.0030680177273
0.00054803673119
9.35613542159e-05
1.47040015256e-05
2.75728402326e-06
4.89440000604e-07
8.86311100497e-08
1.60223602435e-08
0.000346718848196
0.00127360687042
0.00459583771804
0.0146370206263
0.0367822263582
0.0909677032072
0.23934456965
0.706232269445
2.41172298667
0.998632440667
0.30538020286
0.0684622104347
0.0110995329366
0.00156477256593
0.000220129474108
2.82025720378e-05
4.40219743557e-06
7.88992207869e-07
1.48856251271e-07
2.72930868506e-08
0.000354827572584
0.00122464034396
0.00374411319623
0.00943560573448
0.0220269157287
0.0508974177812
0.12137581828
0.330941427338
1.14133526448
1.81035701198
0.626619424268
0.168043367704
0.0309978904279
0.00398008540747
0.000464649121655
5.11443185593e-05
6.63347138594e-06
1.19554284625e-06
2.36247409119e-07
4.4447247252e-08
0.000490289263741
0.00148246252438
0.00394694883538
0.00993759960454
0.0244952385084
0.0578915661857
0.129666299725
0.287407400169
0.771651247306
2.11460163052
0.800501353876
0.248801605121
0.0546144343922
0.00714760741683
0.000755379211775
7.72558555676e-05
9.06326767826e-06
1.69353642036e-06
3.57636709739e-07
7.01450566272e-08
0.000983162551347
0.00265699161771
0.00700974110711
0.0184697214454
0.0473954851948
0.114825603366
0.252345063684
0.499795285686
1.02218921067
1.67491800038
0.70824925484
0.241120876603
0.0575785976292
0.0078174305006
0.000818459595284
8.71780256902e-05
1.11703907689e-05
2.29281945363e-06
5.35066380734e-07
1.1094712287e-07
0.00235614951095
0.00626458923834
0.0167159857945
0.0446320416555
0.116406793107
0.288910109115
0.649149889396
1.35949361362
1.62811371323
0.922508593717
0.459046133298
0.163862246886
0.0377707997676
0.00508017869029
0.000606993943446
8.03402025629e-05
1.37440813273e-05
3.28485841587e-06
8.55572056426e-07
1.87145681487e-07
0.00581812013966
0.0166628712312
0.047661250012
0.13325152192
0.354016457643
0.898740891984
1.53164828805
0.846142309239
0.546136461404
0.372525113919
0.207774338433
0.0685828218115
0.0140543032129
0.00218929211212
0.000387771203729
8.26725120071e-05
2.09079506177e-05
5.75076418582e-06
1.60048976794e-06
3.60214402528e-07
0.0125091159922
0.0372930720288
0.108277691075
0.302503598612
0.809719147497
1.11901241973
0.525956351603
0.257935309105
0.152771447037
0.107241222336
0.0649525581324
0.0188476789357
0.00433354116854
0.00116426502505
0.000397746191183
0.000148373798532
4.73595387549e-05
1.32993998795e-05
3.66254108373e-06
8.28416388448e-07
0.0177723818853
0.0517627228577
0.146988485647
0.409508992117
1.11208617338
0.503141064855
0.20046586278
0.0865377711935
0.0462691744184
0.030333504396
0.0191624006223
0.00841513704496
0.00371428087479
0.00188690047628
0.000943176827124
0.000428740291258
0.000152375912129
3.86385649847e-05
9.69667282262e-06
2.17580918403e-06
0.0191680769052
0.052850233018
0.142772059404
0.387901581029
0.746815847709
0.319125151008
0.125829162124
0.0606291270045
0.0380795998007
0.0285215620018
0.022023296634
0.0162437801036
0.0103813085844
0.0063418761718
0.00338970221698
0.00154124709371
0.000566588576271
0.000137955246449
2.84178127099e-05
6.19062338905e-06
0.0184079898131
0.0477993837117
0.121710908706
0.311312445423
0.767670498805
0.400016015377
0.207041144978
0.122982557453
0.0873817745353
0.0696124104413
0.0574130553925
0.0467641420971
0.0343016780507
0.022518969489
0.0127151311344
0.00590940721946
0.0021471286957
0.000536592179888
8.90568467065e-05
1.68447806091e-05
0.0162824316245
0.0394133760196
0.0931002650627
0.217565222243
0.514798975161
0.815956542184
0.53773495698
0.372862228789
0.271795206076
0.206134586097
0.161401695379
0.127893533834
0.0973961047792
0.0676929781099
0.0405100200377
0.0198742546337
0.00759594915513
0.00194119932026
0.000291160761691
4.57870644635e-05
0.0155389397721
0.0327643922005
0.0674570187611
0.13750384842
0.279750235949
0.566779945551
1.04494514655
1.04274910256
0.73303917222
0.519271347964
0.37688491343
0.280211094786
0.209534024698
0.151898114262
0.0999191165942
0.0542917226006
0.0224055991921
0.00596492280357
0.00084259172617
0.000107680946916
0.0298667593839
0.0518144353339
0.0854333003866
0.138315700137
0.223193887986
0.360823505104
0.575288631889
0.906044070159
1.24989124387
0.873056534969
0.607143777131
0.425055709392
0.301297311741
5.99233202343e-16
1.45307921785e-15
4.62547945816e-15
3.80249670488e-15
2.13111997246e-14
1.00724092321e-14
8.00741675021e-14
2.76274863566e-14
2.4638136782e-13
7.02861147049e-14
6.53391693999e-13
1.65764196094e-13
1.55974242936e-12
3.62626633031e-13
3.47470044639e-12
7.55839053479e-13
7.37209430613e-12
1.52388292416e-12
1.51304265059e-11
3.01157047646e-12
3.03262605722e-11
5.87573900133e-12
5.96310752601e-11
1.13500068852e-11
1.1521105843e-10
2.17304951029e-11
2.18356553598e-10
4.11377040146e-11
4.04278453987e-10
7.65400286178e-11
7.26906166284e-10
1.39162557807e-10
1.26215573896e-09
2.46348785832e-10
2.12262253545e-09
4.26559860229e-10
3.50666640383e-09
7.33733416663e-10
5.88522573793e-09
1.29795813109e-09
1.05910582644e-08
2.47982810186e-09
2.17431342633e-08
5.38213915811e-09
5.25198384799e-08
1.33881325209e-08
1.43827007748e-07
3.67073083102e-08
4.21687188364e-07
1.04467269877e-07
1.17601318642e-06
2.84579562119e-07
3.14617753641e-06
7.26889359056e-07
7.12997632056e-06
1.56226558153e-06
)
;

boundaryField
{
    inletfuel
    {
        type            zeroGradient;
    }
    inletair
    {
        type            zeroGradient;
    }
    outlet
    {
        type            zeroGradient;
    }
    axis
    {
        type            empty;
    }
    leftside
    {
        type            zeroGradient;
    }
    burnerwall
    {
        type            zeroGradient;
    }
    front
    {
        type            wedge;
    }
    back
    {
        type            wedge;
    }
    procBoundary0to1
    {
        type            processor;
        value           nonuniform List<scalar> 
27
(
0.00366156971447
0.0109338967641
0.0182343817309
0.0218640366039
0.212575316989
0.143756583062
0.086696901143
0.0407700794577
0.0122352685096
0.00175596022852
0.000189429525874
0.0819176524535
0.13385771126
0.203447859558
0.298274094622
0.430746506485
0.627009493209
0.958763954474
1.01265167383
0.819426650229
0.633447765846
0.476995959379
0.357202733218
0.212575316989
0.268850454022
1.18411722413e-05
2.52505445122e-06
)
;
    }
}


// ************************************************************************* //
