/*--------------------------------*- C++ -*----------------------------------*\
  =========                 |
  \\      /  F ield         | OpenFOAM: The Open Source CFD Toolbox
   \\    /   O peration     | Website:  https://openfoam.org
    \\  /    A nd           | Version:  7
     \\/     M anipulation  |
\*---------------------------------------------------------------------------*/
FoamFile
{
    version     2.0;
    format      ascii;
    class       volScalarField;
    location    "0.08";
    object      ed::R_H2O;
}
// * * * * * * * * * * * * * * * * * * * * * * * * * * * * * * * * * * * * * //

dimensions      [1 -3 -1 0 0 0 0];

internalField   nonuniform List<scalar> 
814
(
7.90822918435e-07
8.08569249149e-07
5.72488630804e-07
0.000140561275731
0.000203416807614
0.000388398562037
0.00724863015486
0.0161934000005
0.138369041472
0.249279815529
1.1220711597
25.7093129361
0.94388840953
4.0991815639
44.8765872789
1.14371714987
3.71783025783
19.6978918791
1.10920356787
2.73418737893
8.50256384381
0.912628851933
1.76132381369
3.71617706491
0.665521887216
1.0413524326
1.65815529474
0.440706738124
0.583169162504
0.761592742579
0.270226133764
0.315848735522
0.363531576541
0.156448561278
0.168521273887
0.182606968839
0.087225795647
0.0904238611184
0.0979828301236
0.0480718455568
0.0498369886699
0.0564354433365
0.0268767907232
0.02859589103
0.0342470980032
0.0156107512504
0.0171455521709
0.0214553058624
0.00968443958923
0.0109379333963
0.0141109988926
0.00671170228205
0.00772015656732
0.010156829716
0.00539268148074
0.00622998767383
0.00822196719061
0.00494941115254
0.00567725809728
0.00738488607036
0.00521246616153
0.00590591257153
0.00754385061731
0.00783626352953
0.00876083182678
0.0108978231447
0.0200802912144
0.0216796495216
0.0252856195015
0.0527429109429
0.0559094993752
0.062911813284
0.117890738775
0.125028086758
0.141926379816
0.215128190443
0.232190235972
0.270755573233
0.299997189381
0.322451486663
0.375441273286
0.338525623832
0.361639963587
0.412770127572
0.345727347746
0.364134693672
0.407250899037
0.32261323938
0.337407489918
0.369307192113
0.361945492907
0.369610997624
0.388982637062
0.832326166267
0.836973746276
0.845218104063
3.37367131043
107.784942266
36.8306116446
13.0326851543
4.9614973277
2.02207116966
0.882309826245
0.415043977832
0.213612777582
0.121391254158
0.074604580817
0.0470621792037
0.0297458669821
0.0196238765545
0.0141853661632
0.0114382115342
0.0101234903741
0.0101590712759
0.0142299891655
0.0305877438578
0.0732546181663
0.167573899225
0.331047013516
0.456302168706
0.490005223329
0.469981616095
0.416387256221
0.416782143685
0.859635196653
0.00136536737621
0.000363946966121
0.000221006858274
0.00012381526079
6.17252944127e-05
2.79538021466e-05
1.13960804998e-05
3.14663293895e-06
7.8729414531e-07
1.82098122509e-07
3.85201776309e-08
7.38233564119e-09
1.25847789829e-09
1.8776701839e-10
2.38001534123e-11
2.50852292606e-12
2.11614712104e-13
1.37955743844e-14
6.7725835127e-16
4.59873591236e-17
0.152289005116
0.0362008479378
0.0143488895894
0.00556702473242
0.00200402089807
0.000685109723455
0.000167554563588
3.70987870696e-05
7.8275209953e-06
1.57003880684e-06
2.95360268701e-07
5.13564781031e-08
8.08967209693e-09
1.13398159295e-09
1.36868756047e-10
1.39092527505e-11
1.13746995705e-12
7.25342309721e-14
3.51223636754e-15
2.17420257621e-16
1.69992858544
1.36448296039
0.323725672055
0.0664035779912
0.0169937209493
0.00389590062253
0.000824644937099
0.000166660155228
3.22205826852e-05
6.05150699169e-06
1.07904794324e-06
1.78766679446e-07
2.70428608084e-08
3.67066846716e-09
4.32362033227e-10
4.3146531966e-11
3.47939280986e-12
2.20833372781e-13
1.0620336536e-14
5.93079042589e-16
13.8477184396
10.2196868176
1.55968277658
0.412086036417
0.12905075951
0.0269213483657
0.00531623661197
0.000841286679971
0.0001323608269
2.2367999562e-05
3.81253922087e-06
6.11222087162e-07
9.0138856485e-08
1.20301906822e-08
1.40642211708e-09
1.40228992493e-10
1.13624889442e-11
7.32826781108e-13
3.62951426842e-14
2.81869461905e-15
96.6207524035
56.0813829085
11.4059673136
1.82374682843
0.452454178373
0.139727713702
0.033312008488
0.00524875657757
0.000630456141349
7.62979181633e-05
1.22327792268e-05
1.95497587464e-06
2.88854727113e-07
3.87827728992e-08
4.59005008516e-09
4.65824632871e-10
3.85774295087e-11
2.57379483588e-12
1.3680563968e-13
1.5333374573e-14
40.0401421512
35.6843850188
29.2456324798
5.68375208021
1.05148927629
0.322863454277
0.0878946209832
0.014823722449
0.00188807794544
0.000212397854693
3.18783730966e-05
5.3897999665e-06
8.35802943444e-07
1.1666727074e-07
1.43199750848e-08
1.50766592178e-09
1.2966565741e-10
9.05758446887e-12
5.25084685349e-13
7.58619547969e-14
13.4269518398
13.6437520098
18.3611555548
10.197419129
1.54693084189
0.397736790177
0.117963118598
0.0225688823458
0.00345616957237
0.000468126189764
6.93829870891e-05
1.26967173281e-05
2.13273152719e-06
3.17756598407e-07
4.13050094753e-08
4.58545294596e-09
4.15024145419e-10
3.05740355115e-11
1.93941079023e-12
3.29104115955e-13
5.08448281985
5.88384078766
9.54720624995
15.9913412876
1.98606913676
0.383424781748
0.115075632246
0.0254863683363
0.00493335665713
0.00086221797269
0.000140836405358
2.59598830391e-05
4.81272782035e-06
7.77168277742e-07
1.08426049219e-07
1.28368447127e-08
1.23459455178e-09
9.6366009767e-11
6.67431060619e-12
1.21703722907e-12
2.11540899778
2.8845596683
5.93008135113
17.3790517828
3.08304659207
0.435372027064
0.119552781438
0.0286335479005
0.00656840565762
0.00142088610471
0.000266425712958
4.84249955029e-05
9.75874451962e-06
1.71684268658e-06
2.58756879573e-07
3.28852525519e-08
3.38146343103e-09
2.80671815283e-10
2.11221586094e-11
3.88606708193e-12
0.972348217219
1.61360356942
3.99060478762
12.6352066489
5.06978106768
0.613841520778
0.155702300941
0.0372615483153
0.00882812654094
0.00214894308193
0.000462478191026
8.81896190612e-05
1.78848244681e-05
3.46558359576e-06
5.65785778875e-07
7.73499937217e-08
8.52907940846e-09
7.54824914462e-10
6.1421756813e-11
1.09950749421e-11
0.498394153715
0.989080097632
2.66437354515
8.39686788996
8.04095028952
0.965605826188
0.224398408698
0.0550338148262
0.0122951393662
0.00305222256829
0.000738369384609
0.000153863755243
3.08136649923e-05
6.47594196713e-06
1.14330292964e-06
1.68023550474e-07
1.9884567486e-08
1.88005724874e-09
1.6485262143e-10
2.83074153659e-11
0.286857178174
0.650814513465
1.80051351121
5.48236741786
14.217026497
1.64346169756
0.319572912007
0.0813416257822
0.0172423007329
0.00413547052586
0.00108774232055
0.000252934572031
5.24115252552e-05
1.11597995386e-05
2.14935152557e-06
3.39270973513e-07
4.3062339491e-08
4.355593652e-09
4.10951777746e-10
6.75933638222e-11
0.182260915662
0.449415350464
1.26175832098
3.86845041914
13.2092714078
2.46340119362
0.41396643485
0.105402160635
0.0225903139576
0.00531053595029
0.00148778590872
0.000389814074213
8.63192949853e-05
1.82275395616e-05
3.78892223839e-06
6.40910248345e-07
8.70998898188e-08
9.43286920312e-09
9.58646811668e-10
1.51963768641e-10
0.122117212191
0.314899819787
0.900280800555
2.86780240924
10.3248411614
3.20210569532
0.471465073542
0.113260273877
0.0258951013172
0.00637661890501
0.00190821119249
0.00056341114796
0.000136947377269
2.9387440328e-05
6.25583201714e-06
1.14154084093e-06
1.65711102034e-07
1.9209086284e-08
2.10621494451e-09
3.24878848317e-10
0.0799967514158
0.205883141084
0.580133873864
1.87016965184
7.2149116241
4.21545319531
0.601982459059
0.135793316658
0.0315544478924
0.00799857399443
0.00245735845801
0.000789607922072
0.000212304363184
4.70911369695e-05
9.91425020191e-06
1.93562928857e-06
2.98868921752e-07
3.701174699e-08
4.37785308267e-09
6.62641763699e-10
0.0501034866827
0.123953466954
0.333917186029
1.04642480667
4.13597651827
6.63616595073
1.2239662937
0.328214867944
0.0766508590098
0.0164863900478
0.00410643147802
0.00121589969515
0.000341173640709
7.80009326233e-05
1.57744593644e-05
3.16542467546e-06
5.16970275265e-07
6.79791669642e-08
8.64426512559e-09
1.29389445829e-09
0.0330296797913
0.0793751998583
0.21068623478
0.665948312954
2.61813262958
8.68285585057
3.32423785151
1.13385746359
0.320134199087
0.0672834017825
0.0124611333376
0.00265227860894
0.000648384801859
0.000143261340475
2.69265560747e-05
5.06730129467e-06
8.6619838463e-07
1.19768219205e-07
1.62590955153e-08
2.4223270986e-09
0.0240617076704
0.0575271007275
0.153643831018
0.482378176037
1.63462250384
4.05553257331
8.87306782496
3.68735056053
1.27954942954
0.320130019813
0.0590798211381
0.00930651204461
0.001652365497
0.000313012428444
5.18628907847e-05
8.28948879965e-06
1.42323003158e-06
2.03411463977e-07
2.91636321774e-08
4.34749979884e-09
0.0193945242919
0.0458023146517
0.120291193695
0.345471020305
0.857046278342
1.74625818524
3.82174569354
8.84843858783
4.11330034712
1.19689456809
0.255821755447
0.0405360568649
0.00553726870147
0.00080876482924
0.000113219420477
1.4631200154e-05
2.26198421853e-06
3.31822392003e-07
4.97630096992e-08
7.4638851227e-09
0.0168892931875
0.0386440179196
0.0945322452656
0.214889150806
0.39963939237
0.750040029355
1.52427317306
3.52120293875
9.52647955052
3.17168288946
0.79116452303
0.145176172098
0.0192413490985
0.00221982783423
0.000256152158844
2.69881850516e-05
3.47317517055e-06
5.14433758657e-07
8.03781595037e-08
1.22275711158e-08
0.0165673865181
0.0356273998411
0.0739449173312
0.133293847897
0.23052241709
0.404223357528
0.74425952255
1.58775234347
4.33220633334
5.50229921827
1.54917496457
0.341083009297
0.0515902425272
0.00542704655031
0.000519903988223
4.70672176335e-05
5.03322652683e-06
7.49673630181e-07
1.22684148738e-07
1.91505407157e-08
0.0219420948406
0.0413879871478
0.0749453419006
0.135155256016
0.246860146885
0.442579687017
0.765057403068
1.32647233236
2.81655436394
6.16938858934
1.89464148531
0.48373775903
0.0872740736706
0.00936823583662
0.000812725702432
6.83733871528e-05
6.61360651587e-06
1.02129630597e-06
1.78613281497e-07
2.90657325039e-08
0.042213093822
0.0712610868387
0.128008508893
0.241657455514
0.459341475555
0.843790863181
1.4309271502
2.21740941619
3.58769361968
4.69967822798
1.61012202982
0.450228619034
0.088437128515
0.00985199383818
0.000846818797806
7.41995232277e-05
7.83915717271e-06
1.3297712081e-06
2.56997756765e-07
4.42127441166e-08
0.0970928467029
0.161358867271
0.293223340419
0.56077840987
1.08292356056
2.03781024191
3.5352985498
5.79883730157
5.50426381725
2.49583435767
1.00611161349
0.294796899729
0.0558377541666
0.00615864508071
0.000603992313891
6.57611047304e-05
9.27604922567e-06
1.8322005162e-06
3.9520992897e-07
7.1722820859e-08
0.23000887929
0.411756863224
0.801957370137
1.60584320479
3.16030958583
6.09038614286
8.03160072889
3.48509303469
1.78680308608
0.976531808644
0.441302113908
0.119308544232
0.0200186393128
0.00255355669253
0.000371094806013
6.5077780531e-05
1.35706756367e-05
3.08481974978e-06
7.11005520896e-07
1.3276489408e-07
0.474413310618
0.884081175382
1.74812900388
3.49989411414
6.94738780677
7.30397056489
2.66400659912
1.02879041101
0.484943808953
0.273150234138
0.133844270583
0.0316623451521
0.00594321119968
0.00130617261363
0.000366033954734
0.0001123133473
2.95616428406e-05
6.8608933272e-06
1.5647678305e-06
2.93638781912e-07
0.647108219999
1.1782642478
2.27931938777
4.55293986961
9.17720784862
3.16456245122
0.979952177861
0.333372818674
0.141889404737
0.0746444470881
0.0381053969413
0.0136015667971
0.00489628665883
0.0020344936745
0.000834347027984
0.000312027795771
9.14604834154e-05
1.91692471767e-05
3.98413930294e-06
7.41694506025e-07
0.670522660637
1.1559668011
2.1277454446
4.14550575808
5.92558967958
1.93056133571
0.591460457874
0.224414339029
0.112116417196
0.0673487809757
0.0419974609579
0.0251564608464
0.0131189343144
0.00656097987495
0.0028797425547
0.00107796780873
0.000326959560109
6.58159177057e-05
1.12289833022e-05
2.02942883383e-06
0.618919289003
1.00503970193
1.74393543752
3.1988013249
5.85402396153
2.32314179785
0.932770042868
0.435659843097
0.245919476876
0.156971367852
0.10447064701
0.069079817553
0.0413755245749
0.0222779487936
0.0103517275078
0.00396765135518
0.00119069755164
0.000246136155746
3.38407698041e-05
5.3104745978e-06
0.526349106878
0.796905188165
1.28297882662
2.15007992285
3.77404197392
4.54788947773
2.32051829158
1.26287472623
0.730262965229
0.44319594972
0.279721305936
0.179791635008
0.111740586053
0.0637453827995
0.0314752227995
0.0127791209077
0.00404405305952
0.000855859841165
0.000106388569912
1.38812518949e-05
0.482995448832
0.637126057323
0.894210675941
1.30723271527
1.97247609853
3.03556483808
4.32714037436
3.38443257489
1.88533258853
1.06768879194
0.624062995464
0.376001997066
0.229152488268
0.136156764406
0.0738696224964
0.033309111347
0.0114314865067
0.00252648177017
0.000296014420994
3.13925023105e-05
0.892062644052
0.968461609683
1.08886573954
1.26455748823
1.51349020463
1.85821567024
2.28991950676
2.82547613296
3.08693080365
1.72318804783
0.964746381459
0.547093963133
0.315806689246
2.1982336603e-15
5.22363678642e-15
1.63200756632e-14
1.31470850553e-14
7.23176677267e-14
3.34937451525e-14
2.61330237432e-13
8.83550122289e-14
7.73321885016e-13
2.1617917201e-13
1.97232548476e-12
4.9032847131e-13
4.52802540727e-12
1.03158868369e-12
9.70115227278e-12
2.06788129177e-12
1.97945684611e-11
4.00955670797e-12
3.9071029654e-11
7.62053364086e-12
7.53130831015e-11
1.42988632159e-11
1.42420135321e-10
2.6563220982e-11
2.64630161686e-10
4.89100993791e-11
4.82344036385e-10
8.90454445546e-11
8.58846655273e-10
1.59331246824e-10
1.48510178864e-09
2.78594588856e-10
2.47988554583e-09
4.74280181214e-10
4.01078669874e-09
7.89757794187e-10
6.37214657625e-09
1.30639748536e-09
1.02845286081e-08
2.22235238893e-09
1.77985707373e-08
4.08300296356e-09
3.51387582742e-08
8.52135571335e-09
8.16206335062e-08
2.03825716647e-08
2.14943146824e-07
5.3736207708e-08
6.06003300337e-07
1.47048873977e-07
1.62514696472e-06
3.85163008939e-07
4.18073721026e-06
9.45933439311e-07
9.11034862195e-06
1.95473039262e-06
)
;

boundaryField
{
    inletfuel
    {
        type            calculated;
        value           uniform 0;
    }
    inletair
    {
        type            calculated;
        value           uniform 0;
    }
    outlet
    {
        type            calculated;
        value           nonuniform 0();
    }
    axis
    {
        type            empty;
    }
    leftside
    {
        type            calculated;
        value           uniform 0;
    }
    burnerwall
    {
        type            calculated;
        value           uniform 0;
    }
    front
    {
        type            wedge;
    }
    back
    {
        type            wedge;
    }
    procBoundary0to1
    {
        type            processor;
        value           uniform 0;
    }
}


// ************************************************************************* //
