/*--------------------------------*- C++ -*----------------------------------*\
  =========                 |
  \\      /  F ield         | OpenFOAM: The Open Source CFD Toolbox
   \\    /   O peration     | Website:  https://openfoam.org
    \\  /    A nd           | Version:  7
     \\/     M anipulation  |
\*---------------------------------------------------------------------------*/
FoamFile
{
    version     2.0;
    format      ascii;
    class       volScalarField;
    location    "0.08";
    object      ed::R_O2;
}
// * * * * * * * * * * * * * * * * * * * * * * * * * * * * * * * * * * * * * //

dimensions      [1 -3 -1 0 0 0 0];

internalField   nonuniform List<scalar> 
814
(
-7.02324497002e-07
-7.18084893547e-07
-5.08423289583e-07
-0.000124831520401
-0.000180653094085
-0.000344934141841
-0.00643745952322
-0.0143812492594
-0.122884611949
-0.221383721909
-0.996503824643
-22.8322673195
-0.838260926682
-3.64045548362
-39.8545943132
-1.01572748244
-3.30177996224
-17.4935648468
-0.985076203177
-2.42821335959
-7.55106957022
-0.810499524535
-1.56421979266
-3.30031177276
-0.591045496769
-0.924818067834
-1.47259652721
-0.391388680023
-0.517908597709
-0.676365375084
-0.239986005777
-0.280503130515
-0.322849939837
-0.138940911479
-0.149662606075
-0.162172016705
-0.0774646404717
-0.0803048208348
-0.0870178901966
-0.0426922816266
-0.0442598933133
-0.0501199363731
-0.0238690964635
-0.0253958178446
-0.0304146166205
-0.0138638028365
-0.0152268491764
-0.0190543123455
-0.00860068544385
-0.00971390483472
-0.0125318828886
-0.00596061750283
-0.00685621894804
-0.00902021192751
-0.00478920403059
-0.00553281001012
-0.00730187357612
-0.00439553864352
-0.00504193460328
-0.00655846748225
-0.00462915602178
-0.00524500109878
-0.00669964282363
-0.00695933275763
-0.00778043562298
-0.00967828319093
-0.0178331711159
-0.0192535504352
-0.0224559880395
-0.0468406232734
-0.0496528490904
-0.0558715568178
-0.104697969522
-0.111036600099
-0.126043860126
-0.191053894142
-0.206206581633
-0.240456197397
-0.266425479361
-0.286366989245
-0.333426861143
-0.300642321989
-0.321170011138
-0.366578364721
-0.307038124396
-0.32338556409
-0.361676775106
-0.286510640741
-0.299649314805
-0.32797922505
-0.321441349665
-0.328249032674
-0.345452854929
-0.739183251317
-0.743310735759
-0.750632494272
-2.99613472361
-95.7230798404
-32.7090176505
-11.5742397346
-4.40627229412
-1.79578775985
-0.783573402429
-0.368597755793
-0.189708066206
-0.10780675361
-0.0662558247553
-0.0417956037522
-0.0264171037271
-0.0174278323365
-0.0125979279597
-0.0101581984729
-0.00899060348299
-0.0090222026417
-0.012637557347
-0.0271647688991
-0.0650569320354
-0.148821249031
-0.294000618637
-0.405238876677
-0.435170332043
-0.417387501588
-0.369790712264
-0.370141409157
-0.763436216908
-0.00121257355264
-0.00032321884452
-0.000196274699371
-0.000109959497542
-5.48178174154e-05
-2.48255830405e-05
-1.01207821856e-05
-2.79450347806e-06
-6.99190617403e-07
-1.61720113713e-07
-3.42095098009e-08
-6.55620246332e-09
-1.11764572864e-09
-1.66754621888e-10
-2.11367556304e-11
-2.22780228189e-12
-1.8793359774e-13
-1.22517565115e-14
-6.01468571292e-16
-4.08410632924e-17
-0.135246837722
-0.0321497287525
-0.012743152011
-0.00494403709585
-0.00177975743546
-0.000608441321944
-0.000148804077182
-3.29471824357e-05
-6.95156857198e-06
-1.39434086896e-06
-2.62307461398e-07
-4.56093416247e-08
-7.18438319621e-09
-1.00708140004e-09
-1.21552218588e-10
-1.23527135013e-11
-1.01017939265e-12
-6.44171610298e-14
-3.11919341572e-15
-1.93089463535e-16
-1.50969510478
-1.21178810892
-0.287498584693
-0.0589725694901
-0.0150920088931
-0.00345992305142
-0.000732361603529
-0.000148009759154
-2.86148820424e-05
-5.37430252078e-06
-9.5829519645e-07
-1.58761481611e-07
-2.40165821855e-08
-3.25989589421e-09
-3.83977803918e-10
-3.83181438651e-11
-3.09002527379e-12
-1.96120628075e-13
-9.43184920639e-15
-5.26709495335e-16
-12.298065295
-9.07603489529
-1.38514374838
-0.365970827983
-0.114609108623
-0.0239086678051
-0.00472131385852
-0.000747141023067
-0.000117548757135
-1.98648694608e-05
-3.38589035317e-06
-5.42822210783e-07
-8.00517101431e-08
-1.06839311592e-08
-1.24903399095e-09
-1.24536421899e-10
-1.00909497517e-11
-6.50818518828e-13
-3.22334712804e-14
-2.50326366925e-15
-85.8082381654
-49.8054976964
-10.1295625982
-1.61965725079
-0.40182150243
-0.124091239588
-0.0295841699324
-0.00466138529536
-0.000559903844505
-6.77596662251e-05
-1.08638486786e-05
-1.73620088113e-06
-2.56529933816e-07
-3.44427188866e-08
-4.07639250472e-09
-4.1369571284e-10
-3.42603548073e-11
-2.28576982451e-12
-1.21496165368e-13
-1.36174664812e-14
-35.559380034
-31.6910615195
-25.9728488414
-5.04770186569
-0.933820530306
-0.286732854902
-0.0780586197392
-0.0131648478692
-0.00167678928167
-0.000188629101388
-2.83109680162e-05
-4.78664497724e-06
-7.42270953665e-07
-1.03611415816e-07
-1.27174732346e-08
-1.33894793067e-09
-1.15155195298e-10
-8.04397964179e-12
-4.6632416553e-13
-6.73724901015e-14
-11.9243853173
-12.1169240852
-16.3064183381
-9.05625911125
-1.37381884124
-0.353227359233
-0.104762249554
-0.0200432721055
-0.0030694008733
-0.000415739709985
-6.16185626035e-05
-1.12758689754e-05
-1.89406447658e-06
-2.82197490668e-07
-3.66827001685e-08
-4.07230981643e-09
-3.6858014276e-10
-2.71525946092e-11
-1.72237763471e-12
-2.92275144424e-13
-4.51549487973
-5.22539929648
-8.47880944136
-14.2018022801
-1.76381459739
-0.340516961132
-0.102197892411
-0.022634271725
-0.00438128075449
-0.000765729962877
-0.000125075861165
-2.3054796937e-05
-4.27415109861e-06
-6.9019790275e-07
-9.62924425992e-08
-1.140031516e-08
-1.09643508978e-09
-8.5582002949e-11
-5.92741020784e-12
-1.08084254998e-12
-1.87868045511
-2.56175797499
-5.26646522884
-15.4342186059
-2.73803287251
-0.386650959132
-0.106174018395
-0.0254292606572
-0.00583335673771
-0.00126187936076
-0.000236610877707
-4.30059117105e-05
-8.66667515108e-06
-1.52471640386e-06
-2.2980023853e-07
-2.92051708655e-08
-3.00305485333e-09
-2.49262745042e-10
-1.87584465183e-11
-3.45118995037e-12
-0.86353588983
-1.43303044062
-3.54402918133
-11.2212417563
-4.50243835284
-0.545148512099
-0.13827816271
-0.0330917295997
-0.00784019960449
-0.00190846184894
-0.000410723760421
-7.83206055415e-05
-1.58833919145e-05
-3.07776140394e-06
-5.02470532019e-07
-6.86940074286e-08
-7.57461786425e-09
-6.70354912606e-10
-5.45482477215e-11
-9.76465185596e-12
-0.442620484507
-0.87839535991
-2.36621216495
-7.45720170689
-7.14111368785
-0.857548017856
-0.199286712415
-0.048875159552
-0.0109192302975
-0.002710658265
-0.000655740867593
-0.000136645362683
-2.73654079339e-05
-5.75124035818e-06
-1.01535961625e-06
-1.49220581271e-07
-1.76593501935e-08
-1.66966615506e-09
-1.46404500585e-10
-2.51396245541e-11
-0.254755924083
-0.577983977393
-1.59902389856
-4.8688535061
-12.6260452886
-1.45954724272
-0.283810546519
-0.072238948924
-0.0153127709214
-0.00367268346583
-0.000966016614264
-0.000224629486494
-4.65463218805e-05
-9.91094265847e-06
-1.90882458499e-06
-3.0130426201e-07
-3.82433730962e-08
-3.86817332866e-09
-3.64963500512e-10
-6.00292102574e-11
-0.161864689214
-0.399122739873
-1.1205590499
-3.43554471104
-11.7310647946
-2.18772997582
-0.367640797142
-0.0936069475543
-0.0200623053752
-0.00471625113936
-0.00132129262523
-0.000346191248652
-7.66595833515e-05
-1.61877548763e-05
-3.36491627041e-06
-5.69188066379e-07
-7.73528243553e-08
-8.37726748166e-09
-8.51367764024e-10
-1.34957997405e-10
-0.10845147204
-0.279660404855
-0.799533303437
-2.54687596631
-9.16942175837
-2.84376845863
-0.418704950136
-0.100585684894
-0.022997264727
-0.00566303221699
-0.00169466948251
-0.000500361638329
-0.000121622041565
-2.60987874345e-05
-5.555762197e-06
-1.01379471715e-06
-1.47166911416e-07
-1.70594598965e-08
-1.87051527845e-09
-2.88522712749e-10
-0.0710445750751
-0.182843428196
-0.515212978351
-1.66088504698
-6.4075143236
-3.74371553482
-0.534616559417
-0.120597128124
-0.0280232922283
-0.00710347958616
-0.0021823634631
-0.000701245466931
-0.00018854607221
-4.18213209485e-05
-8.8047786981e-06
-1.7190193086e-06
-2.65423472494e-07
-3.28698827284e-08
-3.88794177883e-09
-5.8848767851e-10
-0.0444965684001
-0.110082237503
-0.296549599476
-0.929322809018
-3.67313283428
-5.89353419674
-1.08699620551
-0.291485409266
-0.068073110609
-0.0146414517432
-0.00364689408342
-0.00107983231378
-0.000302994007907
-6.92721018742e-05
-1.40091909077e-05
-2.81119229244e-06
-4.59117812694e-07
-6.03718394242e-08
-7.6769135223e-09
-1.14909893657e-09
-0.0293334357222
-0.0704925793314
-0.187109023294
-0.591424202589
-2.32514591989
-7.71118568472
-2.95223320234
-1.00697116159
-0.284309021787
-0.0597539350617
-0.0110666484233
-0.00235547073372
-0.000575826166912
-0.000127229429679
-2.39132927363e-05
-4.50023608317e-06
-7.69264939858e-07
-1.06365347222e-07
-1.44395930028e-08
-2.15125234922e-09
-0.0213690402019
-0.0510894299351
-0.136450049463
-0.428396802815
-1.45169721443
-3.60169110964
-7.88011165553
-3.27471114876
-1.13635921335
-0.284305310201
-0.0524683904532
-0.00826505054192
-0.00146745464692
-0.00027798422534
-4.60590833097e-05
-7.36183906144e-06
-1.26396098639e-06
-1.80648348438e-07
-2.59000249263e-08
-3.86098523229e-09
-0.0172241461399
-0.0406767265457
-0.106829797337
-0.306810481725
-0.761137016028
-1.55084010971
-3.39406655942
-7.85823859625
-3.65299427971
-1.06295398869
-0.227193574602
-0.0359997985446
-0.00491761096557
-0.000718258586906
-0.000100549403265
-1.29938701182e-05
-2.0088529195e-06
-2.94689227038e-07
-4.41941930887e-08
-6.62862600752e-09
-0.0149992673026
-0.0343194915257
-0.0839534490705
-0.190841604653
-0.354917047401
-0.666105488432
-1.35369671846
-3.1271565671
-8.46040219946
-2.81675017006
-0.702627873737
-0.128929978721
-0.0170881122844
-0.00197141411909
-0.000227487003629
-2.39680250149e-05
-3.08450343028e-06
-4.56865149412e-07
-7.1383301024e-08
-1.08592233903e-08
-0.0147133841619
-0.0316404533677
-0.0656699820653
-0.118377366785
-0.204725402939
-0.358988035923
-0.660971859349
-1.41007214131
-3.84740320879
-4.88655480354
-1.37581183144
-0.302913518761
-0.0458169462322
-0.00481972341697
-0.000461723223374
-4.18000783477e-05
-4.4699745118e-06
-6.65780091798e-07
-1.08954964562e-07
-1.70074659724e-08
-0.019486626352
-0.0367563920795
-0.066558452374
-0.120030470774
-0.219234830516
-0.393052033296
-0.679442316683
-1.17803112668
-2.50136292313
-5.47899237214
-1.68261831714
-0.429604239295
-0.0775075158587
-0.00831986702505
-0.000721776211659
-6.07219437132e-05
-5.87349931489e-06
-9.07006357122e-07
-1.58625249927e-07
-2.58130808869e-08
-0.0374891637487
-0.0632864903167
-0.113683492884
-0.214614355419
-0.407938064579
-0.749364971277
-1.27079674549
-1.96926633835
-3.18620649212
-4.17375251854
-1.42993850879
-0.399844998201
-0.0785404170171
-0.0087494892416
-0.000752054059584
-6.58960958438e-05
-6.96190258261e-06
-1.18096083597e-06
-2.28237973436e-07
-3.92650396807e-08
-0.0862275019268
-0.143301721095
-0.260409669811
-0.498023521398
-0.961737106038
-1.80976552369
-3.13967478415
-5.14990827413
-4.88829955063
-2.21653364993
-0.893520934204
-0.261807137215
-0.0495891326548
-0.00546945113462
-0.000536401497931
-5.84019933229e-05
-8.23799671799e-06
-1.62716491385e-06
-3.50983270848e-07
-6.36965531841e-08
-0.204269333485
-0.365678491492
-0.712212928417
-1.42613851316
-2.80664961586
-5.40883083256
-7.13281040615
-3.095087605
-1.58684776253
-0.867251309141
-0.391917429239
-0.10595711298
-0.0177784184781
-0.00226779646598
-0.00032956679289
-5.77951377129e-05
-1.20520254514e-05
-2.7396076019e-06
-6.31439204894e-07
-1.17907606469e-07
-0.421323259586
-0.785146525644
-1.55250157111
-3.10823234377
-6.16992822682
-6.4866069679
-2.36588628266
-0.913661821234
-0.430675324093
-0.242582879587
-0.118866193458
-0.0281191150566
-0.00527812575873
-0.00116000308347
-0.000325072285023
-9.97447257913e-05
-2.62534955103e-05
-6.09311306322e-06
-1.38965975045e-06
-2.60778620598e-07
-0.574692443178
-1.04640852697
-2.02424816632
-4.04343517273
-8.15021635807
-2.81042655691
-0.870288915961
-0.296066150501
-0.126011022808
-0.0662912297216
-0.0338411458697
-0.0120794596824
-0.00434835913916
-0.00180682010256
-0.00074097796497
-0.000277109779708
-8.12254381011e-05
-1.70240790542e-05
-3.53828722802e-06
-6.58693885483e-07
-0.595486649896
-1.02660631503
-1.88963637028
-3.68159568785
-5.26247620565
-1.71451849387
-0.525272041173
-0.199300860034
-0.0995698334956
-0.0598119978819
-0.0372976616572
-0.0223412831096
-0.0116508370317
-0.00582676195024
-0.00255747992891
-0.000957335936276
-0.000290370578849
-5.84506723563e-05
-9.97238429197e-06
-1.80232205175e-06
-0.549658043793
-0.892568976782
-1.54877729313
-2.84083386957
-5.19891917441
-2.06316655297
-0.828386780282
-0.386906566608
-0.218399427828
-0.13940521247
-0.0927796765907
-0.0613493197844
-0.0367453241527
-0.019784895981
-0.00919329934111
-0.00352364439288
-0.0010574504602
-0.000218591858871
-3.00537592889e-05
-4.71619665263e-06
-0.467447089757
-0.707726119703
-1.13940483775
-1.90947146969
-3.35170120796
-4.03894995379
-2.06083663476
-1.12155052187
-0.648541611248
-0.393599332043
-0.248418604106
-0.159671737729
-0.0992360603935
-0.0566118442791
-0.027952932958
-0.0113490510383
-0.00359149623091
-0.000760083349177
-9.44829709769e-05
-1.23278461303e-05
-0.428944998618
-0.56582735187
-0.794142466732
-1.16094455259
-1.75174271187
-2.69586464722
-3.8429041648
-3.00569172995
-1.67435114872
-0.948207210837
-0.554226134788
-0.333924836148
-0.203508778398
-0.120919903617
-0.0656031132306
-0.029581597001
-0.0101522260214
-0.00224375141015
-0.000262888409634
-2.787946945e-05
-0.792234814106
-0.860084219906
-0.967014315089
-1.12304497144
-1.34412043696
-1.65026879659
-2.03366206046
-2.50928628599
-2.7414824146
-1.53035167636
-0.856784750792
-0.4858704566
-0.280465789501
-1.95223647896e-15
-4.63907657836e-15
-1.44937490606e-14
-1.16758375146e-14
-6.4224832673e-14
-2.97455690377e-14
-2.32085620279e-13
-7.84674900976e-14
-6.86781947328e-13
-1.91987263779e-13
-1.75160895279e-12
-4.35457406393e-13
-4.02130880687e-12
-9.16146948322e-13
-8.61552786532e-12
-1.83647142014e-12
-1.75794226668e-11
-3.56086025389e-12
-3.46987177653e-11
-6.76774449936e-12
-6.68850408528e-11
-1.26987239263e-11
-1.26482361057e-10
-2.35906172925e-11
-2.3501626074e-10
-4.34367291892e-11
-4.2836648362e-10
-7.90806583867e-11
-7.6273591863e-10
-1.41501005059e-10
-1.3189088763e-09
-2.4741797427e-10
-2.20236961777e-09
-4.21205028261e-10
-3.5619526004e-09
-7.01378567345e-10
-5.659060372e-09
-1.16020279053e-09
-9.13362045185e-09
-1.97365615908e-09
-1.58067905583e-08
-3.62608737783e-09
-3.12064940898e-08
-7.56775850274e-09
-7.24867338009e-08
-1.81016243438e-08
-1.90889558153e-07
-4.77227634273e-08
-5.38187441422e-07
-1.30593112621e-07
-1.44328205208e-06
-3.4206066897e-07
-3.71288450277e-06
-8.4007710383e-07
-8.09083913006e-06
-1.73598287021e-06
)
;

boundaryField
{
    inletfuel
    {
        type            calculated;
        value           uniform 0;
    }
    inletair
    {
        type            calculated;
        value           uniform 0;
    }
    outlet
    {
        type            calculated;
        value           nonuniform 0();
    }
    axis
    {
        type            empty;
    }
    leftside
    {
        type            calculated;
        value           uniform 0;
    }
    burnerwall
    {
        type            calculated;
        value           uniform 0;
    }
    front
    {
        type            wedge;
    }
    back
    {
        type            wedge;
    }
    procBoundary0to1
    {
        type            processor;
        value           uniform 0;
    }
}


// ************************************************************************* //
