/*--------------------------------*- C++ -*----------------------------------*\
  =========                 |
  \\      /  F ield         | OpenFOAM: The Open Source CFD Toolbox
   \\    /   O peration     | Website:  https://openfoam.org
    \\  /    A nd           | Version:  7
     \\/     M anipulation  |
\*---------------------------------------------------------------------------*/
FoamFile
{
    version     2.0;
    format      ascii;
    class       volScalarField;
    location    "0.08";
    object      ed::R_H2;
}
// * * * * * * * * * * * * * * * * * * * * * * * * * * * * * * * * * * * * * //

dimensions      [1 -3 -1 0 0 0 0];

internalField   nonuniform List<scalar> 
814
(
-8.84984214334e-08
-9.04843556012e-08
-6.40653412208e-08
-1.57297553307e-05
-2.27637135283e-05
-4.34644201957e-05
-0.000811170631637
-0.00181215074105
-0.0154844295228
-0.02789609362
-0.125567335056
-2.87704561659
-0.105627482848
-0.458726080287
-5.02199296571
-0.127989667434
-0.416050295592
-2.2043270323
-0.124127364694
-0.305974019338
-0.951494273589
-0.102129327398
-0.197104021028
-0.415865292147
-0.0744763904473
-0.116534364764
-0.185558767526
-0.0493180581011
-0.0652605647955
-0.0852273674956
-0.0302401279865
-0.035345605007
-0.0406816367041
-0.0175076497985
-0.0188586678121
-0.0204349521344
-0.0097611551753
-0.0101190402837
-0.010964939927
-0.00537956393018
-0.00557709535658
-0.00631550696338
-0.00300769425968
-0.00320007318534
-0.00383248138276
-0.00174694841392
-0.00191870299451
-0.00240099351692
-0.00108375414538
-0.00122402856158
-0.00157911600402
-0.000751084779216
-0.000863937619282
-0.00113661778848
-0.000603477450151
-0.000697177663711
-0.000920093614493
-0.000553872509021
-0.000635323494005
-0.000826418588102
-0.000583310139751
-0.000660911472746
-0.000844207793677
-0.000876930771901
-0.000980396203803
-0.00121953995374
-0.00224712009854
-0.00242609908636
-0.00282963146197
-0.00590228766952
-0.00625665028478
-0.00704025646622
-0.0131927692534
-0.013991486659
-0.0158825196902
-0.024074296301
-0.0259836543387
-0.030299375836
-0.0335717100197
-0.0360844974182
-0.0420144121423
-0.0378833018436
-0.040469952449
-0.0461917628503
-0.0386892233503
-0.0407491295812
-0.0455741239308
-0.0361025986388
-0.0377581751129
-0.0413279670633
-0.0405041432418
-0.0413619649502
-0.0435297821326
-0.0931429149501
-0.0936630105172
-0.0945856097905
-0.377536586825
-12.0618624251
-4.12159399404
-1.45844541971
-0.555225033585
-0.226283409812
-0.0987364238158
-0.0464462220395
-0.0239047113751
-0.013584500548
-0.00834875606169
-0.00526657545154
-0.00332876325498
-0.00219604421798
-0.00158743820346
-0.00128001306134
-0.00113288689114
-0.00113686863416
-0.00159243181856
-0.00342297495878
-0.00819768613086
-0.018752650194
-0.0370463948799
-0.0510632920288
-0.0548348912858
-0.0525941145073
-0.0465965439563
-0.0466407345285
-0.0961989797449
-0.000152793823566
-4.07281216014e-05
-2.47321589035e-05
-1.38557632485e-05
-6.90747699732e-06
-3.12821910616e-06
-1.27529831427e-06
-3.52129460889e-07
-8.81035279068e-08
-2.03780087962e-08
-4.31066782993e-09
-8.26133177867e-10
-1.40832169644e-10
-2.10123965017e-11
-2.66339778193e-12
-2.80720644168e-13
-2.36811143642e-14
-1.54381787291e-15
-7.57897799783e-17
-5.14629583116e-18
-0.0170421673933
-0.0040511191853
-0.0016057375784
-0.000622987636569
-0.000224263462609
-7.66684015107e-05
-1.87504864058e-05
-4.15160463388e-06
-8.75952423321e-07
-1.75697937876e-07
-3.30528073034e-08
-5.74713647841e-09
-9.05288900717e-10
-1.26900192914e-10
-1.5316537459e-11
-1.55653924924e-12
-1.27290564398e-13
-8.11706994231e-15
-3.9304295182e-16
-2.43307940862e-17
-0.190233480662
-0.152694851467
-0.0362270873624
-0.00743100850109
-0.00190171205618
-0.000435977571107
-9.22833335694e-05
-1.86503960744e-05
-3.60570064275e-06
-6.77204470904e-07
-1.20752746793e-07
-2.00051978352e-08
-3.02627862293e-09
-4.10772572944e-10
-4.83842293089e-11
-4.82838810094e-12
-3.8936753607e-13
-2.4712744706e-14
-1.18848732961e-15
-6.63695472536e-17
-1.54965314458
-1.14365192235
-0.174539028203
-0.0461152084335
-0.0144416508869
-0.00301268056057
-0.000594922753449
-9.41456569034e-05
-1.48120697659e-05
-2.5031301012e-06
-4.26648867698e-07
-6.83998763796e-08
-1.00871463418e-08
-1.34625952296e-09
-1.57388126127e-10
-1.56925705939e-11
-1.2715391925e-12
-8.20082622802e-14
-4.06167140377e-15
-3.15430949804e-16
-10.8125142381
-6.27588521211
-1.27640471545
-0.204089577639
-0.0506326759424
-0.0156364741144
-0.00372783855556
-0.000587371282211
-7.05522968439e-05
-8.53825193821e-06
-1.36893054827e-06
-2.18774993507e-07
-3.23247932971e-08
-4.34005401257e-09
-5.13657580436e-10
-5.21289200312e-11
-4.31707470142e-12
-2.88025011363e-13
-1.53094743117e-14
-1.71590809185e-15
-4.48076211722
-3.99332349932
-3.27278363834
-0.63605021452
-0.117668745981
-0.0361305993744
-0.00983600124399
-0.00165887457979
-0.00021128866377
-2.3768753305e-05
-3.56740508039e-06
-6.03154989263e-07
-9.35319897792e-08
-1.30558549237e-08
-1.6025018502e-09
-1.68717991116e-10
-1.45104621115e-11
-1.01360482708e-12
-5.87605198193e-14
-8.48946469541e-15
-1.50256652253
-1.52682792462
-2.05473721665
-1.14116001771
-0.173112000655
-0.0445094309435
-0.0132008690441
-0.00252561024038
-0.000386768699074
-5.23864797795e-05
-7.76442448567e-06
-1.42084835269e-06
-2.3866705061e-07
-3.5559107739e-08
-4.62230930672e-09
-5.13143129536e-10
-4.64440026587e-11
-3.42144090231e-12
-2.17033155521e-13
-3.68289715312e-14
-0.568987940123
-0.658441491179
-1.0683968086
-1.78953900749
-0.222254539371
-0.0429078206159
-0.0128777398351
-0.00285209661134
-0.000552075902641
-9.64880098134e-05
-1.57605441926e-05
-2.90508610208e-06
-5.38576721743e-07
-8.69703749916e-08
-1.21336066197e-08
-1.43652955267e-09
-1.38159461993e-10
-1.0784006818e-11
-7.4690039835e-13
-1.36194679097e-13
-0.236728542667
-0.322801693305
-0.663616122286
-1.94483317685
-0.345013719562
-0.0487210679322
-0.0133787630437
-0.00320428724328
-0.000735048919908
-0.000159006743953
-2.98148352512e-05
-5.41908379237e-06
-1.09206936853e-06
-1.92126282724e-07
-2.89566410424e-08
-3.68008168635e-09
-3.78408577705e-10
-3.14090702411e-11
-2.36371209107e-12
-4.34877131552e-13
-0.108812327389
-0.180573128806
-0.446575606291
-1.41396489258
-0.56734271484
-0.0686930086784
-0.0174241382307
-0.00416981871567
-0.000987926936455
-0.000240481232989
-5.17544306053e-05
-9.86901351971e-06
-2.00143255353e-06
-3.87822191822e-07
-6.33152468558e-08
-8.65598629311e-09
-9.54461544214e-10
-8.44700018567e-11
-6.87350909149e-12
-1.23042308618e-12
-0.0557736692087
-0.110684737722
-0.2981613802
-0.939666183065
-0.899836601669
-0.108057808332
-0.0251116962838
-0.0061586552742
-0.0013759090687
-0.000341564303285
-8.26285170161e-05
-1.72183925597e-05
-3.44825705835e-06
-7.24701608952e-07
-1.27943313396e-07
-1.88029692033e-08
-2.22521729249e-09
-2.10391093682e-10
-1.84481208442e-11
-3.16779081175e-12
-0.0321012540904
-0.0728305360719
-0.201489612652
-0.61351391176
-1.59098120848
-0.183914454841
-0.0357623654882
-0.00910267685817
-0.0019295298115
-0.000462787060025
-0.000121725706288
-2.83050855367e-05
-5.86520337471e-06
-1.24885688017e-06
-2.40526940589e-07
-3.79667115029e-08
-4.81896639481e-09
-4.87420323339e-10
-4.59882772337e-11
-7.56415356485e-12
-0.0203962264486
-0.050292610592
-0.141199271081
-0.432905708101
-1.47820661316
-0.275671217805
-0.0463256377081
-0.0117952130805
-0.00252800858236
-0.000594284810936
-0.000166493283494
-4.36228255608e-05
-9.65971163375e-06
-2.03978468531e-06
-4.2400596798e-07
-7.17221819662e-08
-9.74706546345e-09
-1.05560172145e-09
-1.07279047644e-10
-1.70057712369e-11
-0.013665740151
-0.0352394149324
-0.100747497118
-0.32092644293
-1.15541940305
-0.358337236684
-0.0527601234067
-0.0126745889827
-0.00289783659023
-0.000713586688019
-0.000213541709984
-6.30495096312e-05
-1.53253357045e-05
-3.28865289355e-06
-7.00069820137e-07
-1.27746123777e-07
-1.85441906173e-08
-2.1496263875e-09
-2.35699666061e-10
-3.63561355683e-11
-0.0089521763407
-0.0230397128876
-0.064920895513
-0.209284604862
-0.807397300495
-0.471737660499
-0.0673658996412
-0.0151961885339
-0.00353115566403
-0.000895094408273
-0.00027499499491
-8.8362455141e-05
-2.37582909741e-05
-5.26981602095e-06
-1.10947150381e-06
-2.16609979966e-07
-3.34454492579e-08
-4.14186426159e-09
-4.89911303849e-10
-7.41540851892e-11
-0.00560691828267
-0.0138712294509
-0.0373675865535
-0.117101997654
-0.462843683991
-0.742631753986
-0.136970088189
-0.0367294586777
-0.00857774840075
-0.00184493830459
-0.000459537394603
-0.000136067381374
-3.81796328023e-05
-8.72883074906e-06
-1.76526845666e-06
-3.54232383021e-07
-5.78524625708e-08
-7.60732754002e-09
-9.6735160329e-10
-1.44795521717e-10
-0.00369624406911
-0.00888262052688
-0.0235772114858
-0.0745241103651
-0.292986709692
-0.971670165844
-0.37200464917
-0.126886302001
-0.0358251773003
-0.00752946672082
-0.00139448491432
-0.000296807875216
-7.25586349463e-05
-1.60319107969e-05
-3.01326333835e-06
-5.67065211506e-07
-9.69334447712e-08
-1.34028719837e-08
-1.8195025125e-09
-2.71074749384e-10
-0.00269266746851
-0.00643767079247
-0.0171937815547
-0.0539813732229
-0.182925289414
-0.453841463675
-0.992956169422
-0.412639411772
-0.143190216192
-0.0358247096113
-0.00661143068494
-0.0010414615027
-0.000184910850087
-3.50282031041e-05
-5.80380747501e-06
-9.27649738213e-07
-1.59269045187e-07
-2.27631155393e-08
-3.26360725113e-09
-4.86514566549e-10
-0.00217037815202
-0.00512558810598
-0.0134613963584
-0.0386605385798
-0.0959092623147
-0.195418075534
-0.42767913412
-0.990199991577
-0.460306067409
-0.1339405794
-0.0286281808451
-0.00453625832036
-0.000619657735896
-9.05062423333e-05
-1.26700172115e-05
-1.63733003573e-06
-2.53131299031e-07
-3.71331649652e-08
-5.56881661051e-09
-8.35259115184e-10
-0.00189002588491
-0.00432452639398
-0.0105787961951
-0.0240475461524
-0.0447223449686
-0.0839345409224
-0.170576454608
-0.394046371649
-1.06607735105
-0.3549327194
-0.0885366492929
-0.0162461933778
-0.00215323681418
-0.000248413715136
-2.86651552149e-05
-3.02016003677e-06
-3.88671740272e-07
-5.75686092448e-08
-8.99485847966e-09
-1.3683477255e-09
-0.00185400235622
-0.00398694647337
-0.00827493526589
-0.0149164811118
-0.0257970141505
-0.0452353216046
-0.0832876632013
-0.177680202165
-0.484803124552
-0.615744414736
-0.173363133127
-0.0381694905356
-0.00577329629503
-0.000607323133349
-5.8180764849e-05
-5.26713928584e-06
-5.63252015031e-07
-8.38935383822e-08
-1.37291841766e-08
-2.14307474332e-09
-0.00245546848867
-0.00463159506825
-0.00838688952656
-0.0151247852421
-0.0276253163697
-0.0495276537218
-0.0856150863856
-0.148441205676
-0.315191440814
-0.690396217204
-0.212023168175
-0.0541335197349
-0.00976655781196
-0.00104836881156
-9.09494907734e-05
-7.65144343951e-06
-7.40107200983e-07
-1.14289948846e-07
-1.99880315694e-08
-3.25265161699e-09
-0.00472393007332
-0.00797459652198
-0.0143250160093
-0.0270431000949
-0.051403410976
-0.0944258919042
-0.160130404704
-0.248143077837
-0.401487127557
-0.525925709443
-0.180183521029
-0.0503836208333
-0.0098967114979
-0.00110250459657
-9.47647382227e-05
-8.30342738392e-06
-8.772545901e-07
-1.48810372134e-07
-2.87597833288e-08
-4.94770443591e-09
-0.0108653447762
-0.0180571461763
-0.0328136706076
-0.0627548884719
-0.121186454526
-0.228044718211
-0.39562376565
-0.648929027441
-0.615964266619
-0.279300707736
-0.112590679283
-0.0329897625136
-0.00624862151177
-0.000689193946086
-6.75908159605e-05
-7.35911140748e-06
-1.03805250768e-06
-2.05035602349e-07
-4.4226658122e-08
-8.02626767486e-09
-0.0257395458052
-0.0460783717318
-0.0897444417196
-0.179704691633
-0.353659969972
-0.681555310295
-0.89879032274
-0.390005429698
-0.199955323555
-0.109280499502
-0.0493846846692
-0.0133514312521
-0.00224022083469
-0.000285760226546
-4.15280131224e-05
-7.28264281817e-06
-1.51865018531e-06
-3.45212147875e-07
-7.95663160019e-08
-1.48572876101e-08
-0.0530900510316
-0.0989346497382
-0.195627432765
-0.391661770372
-0.777459579954
-0.817363596983
-0.298120316463
-0.115128589773
-0.0542684848603
-0.0305673545517
-0.014978077125
-0.00354323009554
-0.000665085440945
-0.000146169530158
-4.09616697112e-05
-1.25686215083e-05
-3.30814733032e-06
-7.67780263983e-07
-1.75108080053e-07
-3.28601613144e-08
-0.0724157768212
-0.131855720834
-0.255071221456
-0.509504696878
-1.02699149056
-0.35413589431
-0.1096632619
-0.0373066681728
-0.0158783819293
-0.00835321736646
-0.00426425107162
-0.00152210711463
-0.000547927519664
-0.000227673571937
-9.3369063014e-05
-3.49180160632e-05
-1.02350453143e-05
-2.14516812255e-06
-4.45852074923e-07
-8.30006205422e-08
-0.0750360107407
-0.129360486074
-0.23810907432
-0.463910070234
-0.663113473927
-0.21604284184
-0.066188416701
-0.0251134789953
-0.0125465837008
-0.00753678309375
-0.00469979930063
-0.00281517773684
-0.00146809728278
-0.000734217924714
-0.000322262625784
-0.000120631872452
-3.65889812595e-05
-7.36524534932e-06
-1.25659901019e-06
-2.27106782086e-07
-0.06926124521
-0.112470725146
-0.195158144389
-0.357967455335
-0.655104787117
-0.259975244878
-0.104383262586
-0.0487532764886
-0.0275200490475
-0.0175661553823
-0.0116909704196
-0.00773049776864
-0.00463020042224
-0.00249305281251
-0.00115842816665
-0.0004440069623
-0.000133247091439
-2.75442968754e-05
-3.78701051517e-06
-5.94277945179e-07
-0.0589020171214
-0.0891790684624
-0.143573988869
-0.240608453159
-0.422340765966
-0.508939523945
-0.259681656822
-0.141324204362
-0.0817213539814
-0.0495966176771
-0.0313027018307
-0.0201198972795
-0.0125045256596
-0.00713353852034
-0.00352228984149
-0.00143006986934
-0.000452556828612
-9.57764919879e-05
-1.19055989354e-05
-1.55340576452e-06
-0.0540504502142
-0.0712987054533
-0.10006820921
-0.146288162686
-0.220733386661
-0.33970019086
-0.484236209554
-0.37874084494
-0.210981439804
-0.119481581105
-0.0698368606753
-0.0420771609174
-0.0256437098705
-0.0152368607896
-0.00826650926575
-0.00372751434593
-0.00127926048538
-0.000282730360019
-3.31260113596e-05
-3.51303286053e-06
-0.0998278299452
-0.108377389777
-0.121851424454
-0.141512516786
-0.169369767672
-0.20794687365
-0.256257446305
-0.316189846976
-0.34544838905
-0.192836371469
-0.107961630666
-0.0612235065327
-0.0353408997449
-2.45997181346e-16
-5.84560208061e-16
-1.82632660257e-15
-1.47124754066e-15
-8.09283505367e-15
-3.74817611476e-15
-2.92446171531e-14
-9.88752213133e-15
-8.65399376882e-14
-2.41919082309e-14
-2.20716531963e-13
-5.48710649163e-14
-5.06716600408e-13
-1.15441735371e-13
-1.08562440745e-12
-2.31409871625e-13
-2.21514579424e-12
-4.48696454075e-13
-4.37231188874e-12
-8.52789141508e-13
-8.42804224864e-12
-1.60013928959e-12
-1.59377742632e-11
-2.97260368952e-12
-2.96139009467e-11
-5.47337018983e-12
-5.39775527654e-11
-9.96478616795e-12
-9.6110736643e-11
-1.78302417649e-11
-1.66192912343e-10
-3.11766145858e-11
-2.77515928062e-10
-5.30751529529e-11
-4.48834098343e-10
-8.8379226842e-11
-7.1308620425e-10
-1.46194694822e-10
-1.15090815629e-09
-2.48696229844e-10
-1.99178017898e-09
-4.56915585727e-10
-3.93226418445e-09
-9.53597210607e-10
-9.13389970537e-09
-2.28094732086e-09
-2.40535886713e-08
-6.01344428079e-09
-6.78158589149e-08
-1.64557613559e-08
-1.8186491264e-07
-4.31023399689e-08
-4.67852707491e-07
-1.05856335481e-07
-1.01950949189e-06
-2.18747522413e-07
)
;

boundaryField
{
    inletfuel
    {
        type            calculated;
        value           uniform 0;
    }
    inletair
    {
        type            calculated;
        value           uniform 0;
    }
    outlet
    {
        type            calculated;
        value           nonuniform 0();
    }
    axis
    {
        type            empty;
    }
    leftside
    {
        type            calculated;
        value           uniform 0;
    }
    burnerwall
    {
        type            calculated;
        value           uniform 0;
    }
    front
    {
        type            wedge;
    }
    back
    {
        type            wedge;
    }
    procBoundary0to1
    {
        type            processor;
        value           uniform 0;
    }
}


// ************************************************************************* //
