/*--------------------------------*- C++ -*----------------------------------*\
  =========                 |
  \\      /  F ield         | OpenFOAM: The Open Source CFD Toolbox
   \\    /   O peration     | Website:  https://openfoam.org
    \\  /    A nd           | Version:  7
     \\/     M anipulation  |
\*---------------------------------------------------------------------------*/
FoamFile
{
    version     2.0;
    format      ascii;
    class       volScalarField;
    location    "0.08";
    object      epsilon;
}
// * * * * * * * * * * * * * * * * * * * * * * * * * * * * * * * * * * * * * //

dimensions      [0 2 -3 0 0 0 0];

internalField   nonuniform List<scalar> 
814
(
16869.1297881
20933.6870519
53469.1114479
21320.2025973
25063.4591167
46211.1851377
22748.989628
28298.2218888
44322.4834741
28560.720423
53495.037857
119537.227847
37079.8875259
82185.0352374
222557.183951
47766.555949
110949.756171
270720.886655
60475.2220756
137307.81104
294881.095788
73737.7215479
159061.543998
299656.75271
87308.4204183
174270.73245
289162.005812
100236.643223
182218.56112
270205.077846
111461.480488
183601.531157
248878.566886
120142.093605
179980.183025
228402.315935
125647.754009
172745.040437
209113.153121
127620.628114
162834.327273
190176.224129
126143.872614
151188.810205
171534.229466
121660.074457
138649.124908
153503.491484
114528.156884
125455.541654
135820.000889
104477.913768
110959.83103
117488.055502
90007.6895202
93357.0121819
96585.6861757
70204.0711052
71421.858272
72101.7500996
47553.024471
47619.4820521
46941.2514122
28158.1079651
27894.4603848
27053.0729411
16172.9675307
16005.071471
15576.1376256
10107.6149687
10045.5926254
9899.32735079
6441.8654383
6410.37282689
6333.02561409
4247.78319881
4212.72781393
4136.71818683
2957.30648637
2924.40114838
2850.43617348
2209.10358039
2180.17518276
2117.65644735
1836.81399594
1812.92846796
1761.73686639
1730.66992759
1710.3691273
1667.34520721
1912.32228571
1891.79857913
1850.62534662
2015.38999988
2003.84814039
1976.23923151
1488.58558557
94748.3621251
159546.76829
192217.773694
204852.794322
207175.693636
204358.481509
199274.13322
192739.238631
184572.901797
174797.872443
163091.677658
149306.843409
133921.52131
116306.786709
95007.3023914
69785.7257602
44505.2726753
25348.9361449
14827.3280709
9648.81579045
6207.79628934
4021.08752652
2746.3283187
2032.85098525
1694.78087631
1612.38049775
1801.73928078
1944.14996538
0.833807241406
0.565467318095
0.593079529165
0.577218670341
0.523013962532
0.462333112954
0.398279928374
0.337406795173
0.283799834019
0.23824296203
0.199235617263
0.166765397486
0.139359749654
0.117602694344
0.0996440129319
0.0867524264806
0.0764584394361
0.0700184901701
0.068391838759
0.234430571538
1.58811994087
1.47124051014
1.72672389069
1.5070866109
1.15996350343
0.878002293831
0.653623810884
0.4899915767
0.374305393401
0.293938414389
0.234532775865
0.190198072663
0.155170942094
0.12858641562
0.107146518211
0.0921329134626
0.0801366920363
0.072960263695
0.0726105600874
0.247468624049
10.1275511291
5.13245077968
4.65352123725
3.06918818245
2.22482748859
1.51928684255
1.00429068803
0.665210704548
0.460221825273
0.336966228603
0.257459708426
0.203077239851
0.162828416636
0.133240798442
0.110186576719
0.0940612462065
0.081601746049
0.0742145707032
0.0750939216044
0.257612188583
525.514135692
31.1823268341
15.3291624839
7.8028728753
4.96949230386
2.88363169748
1.75850551048
1.01376914172
0.615769351428
0.405673818525
0.290476155044
0.220225955086
0.17246094237
0.138865011709
0.113716334945
0.0962440441452
0.0831808125466
0.0755961672906
0.07738829997
0.367018791522
4466.77235156
431.745340107
82.643320355
25.5944964339
11.6898117937
6.33352399462
3.42100499157
1.73007614754
0.895910292715
0.517858272394
0.340715895075
0.245539580142
0.186459450605
0.147109460126
0.118788674878
0.0994773176539
0.0853470502769
0.0774335887684
0.0811406230342
0.47011796086
12544.9434611
1248.33708687
261.41457889
75.4323819318
23.8740598315
10.9026385573
5.37411903227
2.59255632949
1.25488891773
0.67090804217
0.410828280906
0.280635569105
0.205431147415
0.158097127202
0.125383648091
0.103683386709
0.0880883081435
0.079685175095
0.085883556149
0.573541936438
20845.32887
2659.05925435
614.27503466
144.604468913
36.2687562321
13.7264504636
6.58636488752
3.22826031791
1.59254826722
0.847622729272
0.501211282546
0.326588411362
0.229695203655
0.171616984219
0.133194309786
0.108479716699
0.0911186833985
0.0819364470961
0.0912661294819
0.670086042892
31354.7360661
4897.61296482
1123.73325259
227.498846413
44.3439692307
14.6650843274
7.11610434987
3.64387148836
1.89823035548
1.04323239168
0.613105793733
0.385375811355
0.260267140518
0.187997076672
0.142255699865
0.113763906104
0.0943255476002
0.0841017881024
0.0966164984331
0.757837191615
43751.4887312
8282.95967957
1967.19425797
398.248951718
64.6766533157
17.545324845
7.96037302623
4.0935440413
2.22003115478
1.26237205814
0.746717374467
0.459407070893
0.298932416979
0.208226200603
0.153036121679
0.119768501423
0.0978229052443
0.0864175921841
0.101637461825
0.818399784078
57743.6420922
13345.90419
3460.91007552
753.679195626
113.235753895
25.1887467128
9.82241949592
4.75162242839
2.57972013491
1.50172350467
0.899758019867
0.549914950161
0.347737655878
0.233592248302
0.16620810217
0.126832542533
0.101781561261
0.0890919781504
0.106527180389
0.850616860343
72738.1710617
20429.9736026
5895.31778475
1353.93914269
204.739217207
40.7667088697
13.1597433538
5.74293299413
2.98834505564
1.75390064673
1.06769689991
0.65585727431
0.408203581335
0.265342150286
0.182465887843
0.135270512405
0.10633845524
0.092193287103
0.111537199013
0.861547989
87220.2144834
29166.612106
9305.29284495
2194.94538253
344.236996954
65.3376927575
18.2078303229
7.10231184013
3.45847927841
2.01302985137
1.2459384592
0.774735127288
0.480905009987
0.304686159479
0.202525394075
0.145410650735
0.111625642652
0.0957377169355
0.11686765692
0.858976724601
99535.2885211
38791.0023253
13600.8544857
3308.25659903
524.389642367
93.5794788204
24.3454152887
8.68948641756
3.99533554268
2.28140419727
1.43202202099
0.904415008972
0.565129022782
0.352785678224
0.227211720778
0.157660176085
0.117816547083
0.0997608475408
0.122782316979
0.847090452331
108918.814912
48570.014798
18618.3454655
4719.19181831
730.6534448
118.371782918
29.9915070851
10.3252911717
4.60979213706
2.58220039646
1.63002753677
1.04532710696
0.660779571582
0.410710550202
0.257576866555
0.17253360384
0.125141907631
0.10432921882
0.129400136774
0.828401976443
114898.30975
57870.7251543
24210.4299529
6518.51377921
1017.35105004
150.445423471
38.0551748372
13.1100232528
5.61073852288
3.01461358407
1.87014943989
1.20785032672
0.769976176227
0.479561747758
0.294885204156
0.190684736228
0.133885133413
0.109534157729
0.136553537236
0.805080296882
116241.00579
65392.8735457
29706.9187196
8596.89780571
1433.31704655
228.840797509
64.5042520066
22.7807646697
8.59499136993
3.99473209317
2.26659568214
1.42504624547
0.90338271811
0.562010248001
0.340748761219
0.212964218517
0.144383382054
0.115489742853
0.144073409274
0.779059544571
111251.149378
68254.9872218
33099.6072608
10342.4301424
1989.40176984
398.820208566
143.894076228
59.434771919
19.930268815
7.08155621891
3.21310924932
1.79513159263
1.08926182391
0.665037450183
0.397080571963
0.24033808901
0.156988846836
0.122318830728
0.151782891199
0.751940039097
100039.169648
64301.2394967
31843.4447625
10180.5359143
2213.08245939
605.587611329
312.187949758
174.124530698
65.119966589
18.5567617559
6.074060985
2.62830739478
1.3992382063
0.805083955885
0.466790091534
0.273846901327
0.172062723987
0.130133174172
0.159528453144
0.724858171526
82113.5310801
52883.141759
25383.9055994
8031.92806458
2135.63344549
915.840867381
630.895177388
432.331295596
208.245098723
61.2592503223
15.2581757024
4.77263313934
2.01315682311
1.01827884943
0.555578212057
0.313836066751
0.189741526836
0.138972539871
0.167205951523
0.698613168697
58973.6940768
36706.0967631
16830.0775924
5817.47941185
2358.95450106
1481.8416434
1106.17315845
817.830273773
484.41671417
179.710768652
42.8774354259
10.1201307492
3.24638832988
1.35947498229
0.669960962607
0.360048111773
0.209822612754
0.148774273588
0.174758065268
0.673658184183
36380.5653064
22059.7118069
10686.4675982
5126.07069229
3192.98540195
2253.14050204
1592.69466881
1156.79616196
792.350239675
366.540801559
101.210310586
21.3861029278
5.39277437045
1.85982797221
0.805228277886
0.408696711528
0.230933596747
0.159218348725
0.182129910432
0.650165751122
20645.505359
13502.6369062
8407.67702979
5774.38693521
4161.08492961
2794.80235464
1791.44249669
1218.5756787
886.465681741
501.424659559
166.036310379
35.8735772131
7.9696304286
2.37639752339
0.930470230663
0.451771903047
0.250747435502
0.169855305411
0.189243719798
0.628009337939
12941.2082441
10168.895325
7953.45106405
6082.0189246
4196.04244573
2553.03880548
1486.27813423
949.655404386
717.004087533
483.124455823
188.355805575
42.2989991402
9.00045610579
2.57099195831
0.982603146239
0.476922166956
0.266745396359
0.180190371246
0.196039235805
0.606756039887
9017.2845597
7825.42392639
6378.62892624
4653.36672095
2912.61438156
1587.73962249
878.071769446
547.594478105
411.988398849
320.11127231
143.36584009
33.4758168192
7.40587025971
2.27147226286
0.945165855164
0.486843356774
0.280890449795
0.190850664816
0.202694009599
0.585778681179
5893.1199049
5115.34722709
3999.03085568
2713.68129514
1581.4215556
832.570930873
437.583897751
246.920187866
169.645710936
134.236276597
64.0967640109
15.7867235206
4.53545243483
1.78857588742
0.890290005413
0.500042420531
0.299763242517
0.204098964612
0.209688693936
0.564392983219
3764.27016359
3169.07449141
2374.45141113
1544.70184922
876.394942828
449.561422413
217.234367579
107.22306754
63.3351709929
43.5912042343
22.5801538781
7.38347044702
3.10223865046
1.60660928468
0.927191686379
0.5548730154
0.339479033319
0.226275405936
0.218692450474
0.54249970569
2529.19385976
2081.07213582
1537.28525095
1012.34842516
601.921651594
308.738984688
134.102921481
59.3438624027
32.0516480966
20.3550487622
11.6990942784
5.95255662436
3.28210680004
1.9526048126
1.17680699233
0.712176898771
0.426417210268
0.267378654445
0.232684948257
0.52089105803
1859.11156612
1526.7610184
1148.83579454
806.382003385
539.933387012
289.658835171
121.753081933
55.2787559534
31.2833530231
20.3569334001
13.3241062193
9.04371928572
5.62511230577
3.37614801297
1.93975344811
1.09809897953
0.615289865917
0.348744104734
0.258261442411
0.502619043987
1554.64940123
1298.43163393
1010.93545029
751.260204549
549.645539799
334.008725101
166.983468283
89.3466616993
56.1808985767
38.6377684467
27.5139568933
20.4121859139
13.7345121095
8.23294962743
4.36726642865
2.14494528819
1.04840110289
0.515187682665
0.306680233019
0.492586753317
1495.27793126
1288.40970932
1052.17074082
825.662497353
635.053612992
442.01711823
287.764377851
194.253396427
138.913465838
102.283737824
75.7412151956
56.0358010436
39.0969556931
24.3736541119
12.6284402948
5.34289130878
2.12901851488
0.870934547741
0.402601020383
0.499485418757
1698.03407281
1518.17409432
1305.87956386
1087.93210627
885.993268728
698.846972242
541.725269268
419.371264498
324.156225253
248.224865155
185.445671005
134.713249345
95.0008340152
64.0197705645
37.0075926793
15.4062156097
5.01705367367
1.61614781352
0.574826649102
0.528810256185
1869.31059018
1726.58333219
1547.3395819
1350.15888807
1151.57862756
961.993302516
788.67963162
634.531971478
497.944095545
377.213651281
275.446390707
196.872550787
140.396813357
1.50681904106
3.17559607716
7.49325853435
4.11179109679
8.23282868954
4.62850723467
7.81203690348
4.555691848
7.00390497195
4.31537692492
6.11518864087
4.02224760228
5.3312450097
3.72797392526
4.66515333118
3.44799437728
4.11610788259
3.18686821418
3.66344604827
2.94543383372
3.28891644693
2.72364359577
2.97754328285
2.52090645613
2.71732300793
2.33654551096
2.49862119001
2.16977948602
2.31427190343
2.0198232241
2.15909737045
1.88610891419
2.02924866415
1.76797081942
1.92158399123
1.66485071815
1.83327765994
1.57648782632
1.76175434043
1.50313290923
1.70336358076
1.44503783442
1.65435611719
1.40345217886
1.6109718285
1.37848204331
1.57118269905
1.37140138035
1.5359808263
1.38165215456
1.51056249889
1.40886122813
1.50260668552
1.45053789626
1.52273176577
1.50443390606
)
;

boundaryField
{
    inletfuel
    {
        type            turbulentMixingLengthDissipationRateInlet;
        mixingLength    0.005;
        phi             phi;
        k               k;
        value           uniform 1630.0935556;
    }
    inletair
    {
        type            turbulentMixingLengthDissipationRateInlet;
        mixingLength    0.005;
        phi             phi;
        k               k;
        value           uniform 0.0603738353925;
    }
    outlet
    {
        type            inletOutlet;
        inletValue      nonuniform 0();
        value           nonuniform 0();
    }
    axis
    {
        type            empty;
    }
    leftside
    {
        type            epsilonWallFunction;
        value           nonuniform List<scalar> 
33
(
1.50681904106
3.17559607716
0.234430571538
0.247468624049
0.257612188583
3.17559607716
4.11179109679
4.62850723467
4.555691848
4.31537692492
4.02224760228
3.72797392526
3.44799437728
3.18686821418
2.94543383372
2.72364359577
2.52090645613
2.33654551096
2.16977948602
2.0198232241
1.88610891419
1.76797081942
1.66485071815
1.57648782632
1.50313290923
1.44503783442
1.40345217886
1.37848204331
1.37140138035
1.38165215456
1.40886122813
1.45053789626
1.50443390606
)
;
    }
    burnerwall
    {
        type            epsilonWallFunction;
        value           nonuniform List<scalar> 7(53469.1114479 46211.1851377 44322.4834741 0.833807241406 1.58811994087 10.1275511291 1488.58558557);
    }
    front
    {
        type            wedge;
    }
    back
    {
        type            wedge;
    }
    procBoundary0to1
    {
        type            processor;
        value           nonuniform List<scalar> 
27
(
1184.42092877
1182.60575874
1172.00730306
1158.34549661
100.315995279
66.1895703089
31.7157746328
9.87036106395
2.68018223481
0.798753501288
0.582094802303
1126.93504206
1059.0430597
969.419691718
866.842991503
758.253689087
648.110118221
538.690477414
434.940748808
338.191865584
252.506977052
184.438860692
135.807388872
100.315995279
104.515813681
1.58752861571
1.5634498147
)
;
    }
}


// ************************************************************************* //
