/*--------------------------------*- C++ -*----------------------------------*\
  =========                 |
  \\      /  F ield         | OpenFOAM: The Open Source CFD Toolbox
   \\    /   O peration     | Website:  https://openfoam.org
    \\  /    A nd           | Version:  7
     \\/     M anipulation  |
\*---------------------------------------------------------------------------*/
FoamFile
{
    version     2.0;
    format      ascii;
    class       volScalarField;
    location    "0.08";
    object      H2;
}
// * * * * * * * * * * * * * * * * * * * * * * * * * * * * * * * * * * * * * //

dimensions      [0 0 0 0 0 0 0];

internalField   nonuniform List<scalar> 
814
(
0.999999954836
0.999999964797
0.999999986826
0.999995025032
0.99999476664
0.999995882727
0.999728035772
0.999532556472
0.99885730284
0.990917416955
0.971722980314
0.775223258311
0.976907608194
0.941936647681
0.745012322714
0.957832160055
0.908945405138
0.713556469871
0.933150192471
0.872473085803
0.681454331734
0.903411317452
0.833263671134
0.651961456057
0.867915142454
0.792554290314
0.625879508054
0.826712429408
0.751157618019
0.602383185067
0.780581130953
0.709372522549
0.579834956671
0.730804840761
0.667328451371
0.556957860858
0.679473148957
0.625741449193
0.533872020735
0.629463402075
0.586277788518
0.512196304972
0.583366166389
0.550328372608
0.492778712049
0.542299801632
0.518006921928
0.474646866684
0.505214799108
0.487748445233
0.455574217988
0.468609775743
0.455988553561
0.431868837266
0.426951584973
0.41746450564
0.398620972783
0.375434155866
0.367858713722
0.352373839724
0.314855609305
0.30870922922
0.295948489234
0.254777752671
0.250137238946
0.240518210038
0.205512680516
0.202555897057
0.19646539422
0.167801899506
0.166063284695
0.162437988129
0.135350310246
0.134085840557
0.131333900779
0.108311313159
0.106998969034
0.10416563969
0.0890637103811
0.0877664127337
0.0849472108843
0.0762942137863
0.0751211167702
0.0725832284905
0.0678876853497
0.066892586457
0.0647336751032
0.06282717252
0.0620068744649
0.0602329646167
0.0580076759849
0.0574130554122
0.0561244888492
0.044073650953
0.0437823110851
0.0431054699593
0.293769093143
0.351874641545
0.401718487816
0.421268983056
0.432952193923
0.441687141926
0.447272697827
0.449179124295
0.44708000594
0.442250711496
0.437529095008
0.43370105106
0.428723717047
0.419968707635
0.403734735121
0.375439473673
0.332510110096
0.279235449927
0.22798254232
0.188626052245
0.157697285879
0.127579124307
0.10020156998
0.0810358651579
0.0690940495391
0.0617840119293
0.0578019190475
0.0543485028953
0.0421512628632
4.85888018555e-06
2.88788715986e-06
1.28905392865e-06
5.47925466396e-07
2.11039497425e-07
7.47686714854e-08
2.42515115877e-08
7.35579941501e-09
2.07336967696e-09
5.38182021889e-10
1.27205702608e-10
2.70291850785e-11
5.07249557047e-12
8.22965935583e-13
1.12391662299e-13
1.25452687665e-14
1.11034258007e-15
7.46109751353e-17
3.5789851806e-18
7.11496668081e-20
0.000647548534801
0.000177376168195
3.79375280586e-05
1.14710840687e-05
3.40784667554e-06
1.00519947493e-06
2.80575341935e-07
7.42561746793e-08
1.84756575951e-08
4.29169613939e-09
9.21477963439e-10
1.80191161496e-10
3.15663058211e-11
4.84877879071e-12
6.34475297946e-13
6.86087811548e-14
5.91073715319e-15
3.88913212474e-16
1.7961883002e-17
3.31234910957e-19
0.00410689747704
0.000440493020845
0.000112634585716
3.74420728707e-05
1.29730748867e-05
3.94519057224e-06
1.09429431196e-06
2.85319556813e-07
6.88555168082e-08
1.55505927998e-08
3.23564143609e-09
6.11094858818e-10
1.0366514541e-10
1.55103152472e-11
1.98764851596e-12
2.11713244992e-13
1.80053346833e-14
1.17892902508e-15
5.31516803337e-17
8.91648348358e-19
0.0398198567757
0.00154016098936
0.000323508737925
0.00011764182972
5.02691292157e-05
1.63821964961e-05
4.7590412341e-06
1.10095414483e-06
2.39270744859e-07
5.21977173558e-08
1.07993048926e-08
2.01663909976e-09
3.37539239149e-10
5.00447746931e-11
6.3956926673e-12
6.83212980994e-13
5.84853565815e-14
3.8897718163e-15
1.78140693012e-16
3.76164786103e-18
0.0570381019122
0.00840351361342
0.00210064656601
0.00039097016584
0.000109983271
4.61323051688e-05
1.67894724088e-05
4.45353735725e-06
8.71144748997e-07
1.53673859424e-07
3.19492975203e-08
6.14567871794e-09
1.04827888005e-09
1.57928907112e-10
2.0565090364e-11
2.24615066527e-12
1.97104101818e-13
1.35583072763e-14
6.52512510648e-16
1.84503092252e-17
0.093897698332
0.0256666743645
0.00754729487689
0.00133171445219
0.000211928654089
7.2919491943e-05
2.93203198055e-05
8.79331221182e-06
2.00089819312e-06
3.5972380413e-07
7.50155458143e-08
1.59126850955e-08
2.91519105312e-09
4.62662865523e-10
6.3004865038e-11
7.17778234124e-12
6.56612681105e-13
4.73020859209e-14
2.4266220809e-15
8.40095522041e-17
0.130857106257
0.0504149093108
0.0194296524278
0.00292746224979
0.000310837408132
7.5379506679e-05
3.20877628851e-05
1.09186342479e-05
3.01531233334e-06
6.70691895605e-07
1.44592195543e-07
3.46727807783e-08
7.08432968758e-09
1.22127036198e-09
1.78021049791e-10
2.15293557373e-11
2.08188515799e-12
1.58373267446e-13
8.66848460597e-15
3.43273369769e-16
0.168210070042
0.0753888029055
0.0316956728378
0.00514473572667
0.000413895550393
6.90498896856e-05
2.91401069782e-05
1.10930224551e-05
3.72751002837e-06
1.05687551964e-06
2.56949236384e-07
6.45785379406e-08
1.50634691787e-08
2.87828376225e-09
4.56487318999e-10
5.93756611404e-11
6.13297632441e-12
4.95351922817e-13
2.88556779738e-14
1.21722773467e-15
0.203058216647
0.099658485654
0.0450221901821
0.0100083670234
0.00069069691282
7.805299853e-05
2.87530972292e-05
1.14065485646e-05
4.36651894118e-06
1.50308549137e-06
4.23816604706e-07
1.08313799189e-07
2.84416537581e-08
6.08152227833e-09
1.06003192534e-09
1.49581589152e-10
1.66221474192e-11
1.4307723048e-12
8.8474614085e-14
3.79862206885e-15
0.234127535757
0.124315449042
0.0612825562305
0.0183266371904
0.00131580846797
0.00011437906697
3.45834195053e-05
1.33108622564e-05
5.18384776356e-06
1.98427779316e-06
6.43430692659e-07
1.75903698613e-07
4.79685104746e-08
1.16366558921e-08
2.24364863694e-09
3.45100354818e-10
4.14372149129e-11
3.81076338816e-12
2.49696159936e-13
1.06570082027e-14
0.261026880566
0.14918885052
0.0800160752204
0.029212226395
0.00251525139987
0.000200679687389
4.65736025689e-05
1.73066600943e-05
6.40047840099e-06
2.49359725038e-06
9.05876733239e-07
2.73063539208e-07
7.52981989306e-08
2.04136101645e-08
4.3610498021e-09
7.32911377037e-10
9.53335566201e-11
9.38629961444e-12
6.51341616342e-13
2.74772794009e-14
0.283348409729
0.173063715469
0.0993923681077
0.0410596873882
0.00515434425088
0.0004022100677
6.69018054515e-05
2.29658443775e-05
8.03939108845e-06
3.03070091996e-06
1.18958068713e-06
4.00406015599e-07
1.15918179743e-07
3.2710867486e-08
7.8288751872e-09
1.44109071201e-09
2.03354859891e-10
2.14731582097e-11
1.57866172309e-12
6.61331128664e-14
0.302059172492
0.19615378601
0.119387278614
0.053753322398
0.00967820214434
0.000720951226078
9.70319727702e-05
2.87762988665e-05
9.65959403691e-06
3.53868458685e-06
1.46603384696e-06
5.53447263428e-07
1.72361265903e-07
4.92537108542e-08
1.30727684332e-08
2.638002835e-09
4.04174706379e-10
4.58503774254e-11
3.57519359907e-12
1.50568941432e-13
0.318998483842
0.219265884053
0.140587314139
0.0675476002562
0.014610645029
0.00113158061277
0.000136470146397
3.31884034038e-05
1.05511678667e-05
3.90943863013e-06
1.70749302457e-06
7.21341454958e-07
2.46792152578e-07
7.26857084217e-08
2.02695647889e-08
4.52610025135e-09
7.53302796341e-10
9.18979826988e-11
7.61068034496e-12
3.27168238782e-13
0.335556933028
0.243033652422
0.163869761278
0.0840407617263
0.020853963552
0.00183823666225
0.000228733867919
4.57236561692e-05
1.25222661514e-05
4.49275090826e-06
1.99084268612e-06
9.11046195221e-07
3.44866555354e-07
1.0598047788e-07
2.98965671647e-08
7.34107224484e-09
1.32583835739e-09
1.7394134227e-10
1.53202840475e-11
6.80106753986e-13
0.349775428599
0.265261456424
0.186470335852
0.101239686775
0.0291446765689
0.00354496631181
0.000606806046645
0.000128008321959
2.89939578577e-05
8.069213221e-06
2.90723089077e-06
1.24093545837e-06
4.94934245437e-07
1.58503852712e-07
4.38457242613e-08
1.13895195307e-08
2.22742517489e-09
3.13164181263e-10
2.93228874344e-11
1.35618537565e-12
0.355858871293
0.279050479451
0.200461986255
0.112248231194
0.0384976996746
0.00865855551571
0.0021434359048
0.00054507643426
0.000120678425631
2.68838214585e-05
7.03066327679e-06
2.26137381544e-06
8.16039236354e-07
2.59031514075e-07
6.82342966477e-08
1.71388184933e-08
3.60469546541e-09
5.39580272448e-10
5.35742509273e-11
2.5962813867e-12
0.350313530491
0.278764625166
0.199704053525
0.112232263353
0.0460406431144
0.0183455324298
0.00724539690258
0.00240675603784
0.000585440326765
0.000115388095426
2.44815849216e-05
5.95822956243e-06
1.69310856329e-06
4.89012720587e-07
1.18081869734e-07
2.60880197857e-08
5.68521390511e-09
8.94001371013e-10
9.3620437288e-11
4.76887068887e-12
0.329100298835
0.260934963847
0.182869763493
0.104088136123
0.0540973453151
0.0330005557822
0.0203561371904
0.00921481918136
0.0025914274444
0.000506108105378
8.8438801737e-05
1.81258704153e-05
4.20436113103e-06
1.03807261748e-06
2.26869656793e-07
4.24249869868e-08
8.62234826365e-09
1.41935693331e-09
1.56158178441e-10
8.38338300778e-12
0.29126689954
0.227604925749
0.15753165384
0.0985041404632
0.0669909259843
0.051744149294
0.0381688093431
0.0224630016618
0.00790769025263
0.00177589249549
0.00029373854934
5.02445853685e-05
1.02922273924e-05
2.2168639139e-06
4.41627982983e-07
7.15300635327e-08
1.2575644886e-08
2.13737807806e-09
2.47385461923e-10
1.40676342026e-11
0.244041476775
0.190795542257
0.138980995209
0.10269455704
0.0832852707543
0.0692520839716
0.0529696373252
0.0342329815351
0.0158272410424
0.00389906590523
0.000695180145041
0.000111566011651
2.07367254167e-05
4.15781509838e-06
7.66506765237e-07
1.14181159556e-07
1.7306731299e-08
3.02257292141e-09
3.71453921262e-10
2.25734669394e-11
0.201987017035
0.165281959533
0.133437008226
0.111330610733
0.0948232234815
0.0771382148319
0.0565811643915
0.0360835985113
0.0181208726586
0.00498570678463
0.000995377105854
0.000166659924399
3.02430297197e-05
5.90488062124e-06
1.0587863049e-06
1.54399467489e-07
2.17148418078e-08
3.99641289545e-09
5.33354903361e-10
3.5112160876e-11
0.172728971243
0.150376110282
0.129790091635
0.111056531352
0.0909715209035
0.0678264403499
0.0446635969737
0.0258745995572
0.0123245736519
0.00381907396369
0.000905329704645
0.0001616304177
2.96817673449e-05
5.85608830417e-06
1.05814807651e-06
1.61479623855e-07
2.48222167365e-08
5.05328150444e-09
7.58273671074e-10
5.4763844804e-11
0.147905228477
0.131894644403
0.113446932524
0.0918556031626
0.0667342646345
0.0410390714901
0.0213745900908
0.00964718846283
0.00444046475953
0.00176124505141
0.000532661919242
0.000104899068725
1.99680660293e-05
4.04496078961e-06
7.88187376862e-07
1.414299252e-07
2.83872677323e-08
6.74220753334e-09
1.153220219e-09
9.11680243033e-11
0.119462260603
0.103535253722
0.082801942139
0.0586258044309
0.0347597177005
0.0161497275658
0.00621278200632
0.00243273764546
0.00109915032123
0.000525656966457
0.000192346383725
4.11288727512e-05
8.93695715846e-06
2.06765514213e-06
5.15856702643e-07
1.36645628559e-07
3.94523490063e-08
1.08687942015e-08
2.05006527117e-09
1.73422906992e-10
0.0918453483283
0.0752122049167
0.0544363335911
0.0329217161864
0.0153616671391
0.0053934634881
0.00172398776213
0.000591206600892
0.00024570521689
0.000119366792255
5.22484463265e-05
1.30947833088e-05
3.56030169428e-06
1.198518264e-06
4.928528938e-07
2.13983520383e-07
7.7410001952e-08
2.24666501661e-08
4.43712966063e-09
3.94912288011e-10
0.0728873410651
0.0570582573139
0.0382419705697
0.0202654360286
0.00744519030185
0.00220224886309
0.00060472545801
0.000192482415303
7.61378167652e-05
3.64422131536e-05
1.80366193075e-05
7.11901341941e-06
3.16623968746e-06
1.6891897909e-06
9.22558446734e-07
4.7617743263e-07
1.97082271381e-07
5.5264096537e-08
1.0956999027e-08
1.02859702602e-09
0.0617199099314
0.0475340840194
0.0309715174026
0.0155122781804
0.00506187562005
0.00140255870267
0.00040047156451
0.000148996326229
7.16277603469e-05
4.08028153724e-05
2.47267184327e-05
1.46689516132e-05
7.90064639593e-06
4.35791079373e-06
2.30689730728e-06
1.15763083143e-06
5.14687299811e-07
1.52858205113e-07
2.8988945484e-08
2.90070958188e-09
0.0553774537581
0.0431152425916
0.0287501029296
0.0151943551325
0.00552965348003
0.00194344339319
0.000742306407718
0.0003393812381
0.000185838914548
0.000114537779842
7.39524751977e-05
4.69339573579e-05
2.64161025366e-05
1.35698829265e-05
6.39661175026e-06
2.88377478324e-06
1.23345071341e-06
4.1332072296e-07
7.73601610198e-08
7.77054632868e-09
0.0524497831081
0.0423872444761
0.0305055450998
0.0189796581521
0.00989916349894
0.0045933177883
0.00226226367025
0.00119473209105
0.000671210733017
0.00039659429531
0.000244703304351
0.00015286332494
8.92413140541e-05
4.59842914115e-05
1.98920475724e-05
7.53036486239e-06
2.80197074947e-06
9.5154449586e-07
1.97230437254e-07
2.04455654922e-08
0.0504012531007
0.0430544717797
0.0342036329111
0.0251784715053
0.0172316601539
0.011115393822
0.00677486167782
0.00379875883575
0.00208975979453
0.0011657557898
0.000672119445784
0.000398582790171
0.000233707831216
0.000127058627062
5.85126287804e-05
2.11765286118e-05
6.43966368e-06
1.89557965129e-06
4.16541588847e-07
4.53917346097e-08
0.0399907132985
0.0358469949409
0.0306686318786
0.0250661447252
0.019609692291
0.014679542178
0.0103580189877
0.00663896703088
0.00374999556145
0.00208531502096
0.00115899776906
0.000653461787707
0.000372299651042
1.95313048956e-18
2.30934717593e-18
5.59961425118e-18
5.78246775721e-18
2.35308650894e-17
1.46829336711e-17
8.64105538256e-17
3.86767573106e-17
2.68504959318e-16
9.45697667965e-17
7.27162214131e-16
2.14447276332e-16
1.77577900569e-15
4.51191523723e-16
4.03866289736e-15
9.04668710295e-16
8.710515394e-15
1.75487452315e-15
1.80873019433e-14
3.33727212713e-15
3.65061392439e-14
6.26672103403e-15
7.19660103567e-14
1.1653050669e-14
1.3884451778e-13
2.14823613911e-14
2.61848598078e-13
3.91696148388e-14
4.80897707806e-13
7.02201971267e-14
8.55332941783e-13
1.23078874048e-13
1.46544712075e-12
2.1017930117e-13
2.42647535867e-12
3.51378907004e-13
3.93933719308e-12
5.84207633875e-13
6.48733305369e-12
1.00025215057e-12
1.1445590501e-11
1.85256569032e-12
2.30371483136e-11
3.90441377042e-12
5.46051246879e-11
9.44782032423e-12
1.46973157831e-10
2.52391981724e-11
4.24163685385e-10
7.00809666603e-11
1.16458988719e-09
1.86468455957e-10
3.0625169695e-09
4.65740091448e-10
6.79080249091e-09
9.80598325102e-10
)
;

boundaryField
{
    inletfuel
    {
        type            fixedValue;
        value           uniform 1;
    }
    inletair
    {
        type            fixedValue;
        value           uniform 0;
    }
    outlet
    {
        type            zeroGradient;
    }
    axis
    {
        type            empty;
    }
    leftside
    {
        type            zeroGradient;
    }
    burnerwall
    {
        type            zeroGradient;
    }
    front
    {
        type            wedge;
    }
    back
    {
        type            wedge;
    }
    procBoundary0to1
    {
        type            processor;
        value           nonuniform List<scalar> 
27
(
0.0197516302132
0.0197160185823
0.0195451562464
0.0192681046359
0.000204498281862
9.93510106612e-05
3.85552963305e-05
1.13483325467e-05
2.99938074271e-06
6.5506040562e-07
7.38149617968e-08
0.0185957405779
0.0170703245189
0.0150349539702
0.0126893910378
0.0102080710168
0.00774162250814
0.00551213711394
0.00375661395672
0.00237825491573
0.00144629570722
0.000868349472671
0.000527410404831
0.000204498281862
0.000324864849812
1.09378718091e-08
1.55735487351e-09
)
;
    }
}


// ************************************************************************* //
