/*--------------------------------*- C++ -*----------------------------------*\
  =========                 |
  \\      /  F ield         | OpenFOAM: The Open Source CFD Toolbox
   \\    /   O peration     | Website:  https://openfoam.org
    \\  /    A nd           | Version:  7
     \\/     M anipulation  |
\*---------------------------------------------------------------------------*/
FoamFile
{
    version     2.0;
    format      ascii;
    class       volScalarField;
    location    "0.08";
    object      H2O;
}
// * * * * * * * * * * * * * * * * * * * * * * * * * * * * * * * * * * * * * //

dimensions      [0 0 0 0 0 0 0];

internalField   nonuniform List<scalar> 
814
(
8.65237143472e-09
6.90382702262e-09
3.01477268053e-09
8.40430422941e-07
8.8663380166e-07
8.2174972426e-07
3.87847353478e-05
6.34643488736e-05
0.000162084238845
0.00113162686164
0.00311070820805
0.0203216462755
0.00416242446926
0.01052301048
0.0469861085213
0.00899925474683
0.0198752547937
0.0642379642467
0.0155544720668
0.0302144472924
0.076844012382
0.0234795206311
0.0409975493604
0.0864090175621
0.0328276289879
0.0518770885935
0.0940043443354
0.0435424453874
0.0627162440388
0.100434301319
0.0554261744656
0.0735147269638
0.106385713566
0.0681705622501
0.0842949585447
0.1123068363
0.081265170496
0.0949107185247
0.11822528033
0.093996299617
0.104960726875
0.123758746893
0.10571821101
0.11410458221
0.128706334962
0.116153965488
0.122319716924
0.133320666493
0.125573046877
0.130005740331
0.138168356198
0.13486512983
0.138068027578
0.144186926369
0.145435160218
0.147842915565
0.152623341241
0.158504646624
0.160427928163
0.164356732305
0.173874000176
0.17543521378
0.178672963833
0.18911450676
0.190292722304
0.192730916583
0.201577762525
0.202324226117
0.203858036962
0.210985927416
0.21141269506
0.212298232028
0.218809650464
0.219088599057
0.21968870927
0.224928883047
0.225151885745
0.225615852156
0.229018840218
0.229176822191
0.229498083357
0.231709055551
0.231819600449
0.232037609668
0.233621881809
0.233704076768
0.23386784529
0.235018712736
0.235093634774
0.23524580432
0.235976458274
0.236043670118
0.236184366712
0.23552772452
0.235563456219
0.23563625428
0.0394955535743
0.111714847554
0.132746810359
0.1395510245
0.140870784992
0.140340360542
0.139633329133
0.139466437902
0.140147162038
0.141445744858
0.142684185402
0.143681939693
0.144963365419
0.14719613152
0.151320750343
0.158501949938
0.169394826128
0.182911847799
0.195905992653
0.205827915965
0.213448080637
0.220489500839
0.226221972539
0.229881941675
0.232281368889
0.234049865742
0.235426947743
0.236364497613
0.23573028788
1.05143264107e-05
7.99695611948e-06
5.66495087424e-06
3.43287408681e-06
1.86664745394e-06
9.3066374382e-07
4.23475191101e-07
1.74457862649e-07
6.48592882803e-08
2.15943135097e-08
6.36933693242e-09
1.64436207122e-09
3.64978710686e-10
6.82578032533e-11
1.05128360883e-11
1.38708302469e-12
8.59428275711e-13
6.52814337384e-12
5.43598631519e-11
1.49591137176e-10
0.00112554387988
0.000429150632547
0.0002013386787
9.39308407779e-05
4.12774364601e-05
1.70358321648e-05
6.55657334652e-06
2.33492906503e-06
7.64472216529e-07
2.26089284559e-07
5.95261520428e-08
1.38217659217e-08
2.79941662499e-09
4.85289309843e-10
7.01428545853e-11
8.74765832681e-12
6.14780993513e-12
6.63578650472e-11
9.15097848575e-10
8.20282119288e-09
0.0100182545701
0.00598202472336
0.00365023411545
0.00117150051393
0.000455392439181
0.000162114935899
5.43720649413e-05
1.65767845408e-05
4.74184182012e-06
1.26926829555e-06
3.06197564222e-07
6.51791541511e-08
1.22127794785e-08
1.98716515146e-09
2.72948143836e-10
3.25450172206e-11
2.4940471098e-11
3.81643289449e-10
9.77150880584e-09
2.8258203192e-07
0.0399051502563
0.0319937316815
0.0226714118712
0.0104233913062
0.00418889835499
0.00132151151695
0.000411377261438
0.000106552569332
2.558191261e-05
6.09598828276e-06
1.39169112384e-06
2.8197228756e-07
5.04749712788e-08
7.92617952745e-09
1.06299806562e-09
1.23972817e-10
9.22028852904e-11
1.77309494636e-09
6.8005896425e-08
6.02108733407e-06
0.148924066067
0.12417286605
0.0786072579118
0.0396441759764
0.0175868499407
0.00704051293141
0.0024411521423
0.000654776591942
0.000132314664327
2.45284058716e-05
5.40239074866e-06
1.0926293364e-06
1.94063243883e-07
3.02694805214e-08
4.05967078918e-09
4.71160714045e-10
2.68199487123e-10
4.37812929432e-09
1.34010428417e-07
8.09357433486e-06
0.196946706745
0.190249503252
0.155478304224
0.0925253321543
0.0415918002645
0.0169604068633
0.00579304448628
0.00168133039515
0.000396844847209
7.49803836402e-05
1.61616881686e-05
3.51782506535e-06
6.5615843192e-07
1.0562246389e-07
1.45528557582e-08
1.71627138865e-09
6.80624761764e-10
8.81019483837e-09
2.10603553989e-07
8.61965440524e-06
0.207434115323
0.215129994468
0.19977890682
0.147903509211
0.0679438005681
0.0260702538367
0.00892089819856
0.00287073043255
0.000815908628713
0.00018738897437
3.98853859335e-05
9.47514931081e-06
1.92733136967e-06
3.30268264913e-07
4.78351136599e-08
5.84937681722e-09
1.61992542979e-09
1.57737087395e-08
3.11583687961e-07
9.31791054818e-06
0.205510852453
0.222674397856
0.218818699781
0.183120459008
0.0842583618496
0.0312278543442
0.0114020101105
0.00417082831523
0.00141885480092
0.000400579107026
9.22816793285e-05
2.18773367551e-05
4.96188589058e-06
9.2359882929e-07
1.42836920455e-07
1.83933339316e-08
3.81760345361e-09
2.59004081321e-08
4.38668358267e-07
1.04656017854e-05
0.199733607931
0.222450145555
0.225423886187
0.199470137803
0.0999496356277
0.0375990849882
0.0147885878448
0.00598430393131
0.00230999749099
0.000766508987851
0.000199661421908
4.60751650994e-05
1.14116149498e-05
2.32825847835e-06
3.8819657032e-07
5.31909677339e-08
9.12622893455e-09
4.01261354627e-08
5.88516523611e-07
1.1804533447e-05
0.193145833685
0.21883600862
0.226842247331
0.210054135558
0.125436097412
0.0499119486531
0.0205850272701
0.00874430453796
0.00360487070952
0.00133275912084
0.000396008015748
9.58606705601e-05
2.3588480734e-05
5.34872902063e-06
9.68535635351e-07
1.42093245394e-07
2.20209418949e-08
6.0125571505e-08
7.63168571971e-07
1.32278314963e-05
0.186894158658
0.21385589229
0.225951726115
0.219440623219
0.160260889352
0.0689052846066
0.0291551007636
0.0126433591241
0.00537961046363
0.00213364626442
0.000718156721044
0.000191111093399
4.58082754553e-05
1.1331055154e-05
2.23670174762e-06
3.52871912448e-07
5.27076602723e-08
8.87261804711e-08
9.70739262406e-07
1.48068451392e-05
0.181497201484
0.208521782336
0.223566329756
0.225438759639
0.192116583963
0.090812695589
0.039557299884
0.0174894718428
0.00762994238255
0.00318648685728
0.00119265741517
0.00035697630415
8.85999204989e-05
2.20245272648e-05
4.80966831527e-06
8.20097818214e-07
1.23181113569e-07
1.3084539432e-07
1.22413381886e-06
1.66412540736e-05
0.176884708903
0.203089800634
0.220055717685
0.227449257341
0.20628526919
0.110131572261
0.0499009515094
0.0227881533506
0.0103058865245
0.00450591576102
0.00183568053407
0.000621406919091
0.000166116441994
4.06134809485e-05
9.70147887245e-06
1.79395891621e-06
2.78245252379e-07
1.95340718324e-07
1.54247755951e-06
1.87968208345e-05
0.172666105928
0.197506678403
0.215702806218
0.227244915539
0.213499849225
0.124884208577
0.0587239372958
0.0280235629442
0.0133111776056
0.00611634931235
0.00265794824816
0.00100928450351
0.000299194221779
7.45954209155e-05
1.82984267935e-05
3.71676304966e-06
6.05104198007e-07
2.98360947642e-07
1.94837493603e-06
2.13305544966e-05
0.168522602532
0.191701705183
0.210676248946
0.226317475153
0.221796266809
0.142127019451
0.0691632871804
0.0340994367914
0.0168596426855
0.00813769435525
0.0037172015943
0.00155140640904
0.000517306338119
0.000135719928644
3.30106750842e-05
7.32640312656e-06
1.26448859956e-06
4.69231438805e-07
2.46473782026e-06
2.43209096483e-05
0.164957746199
0.186230985634
0.205610739114
0.224699052305
0.230578056718
0.172860237077
0.0912029585432
0.0458995702647
0.0227284594849
0.0111644002466
0.00525709474648
0.00232117915082
0.000864496151419
0.000246112836209
5.90104187251e-05
1.3787491491e-05
2.54328505794e-06
7.60501677834e-07
3.12231938597e-06
2.78811870112e-05
0.163438815743
0.18282347255
0.20239444502
0.223220713986
0.234059398752
0.204889730347
0.13482658149
0.0740831494562
0.036004321679
0.0170121835326
0.00793092835982
0.00353946105243
0.00142165560431
0.000443335834109
0.00010777329004
2.46665803323e-05
4.9012559786e-06
1.26186519136e-06
3.96269089591e-06
3.21741278251e-05
0.164858512709
0.182938975494
0.202733030318
0.22380756973
0.235367443421
0.223008857376
0.186923965412
0.128123398153
0.0675341014419
0.0301643783952
0.0132638598315
0.0057283668773
0.00233997214542
0.000788936007016
0.000198382074852
4.28723746803e-05
9.03168083534e-06
2.11646366644e-06
5.04453733652e-06
3.74174635625e-05
0.170247301931
0.187484092512
0.207077581821
0.226216207161
0.235699352058
0.232297773705
0.217882313686
0.187195330174
0.124031868063
0.0586518699405
0.0239959761527
0.00977414329383
0.00388712987689
0.00136676827781
0.000359701734841
7.45754330628e-05
1.55476002861e-05
3.52033016757e-06
6.45363428336e-06
4.38982276218e-05
0.179850276218
0.195951316658
0.213547492281
0.227911424392
0.234286494457
0.234803435168
0.231445923796
0.219648666113
0.184465861559
0.104729839019
0.0436357774072
0.016648959725
0.00632136937383
0.00223945625047
0.000617003452495
0.000125726147609
2.51269472172e-05
5.69864977831e-06
8.31481573487e-06
5.20037030245e-05
0.191832061276
0.205286994545
0.218263970901
0.227046604938
0.231137721229
0.233189156264
0.23432851592
0.231977954079
0.215919156162
0.153971064078
0.0705136729112
0.0265180424799
0.00957140230996
0.00333465913232
0.000949985657761
0.000197307334953
3.81278266399e-05
8.88798248876e-06
1.08136181849e-05
6.22739525495e-05
0.202481818717
0.211713980747
0.219594985652
0.224783538439
0.228148813118
0.23106497218
0.233492552773
0.233860849973
0.226615412628
0.185688133758
0.0938367713814
0.0360403371342
0.0127269294054
0.00433422477909
0.0012715529938
0.000276662970673
5.38994505083e-05
1.33160283559e-05
1.4235078537e-05
7.54442714852e-05
0.209809089199
0.215321648064
0.220198303635
0.22421636749
0.2277772407
0.230635117839
0.231524037509
0.229568071746
0.222350947284
0.184597455812
0.102098450203
0.0399643437244
0.0139699004109
0.00475243383829
0.00144783058839
0.00033913450408
7.22646600502e-05
1.93690905848e-05
1.90625556683e-05
9.25453711477e-05
0.215799348462
0.21948192177
0.223342980659
0.227040110851
0.229605183657
0.228586652157
0.221599634803
0.207600262997
0.178915894158
0.144401708263
0.0874965484975
0.0355272835187
0.0125256239589
0.00437015410462
0.00144751344972
0.00038487193103
9.64254671661e-05
2.84985911819e-05
2.61993139005e-05
0.000115020335139
0.222167773184
0.225062599698
0.227747564545
0.228287191041
0.223040762653
0.206810307447
0.174106312117
0.13643051961
0.106962877901
0.0860225181473
0.0555911151649
0.0231495598376
0.0090059296714
0.00357142610735
0.00140267015455
0.000460233284797
0.000138045219415
4.47160339023e-05
3.73878513912e-05
0.000144831438994
0.227375216146
0.228767058425
0.227935653468
0.220938372994
0.201913077035
0.163910130707
0.119209426869
0.0848399990338
0.0618959993652
0.0463184260921
0.0311071013434
0.0146641441348
0.00674282811271
0.0033023369627
0.00159599290559
0.000680382600644
0.000233117579545
7.79409956937e-05
5.60737202766e-05
0.000184749888588
0.230506532795
0.230455820938
0.22678365719
0.21454724058
0.186630073553
0.136871962347
0.0941906185419
0.065290293074
0.0466464273385
0.0337982192216
0.0230583850041
0.0134892112576
0.0076204602667
0.00450650221573
0.00250525616724
0.00123571479465
0.000483835334381
0.000152820410431
8.91704790588e-05
0.000239276259884
0.232635514014
0.232119833274
0.228138014055
0.216032567237
0.186528910924
0.135566187398
0.0951956946163
0.0687933658005
0.0514161423966
0.0388988238263
0.0287333072442
0.0203831800174
0.0134166069008
0.00868312543954
0.00507821086087
0.00259227021268
0.00110766240384
0.000347119660253
0.000151945098239
0.0003144888025
0.234327104044
0.233922362003
0.230870091287
0.221740475066
0.199915942711
0.156192745868
0.118920984102
0.0926272742803
0.0744311294787
0.0605172864752
0.0488795726077
0.0388195837679
0.0284703535586
0.0193206305157
0.0115566779598
0.00592429156066
0.00253457749466
0.000843334840143
0.000281572197382
0.000420763035221
0.235748565346
0.23573450082
0.234107562467
0.228868680417
0.216672898697
0.192005597904
0.163317900596
0.13939378424
0.120307455277
0.104075346501
0.0893545270175
0.075280781879
0.0596416235726
0.0430306550702
0.0266470886814
0.0136103361929
0.00570914375702
0.00191100808092
0.000557858833424
0.00057558568935
0.236726454453
0.237095825911
0.236806553453
0.234972581684
0.230335475553
0.221311377805
0.209561755285
0.196202843584
0.179660679768
0.162291536378
0.144437328958
0.12591170464
0.105236222696
0.0816240627896
0.0550779212738
0.0295749303982
0.012140848577
0.00389009618549
0.00106857643384
0.000803955944732
0.235922475483
0.236146296433
0.236151221362
0.235649961355
0.234289448016
0.231707410316
0.227926630324
0.222752330354
0.213878525272
0.197735164782
0.178624845467
0.158721098662
0.137728472287
0.000264628066142
0.00028050237559
0.000172044955795
0.000211514885711
0.000118563475028
0.000159798772905
9.2425417227e-05
0.000135962952915
8.14938557523e-05
0.000126248012417
7.80968032785e-05
0.000123524909968
7.90740708614e-05
0.000125365288924
8.29860387742e-05
0.00013045768964
8.92784945421e-05
0.000138390217978
9.77362195623e-05
0.000149120645328
0.000108371681343
0.000162870218766
0.000121389679242
0.000180115567131
0.00013714125244
0.000201586836556
0.000156222165611
0.000228285922053
0.000179552997157
0.000261768670631
0.000208467386375
0.000304225601026
0.00024479876311
0.00035861168538
0.000291096611684
0.000428823873458
0.000350517649087
0.000519286838394
0.000426575170897
0.00063521738089
0.00052274241729
0.000781451416098
0.000641590918492
0.000961571966323
0.000784672477049
0.00117758988139
0.000952069143336
0.00142929546282
0.00114377539338
0.00171579245816
0.00136368240675
0.00203788530963
0.00161876872568
0.00240114481369
0.00193019646061
0.00282298867916
)
;

boundaryField
{
    inletfuel
    {
        type            fixedValue;
        value           uniform 0;
    }
    inletair
    {
        type            fixedValue;
        value           uniform 0;
    }
    outlet
    {
        type            zeroGradient;
    }
    axis
    {
        type            empty;
    }
    leftside
    {
        type            zeroGradient;
    }
    burnerwall
    {
        type            zeroGradient;
    }
    front
    {
        type            wedge;
    }
    back
    {
        type            wedge;
    }
    procBoundary0to1
    {
        type            processor;
        value           nonuniform List<scalar> 
27
(
0.226836103721
0.226840251189
0.226812775047
0.226756121062
0.113330618822
0.0829807376772
0.0483404810259
0.0202234228477
0.00632308009475
0.00172360401656
0.00111926966487
0.226598762792
0.22611172223
0.225277156859
0.224004576169
0.222105633793
0.219037613316
0.213224303092
0.202933362712
0.1895856647
0.173637581593
0.157510115734
0.142719234675
0.113330618822
0.128913250657
0.00233727914533
0.00333720182379
)
;
    }
}


// ************************************************************************* //
