/*--------------------------------*- C++ -*----------------------------------*\
  =========                 |
  \\      /  F ield         | OpenFOAM: The Open Source CFD Toolbox
   \\    /   O peration     | Website:  https://openfoam.org
    \\  /    A nd           | Version:  7
     \\/     M anipulation  |
\*---------------------------------------------------------------------------*/
FoamFile
{
    version     2.0;
    format      ascii;
    class       volScalarField;
    location    "0.08";
    object      HE;
}
// * * * * * * * * * * * * * * * * * * * * * * * * * * * * * * * * * * * * * //

dimensions      [0 0 0 0 0 0 0];

internalField   nonuniform List<scalar> 
814
(
2.18534569781e-20
1.69572539763e-20
6.59286394211e-21
2.12384877385e-18
2.15718449387e-18
1.63348136902e-18
1.05923823388e-16
1.72164286871e-16
3.93380613781e-16
3.35603957285e-15
9.73127092658e-15
7.14399424232e-14
1.13931905611e-14
2.77505004279e-14
1.21447076378e-13
4.60771801456e-14
1.13265530284e-13
4.62324632531e-13
2.49369155743e-13
6.34338141564e-13
2.50390887764e-12
1.1438250369e-12
2.79942572728e-12
9.65958308941e-12
4.28685022462e-12
9.59098944214e-12
2.8507119858e-11
1.37688607852e-11
2.7719511438e-11
7.17022606264e-11
3.94000959013e-11
7.15160022677e-11
1.63185639579e-10
1.02254999757e-10
1.68614636321e-10
3.44009273641e-10
2.40164377625e-10
3.62796350089e-10
6.68500569304e-10
5.08168039649e-10
7.08154868427e-10
1.18451970659e-09
9.85518322984e-10
1.27728718143e-09
1.94643616297e-09
1.82151087121e-09
2.22186376264e-09
3.11607924021e-09
3.3445776811e-09
3.8928320732e-09
5.10541402474e-09
6.29526755754e-09
7.08089195955e-09
8.82461456603e-09
1.23594562299e-08
1.35838976135e-08
1.63357377766e-08
2.54328105757e-08
2.75839974622e-08
3.24687406306e-08
5.72629152616e-08
6.16169580068e-08
7.15448989956e-08
1.58827499633e-07
1.68602381728e-07
1.90532279571e-07
5.05142629323e-07
5.24027286038e-07
5.65252944612e-07
1.32105186657e-06
1.3476989919e-06
1.40527550011e-06
2.53708211289e-06
2.56715865776e-06
2.63375547105e-06
3.8107380673e-06
3.84562192387e-06
3.91995261272e-06
4.99825104113e-06
5.03351066876e-06
5.10957604781e-06
6.29884830806e-06
6.33469505227e-06
6.41155796562e-06
8.26308931991e-06
8.30037207974e-06
8.38334352196e-06
1.25263673857e-05
1.25751728876e-05
1.26856196556e-05
2.47602592796e-05
2.48154940724e-05
2.49560139024e-05
5.64472014588e-05
5.64234631314e-05
5.64819522275e-05
2.09719915756e-13
4.00513426079e-13
1.8069967413e-12
9.15381798277e-12
3.01292086141e-11
7.65061516581e-11
1.69661072472e-10
3.46949788339e-10
6.67014241868e-10
1.19306653107e-09
1.95395826269e-09
2.9711597398e-09
4.43584378248e-09
6.87695592584e-09
1.13902983996e-08
2.04486583391e-08
3.98942145322e-08
8.67219116393e-08
2.23188938159e-07
6.24030324806e-07
1.48547949266e-06
2.72606133308e-06
4.02228282725e-06
5.21200102113e-06
6.51489296238e-06
8.49578259537e-06
1.28397088054e-05
2.51643543059e-05
5.66099372348e-05
1.23187400431e-17
1.52502160907e-17
2.13131741033e-17
1.82114968893e-17
1.34257128416e-17
8.78296630082e-18
5.34156112773e-18
3.18375588115e-18
1.93441154156e-18
1.21988625111e-18
7.95226480485e-19
5.21838387888e-19
3.30385528388e-19
1.92655478634e-19
9.87047635866e-20
4.25259793899e-20
1.4661273376e-20
3.86562650821e-21
9.093327993e-22
6.57737147813e-22
1.30186069091e-15
6.79949991648e-16
9.6351571616e-16
5.44547482384e-16
2.99520351191e-16
1.56369028268e-16
7.49036798212e-17
3.29981631396e-17
1.42865566805e-17
6.54615234591e-18
3.34434793851e-18
1.89167936386e-18
1.11621495727e-18
6.36000724213e-19
3.26071478685e-19
1.42579903787e-19
5.00311069476e-20
1.37042928091e-20
6.16037456863e-21
3.4370645432e-20
2.31235638514e-14
1.85093661033e-14
3.55125893212e-14
1.14236189439e-14
4.00296499455e-15
1.54576107321e-15
6.35941839795e-16
2.39417677978e-16
8.39576425156e-17
2.92516156059e-17
1.10784970493e-17
4.9099004886e-18
2.52678201984e-18
1.36933620026e-18
6.99896548397e-19
3.1273774811e-19
1.13075466659e-19
3.32043754231e-20
4.63618913614e-20
1.19240773017e-18
2.32740815159e-13
3.38354032658e-13
6.6505283616e-13
2.21391720768e-13
5.14074691009e-14
1.31333374521e-14
4.53772845766e-15
1.48719026519e-15
4.57679403631e-16
1.37996704199e-16
4.35293687477e-17
1.5325508358e-17
6.56933106508e-18
3.28715345954e-18
1.67717446544e-18
7.79963716667e-19
2.98241267779e-19
9.66784591991e-20
3.01624394873e-19
2.55199921098e-17
1.17122761612e-12
4.06231626358e-12
6.03041249416e-12
2.70580174555e-12
5.12888424799e-13
1.02350103845e-13
2.91758856516e-14
9.24955260338e-15
2.50601221923e-15
6.25245453541e-16
1.81466643676e-16
5.5785395176e-17
2.0172850003e-17
9.15417347318e-18
4.67319848889e-18
2.30159954861e-18
9.50369972053e-19
3.27681475061e-19
6.18198944717e-19
3.42259985893e-17
7.06386892585e-12
2.54624562883e-11
3.16606526494e-11
1.70551087049e-11
3.53548857886e-12
6.22274633455e-13
1.39570093392e-13
4.22441041574e-14
1.21201959274e-14
2.78141763712e-15
7.23776516804e-16
2.14280945178e-16
7.01216992106e-17
2.92347039177e-17
1.49813195308e-17
7.85899274968e-18
3.51805600638e-18
1.27606854995e-18
1.12401790909e-18
3.64112302775e-17
3.18444155105e-11
8.85808814229e-11
1.11759026853e-10
7.22384920782e-11
1.72523495689e-11
2.90862082597e-12
5.5866504531e-13
1.57990578686e-13
4.80761313565e-14
1.21138013575e-14
2.81945179502e-15
8.2418515275e-16
2.61614498536e-16
1.03267604988e-16
5.32058581e-17
2.95565597644e-17
1.42252739485e-17
5.41215910685e-18
2.44032715839e-18
3.95293504919e-17
9.40582696388e-11
2.35449718874e-10
3.1623811406e-10
2.46535777268e-10
7.48029929251e-11
1.22833181195e-11
2.17267472523e-12
5.72475528725e-13
1.77988715445e-13
5.02269814248e-14
1.1846540378e-14
3.15551671478e-15
1.01379362952e-15
3.89259274491e-16
2.01033713891e-16
1.16920265627e-16
5.98162293583e-17
2.37853970646e-17
7.24819917038e-18
4.53070280803e-17
2.19014866223e-10
5.30326548865e-10
7.80083374473e-10
7.25850969484e-10
2.9161597177e-10
5.37318409078e-11
9.51017374806e-12
2.31271318469e-12
6.94245631039e-13
2.08131042085e-13
5.27158188762e-14
1.26702503128e-14
4.03201385519e-15
1.52825092152e-15
7.84809335321e-16
4.71728499212e-16
2.53911133206e-16
1.05043239818e-16
2.79128301688e-17
5.47534668655e-17
4.49804234846e-10
1.06922176787e-09
1.70705112804e-09
1.83368373375e-09
9.44655337468e-10
2.23961682583e-10
4.27879463588e-11
9.88800479079e-12
2.84476866332e-12
8.64362322055e-13
2.36036909764e-13
5.63595099691e-14
1.61988617477e-14
6.13853314326e-15
3.10727048486e-15
1.90599455125e-15
1.07029268491e-15
4.58615475791e-16
1.2007878188e-16
7.59774091566e-17
8.51958144753e-10
1.98762677242e-09
3.35969532193e-09
4.02720767306e-09
2.58026247324e-09
8.42627900423e-10
1.79757370665e-10
4.13722691534e-11
1.15080615945e-11
3.48587315858e-12
1.0151540478e-12
2.56426354227e-13
6.67248296557e-14
2.48114359112e-14
1.2319771331e-14
7.62836913026e-15
4.43821332418e-15
1.96268366874e-15
5.25776730252e-16
1.44819742892e-16
1.51681785243e-09
3.45410686336e-09
6.05848920346e-09
7.93409134358e-09
6.28904926952e-09
2.73256334534e-09
6.73042491277e-10
1.60079610976e-10
4.38850883646e-11
1.33619373459e-11
4.09110210707e-12
1.12543956171e-12
2.89130473602e-13
9.86895691831e-14
4.84165877136e-14
3.00304123325e-14
1.80007348097e-14
8.19449862092e-15
2.26273428063e-15
4.0912775078e-16
2.51425675651e-09
5.56558958324e-09
1.00427924057e-08
1.42984464443e-08
1.354764613e-08
7.6192365978e-09
2.28936761552e-09
5.83397292127e-10
1.60961557479e-10
4.92522777759e-11
1.56250343057e-11
4.68544903867e-12
1.25256277113e-12
3.89590532741e-13
1.87045406786e-13
1.15694340839e-13
7.11286259155e-14
3.32822108523e-14
9.47233549534e-15
1.47390803301e-15
3.84568713502e-09
8.28748384722e-09
1.53518654703e-08
2.37859838912e-08
2.63906925706e-08
1.86767888975e-08
7.1675614292e-09
2.07234555344e-09
5.92175534171e-10
1.81543228816e-10
5.83499699362e-11
1.86426023934e-11
5.31824276184e-12
1.56307990856e-12
7.02165051979e-13
4.3435239823e-13
2.73023964877e-13
1.31234394618e-13
3.84769848056e-14
5.77831511581e-15
5.45417459769e-09
1.14342341685e-08
2.1661925174e-08
3.65860960231e-08
4.75594472276e-08
4.13990887217e-08
2.09545909959e-08
7.36045706082e-09
2.24809633318e-09
6.97653494403e-10
2.21557534606e-10
7.22110830774e-11
2.18551972927e-11
6.26701624069e-12
2.56071479998e-12
1.58230169083e-12
1.01545508514e-12
5.0152871982e-13
1.51606315121e-13
2.29422605879e-14
7.54055359008e-09
1.52275083201e-08
2.92516572415e-08
5.3241124669e-08
7.9875557963e-08
8.3856981848e-08
5.68335498428e-08
2.52716830787e-08
8.59185383569e-09
2.729058648e-09
8.58344880683e-10
2.7483851494e-10
8.5760712044e-11
2.47451304786e-11
9.13933455141e-12
5.56391398256e-12
3.65082966362e-12
1.85440875682e-12
5.79148785102e-13
8.99709476423e-14
1.1046173511e-08
2.14190374517e-08
4.13809574724e-08
7.91608646086e-08
1.303693685e-07
1.57709799354e-07
1.37228229852e-07
7.96724832019e-08
3.13325406273e-08
1.02325231047e-08
3.22169529414e-09
1.00880504716e-09
3.15584321633e-10
9.29211075354e-11
3.21055658739e-11
1.87695404598e-11
1.26528493953e-11
6.62034815554e-12
2.14210939232e-12
3.45167902008e-13
1.75173736945e-08
3.30701661531e-08
6.45983399871e-08
1.27994950272e-07
2.20645854993e-07
2.92017420067e-07
2.92426680492e-07
2.14114874122e-07
1.04368822306e-07
3.59610116508e-08
1.1238448801e-08
3.44425402845e-09
1.0594659715e-09
3.19334733555e-10
1.0828562613e-10
6.08513672249e-11
4.2171464002e-11
2.27677940972e-11
7.65455156329e-12
1.2889122744e-12
3.0486075986e-08
5.67583370641e-08
1.1230099155e-07
2.2365829843e-07
3.81511924268e-07
5.21694957272e-07
5.70531757687e-07
4.78826577694e-07
2.86397299311e-07
1.13550036597e-07
3.502252144e-08
1.05001769972e-08
3.18067216232e-09
9.75079089074e-10
3.40777364993e-10
1.90683427861e-10
1.34662940579e-10
7.52403839735e-11
2.63533113879e-11
4.66624323676e-12
5.83851914719e-08
1.07939542994e-07
2.11807418322e-07
3.99164712874e-07
6.41996100374e-07
8.68669294268e-07
9.85726865279e-07
9.02869564837e-07
6.18036973554e-07
2.91618869734e-07
9.56739995422e-08
2.76315399327e-08
8.22891264521e-09
2.58054469197e-09
9.75930245874e-10
5.72949941197e-10
4.12583370753e-10
2.38452118275e-10
8.71955226868e-11
1.6327396758e-11
1.24654844522e-07
2.22978142576e-07
4.06817555259e-07
6.87691849056e-07
1.02366959524e-06
1.33799695782e-06
1.51288706739e-06
1.43806641146e-06
1.08711905442e-06
5.86110169913e-07
2.13006995671e-07
6.19035450875e-08
1.80014632511e-08
5.88976398649e-09
2.53766440062e-09
1.64497004507e-09
1.21259648181e-09
7.23240755932e-10
2.76586261323e-10
5.50941387365e-11
3.01993276655e-07
4.8241961879e-07
7.66111324469e-07
1.1459338489e-06
1.57411814014e-06
1.95546084555e-06
2.1420186698e-06
2.01758199646e-06
1.5813775355e-06
9.37862669682e-07
3.72010137961e-07
1.11258027791e-07
3.29312064362e-08
1.18371909115e-08
6.21806383284e-09
4.53111554998e-09
3.41654176496e-09
2.09574601289e-09
8.39552005583e-10
1.78991064653e-10
7.57729014487e-07
1.03345017725e-06
1.41841420449e-06
1.89288423914e-06
2.38498166635e-06
2.75655098909e-06
2.83458876262e-06
2.54933361428e-06
1.97849279905e-06
1.2337495522e-06
5.30500673489e-07
1.61398008057e-07
5.11478471608e-08
2.26337510291e-08
1.50516575493e-08
1.20406802424e-08
9.23761688731e-09
5.78668051348e-09
2.43545104662e-09
5.60501989052e-10
1.66199608317e-06
2.01611833323e-06
2.47982752435e-06
3.00366942152e-06
3.45159009097e-06
3.61427303714e-06
3.36963794076e-06
2.83034464749e-06
2.11900576624e-06
1.31786041698e-06
6.01068875063e-07
1.98266317548e-07
7.79885102193e-08
4.65484489091e-08
3.72755841631e-08
3.1102909598e-08
2.40121361813e-08
1.52580848088e-08
6.77685471534e-09
1.69348715107e-09
2.92766209687e-06
3.32677952636e-06
3.79194133853e-06
4.18470117776e-06
4.31147681582e-06
4.05797264981e-06
3.49511574921e-06
2.76802869795e-06
1.96844845398e-06
1.19289924919e-06
5.566602677e-07
2.36072449211e-07
1.41135554388e-07
1.08614024382e-07
9.40119780291e-08
7.8998074256e-08
6.03786569665e-08
3.86384506139e-08
1.80715799963e-08
4.9202250418e-09
4.23185548736e-06
4.60409458498e-06
4.9498577449e-06
5.09513534485e-06
4.90724957215e-06
4.39915119066e-06
3.67301613761e-06
2.83763842233e-06
2.00313902828e-06
1.27601021687e-06
7.5677084069e-07
4.72765158099e-07
3.50301786117e-07
2.82937132454e-07
2.38110255464e-07
1.97679289353e-07
1.46902997871e-07
9.40067315106e-08
4.61402212924e-08
1.37347094213e-08
5.41697109024e-06
5.75517372491e-06
6.01850086391e-06
6.04207564198e-06
5.74476775378e-06
5.18008741774e-06
4.41316056315e-06
3.57650826138e-06
2.79046954781e-06
2.11117734725e-06
1.58242005616e-06
1.22223746498e-06
9.33185891236e-07
7.32533282194e-07
5.83287367881e-07
4.68901937165e-07
3.51433384538e-07
2.1863958718e-07
1.11957965349e-07
3.67371702787e-08
6.72563768617e-06
7.07657945497e-06
7.3594199631e-06
7.42268353196e-06
7.21069705623e-06
6.78849366071e-06
6.14875414808e-06
5.44040445639e-06
4.77737943077e-06
4.17121286902e-06
3.61552210718e-06
3.11771583356e-06
2.4424926866e-06
1.85403854091e-06
1.38220101274e-06
1.05037879878e-06
7.9053408852e-07
5.00696968065e-07
2.57845343834e-07
9.33227973942e-08
8.73820741337e-06
9.17071124107e-06
9.58918100886e-06
9.85315279613e-06
9.8955488142e-06
9.83955002827e-06
9.63714049278e-06
9.34593937609e-06
9.04075164867e-06
8.6375868943e-06
8.13201474777e-06
7.47867723832e-06
6.16929161441e-06
4.62860970619e-06
3.23413735698e-06
2.26730733995e-06
1.64406007302e-06
1.09480724399e-06
5.6663743859e-07
2.20567065139e-07
1.31885922207e-05
1.38583017857e-05
1.46527838863e-05
1.5451756986e-05
1.61716105064e-05
1.66949564968e-05
1.72248149086e-05
1.77779621058e-05
1.82752588518e-05
1.84706703089e-05
1.81630312402e-05
1.71510908215e-05
1.48374731051e-05
1.14446381771e-05
7.67806256943e-06
4.82695082731e-06
3.2350447144e-06
2.18078216296e-06
1.18468003383e-06
4.90040919498e-07
2.56740458121e-05
2.67864331566e-05
2.82900541644e-05
3.00313182648e-05
3.18849156542e-05
3.37290151235e-05
3.54634315582e-05
3.69501963687e-05
3.8170567139e-05
3.89178226449e-05
3.8508394156e-05
3.6402913422e-05
3.21248466887e-05
2.56823052711e-05
1.76666371356e-05
1.03806550942e-05
6.14165886846e-06
3.97170261513e-06
2.29144452036e-06
1.00555620594e-06
5.69719404569e-05
5.80660224133e-05
5.96589662093e-05
6.15656486494e-05
6.3632114732e-05
6.58171613235e-05
6.7701523481e-05
6.90571361226e-05
6.98242133533e-05
6.97057228862e-05
6.78880069762e-05
6.35922873695e-05
5.6310538211e-05
1.12962041699e-15
1.21791726461e-15
7.39672670388e-16
9.50096811499e-16
5.20759782005e-16
7.47192522137e-16
4.24213706025e-16
6.81876679966e-16
4.03927005102e-16
7.03277777428e-16
4.39227123243e-16
8.06127519098e-16
5.46339253787e-16
1.03361027858e-15
7.9566262391e-16
1.51218504308e-15
1.40744367124e-15
2.59550313462e-15
3.07943289535e-15
5.32891555723e-15
8.14823704175e-15
1.30512671442e-14
2.48301478351e-14
3.73127565851e-14
8.30328024228e-14
1.2064074268e-13
2.94282469911e-13
4.24191200268e-13
1.0803579257e-12
1.57947339787e-12
4.00891891273e-12
6.00881120399e-12
1.46467708612e-11
2.25517772923e-11
5.21778130248e-11
8.19949734723e-11
1.78376477953e-10
2.82488537724e-10
5.80274285515e-10
9.15648388008e-10
1.78643144096e-09
2.77283056398e-09
5.18447936443e-09
7.81597767164e-09
1.41497100022e-08
2.04759308838e-08
3.62776072615e-08
4.99089597621e-08
8.72733794371e-08
1.13421433558e-07
1.97055696762e-07
2.41751685179e-07
4.18550933537e-07
4.86160057085e-07
8.35187122211e-07
9.29602102064e-07
)
;

boundaryField
{
    inletfuel
    {
        type            fixedValue;
        value           uniform 0;
    }
    inletair
    {
        type            fixedValue;
        value           uniform 0;
    }
    outlet
    {
        type            zeroGradient;
    }
    axis
    {
        type            empty;
    }
    leftside
    {
        type            zeroGradient;
    }
    burnerwall
    {
        type            zeroGradient;
    }
    front
    {
        type            wedge;
    }
    back
    {
        type            wedge;
    }
    procBoundary0to1
    {
        type            processor;
        value           nonuniform List<scalar> 
27
(
0.000102461791544
0.000102327245289
0.000102210741142
0.000102122218248
4.57035193642e-05
3.22413495754e-05
1.89656684139e-05
1.04745121014e-05
6.53977034896e-06
3.95572713224e-06
1.88416603941e-06
0.000102020612544
0.000102287196446
0.00010273792168
0.000103173281238
0.00010342323576
0.000103370556778
0.00010283776018
0.000101639487047
9.96199028733e-05
9.64331725935e-05
9.14364580039e-05
8.41759803743e-05
4.57035193642e-05
7.44577603947e-05
1.56621941755e-06
1.70271997837e-06
)
;
    }
}


// ************************************************************************* //
