/*--------------------------------*- C++ -*----------------------------------*\
  =========                 |
  \\      /  F ield         | OpenFOAM: The Open Source CFD Toolbox
   \\    /   O peration     | Website:  https://openfoam.org
    \\  /    A nd           | Version:  7
     \\/     M anipulation  |
\*---------------------------------------------------------------------------*/
FoamFile
{
    version     2.0;
    format      ascii;
    class       volScalarField;
    location    "0.08";
    object      k;
}
// * * * * * * * * * * * * * * * * * * * * * * * * * * * * * * * * * * * * * //

dimensions      [0 2 -2 0 0 0 0];

internalField   nonuniform List<scalar> 
814
(
21.2979930207
18.671056077
10.8138581188
21.892122229
18.719188213
9.35228684736
21.380803051
19.2340964072
8.98014432194
22.2977221199
25.7403711737
19.132405681
23.8466052753
30.9102523196
34.4741601862
25.7494506166
35.6881344209
44.8282871995
28.1322032993
40.4058193177
53.1166141048
30.979838316
45.0604717844
59.1661063117
34.3946304958
49.4089336296
63.0223771131
38.3015589463
53.2463414886
65.3895532484
42.5528500192
56.5643688534
67.1445102707
46.9845991367
59.5022604854
68.8612569635
51.3861733111
62.1285185118
70.5695812309
55.4949502632
64.352348306
71.9254992773
59.0731406567
66.0893608929
72.7061939633
61.9177678768
67.2499987645
72.7914572892
63.6911173166
67.5195867549
71.8282649225
63.63280848
66.1188291956
69.0333357399
60.1540503154
61.490055087
62.927857057
51.7342904584
52.1503524601
52.2755850575
39.2229660121
39.102705518
38.4938537562
27.196424235
26.9866069559
26.4191952668
20.3911258148
20.3389745696
20.1945142984
17.3558914308
17.3644541324
17.3693893124
14.0129830086
13.9872169202
13.9192214592
10.9909688143
10.9238986426
10.7772626408
8.80718802619
8.7280215944
8.55203478431
7.35501172889
7.27903136853
7.1149108714
6.57474517136
6.50942777822
6.36915030593
6.40027099669
6.34533336986
6.2283012632
7.03597636555
6.98413380166
6.87941617403
7.56930354278
7.54002485998
7.4720718379
6.36733406076
21.2887025384
32.9852445017
40.9926766975
46.6302375735
51.1661808322
55.2746977754
59.3565639109
63.4436150571
67.2698923927
70.4900685867
72.6935660488
73.5358003602
72.7291213282
69.5331935549
62.6043548503
51.0800518412
36.9765261876
25.3915138166
19.910724623
17.3229459016
13.7943970372
10.555608283
8.30454212634
6.89081366369
6.18274600917
6.07576142876
6.75197011204
7.39135674168
0.0157417300294
0.0304719786532
0.0372850019316
0.0392591597969
0.0388075461881
0.0377732321854
0.0363230621115
0.0346103683014
0.0327951172304
0.0308948710365
0.0288672541802
0.0267882459528
0.0246427055274
0.0226117371605
0.0206411102915
0.0190304164471
0.0175956881363
0.0166076544135
0.0158476060737
0.0159049235898
0.0273635485551
0.0420443214455
0.0590078423565
0.0621534570059
0.0584839819189
0.0534768548798
0.0479605154698
0.0429693809997
0.0386990088052
0.0351869708681
0.0320376000248
0.0292145320953
0.0265032322026
0.0240639065428
0.0217363753488
0.0198858936681
0.0182198282782
0.017114033246
0.0162422637958
0.0164894496331
0.101575722727
0.0450719400383
0.06276193313
0.0731637735259
0.0735136861366
0.0672001400934
0.0583571887177
0.0499038282578
0.0430924324827
0.0379297280773
0.0338069564508
0.030391593547
0.0273210894577
0.0246396492153
0.0221660228035
0.0201943084535
0.0184742410251
0.0173309816905
0.0164373770311
0.0169371293388
1.12080898726
0.0846244105941
0.0712727882399
0.0700055305113
0.0734204534181
0.0735808334714
0.0681694297046
0.0580173926534
0.0487708639164
0.0414902702104
0.0360520539498
0.0318280183485
0.028282343323
0.0252939554984
0.0226398106487
0.0205266217944
0.0187401895588
0.0175608330895
0.016621928129
0.0214207086941
2.01139154655
0.357129018611
0.145572728873
0.0862328175362
0.0712971148413
0.070426894472
0.0686431413069
0.0628356169752
0.054082693804
0.0457066545823
0.0390079413105
0.0338280245169
0.0296481584842
0.02624198805
0.0233108308367
0.0210066394116
0.0190948796547
0.0178598195214
0.0169445725979
0.024743072068
4.58932151949
1.00461437288
0.368120207406
0.148599040627
0.0755670927409
0.0619841579702
0.0628006252079
0.0630165504358
0.0574600725702
0.0497024617836
0.0423625137219
0.0363137196366
0.031398444149
0.0274687913883
0.0241662527435
0.0216211076059
0.0195360508733
0.0182235346516
0.017380714393
0.027788441832
8.01057502636
2.10525025617
0.776681865839
0.241747518459
0.083730735049
0.0538751648898
0.0566167853707
0.0609843680294
0.0589450610344
0.0528705340663
0.0457185383295
0.0390776833855
0.0334316016263
0.0288974763633
0.0251465542686
0.0223085767873
0.0200178289134
0.0185860632324
0.0178632228118
0.0305807906867
12.6696703818
3.7834563106
1.34091666716
0.360869787046
0.0933069004783
0.0502500701304
0.053029881759
0.0589622770713
0.0593250952292
0.0551715248724
0.0488593131139
0.0419776374401
0.0356873725856
0.030500947384
0.0262337373247
0.0230464991284
0.0205201961865
0.0189303168206
0.0182906040505
0.033161382222
18.5481839403
6.27582827683
2.24420680643
0.605513624444
0.129484679006
0.0542713078563
0.0515223053452
0.0568886367726
0.058905007284
0.0567413359154
0.051660766408
0.0449471318482
0.0381563520069
0.0323087156375
0.0274596132873
0.0238591352482
0.0210579554064
0.0192897945381
0.018640999919
0.0349990521921
25.5743428705
9.93028833672
3.77975465587
1.09484886595
0.215368442293
0.0681417732138
0.0511589672772
0.054171563485
0.0575589380838
0.057566876836
0.0540041042555
0.0478873192918
0.0408234282615
0.0343521287812
0.0288674045555
0.0247821103788
0.021654217871
0.0196948498431
0.0189614744523
0.0360699562145
33.5261059431
14.9383449764
6.16508784773
1.8858873981
0.372244963289
0.098964189054
0.0538844124417
0.0514771664181
0.0554856935033
0.057618837657
0.0557642546439
0.0506242691634
0.0436217069736
0.0366233531061
0.0304811219104
0.0258398119796
0.0223250096186
0.020153958801
0.0192946959711
0.0365870762471
41.8206962223
21.0585068639
9.36811330965
2.94922907968
0.607983289898
0.152274661551
0.0632871505887
0.0505118287533
0.0533847933091
0.0569784372596
0.056891449276
0.0529821144737
0.0464369816266
0.0390847839819
0.0323023920369
0.0270470310231
0.0230820051667
0.0206658389416
0.0196552048981
0.0367674995924
49.7740295484
27.8549958857
13.2856477445
4.30345418208
0.905450780155
0.224057558299
0.0821999459953
0.0531220781696
0.0521361290005
0.0559581236039
0.0574195506751
0.054873969925
0.0491169597094
0.0416872398369
0.0343203023152
0.0284147714719
0.0239379739575
0.0212305371191
0.0200463654404
0.0367154624814
56.9483366113
34.9144857086
17.7860646472
5.96863163237
1.24265166555
0.309324021289
0.112828013291
0.0612150622618
0.05274734827
0.0551384717295
0.057495282698
0.0562996660465
0.0515549273431
0.0443655084247
0.0365227951877
0.0299504804299
0.0249072551593
0.0218517683918
0.0204685007823
0.0364873044583
62.9233967922
41.8422601167
22.7563479532
8.04346706543
1.69869321539
0.434627484536
0.168522021389
0.080510734999
0.0572525193891
0.0553010684944
0.0574399938528
0.0573752778886
0.053678731135
0.0470256722568
0.0388910801322
0.0316578178801
0.0260027756072
0.0225358225181
0.0209176193505
0.036133462098
66.9264280047
47.7385957747
27.5553232381
10.3287244394
2.33144523258
0.675494442723
0.302657014088
0.135300544519
0.0732821956305
0.0584425940255
0.0576678065994
0.0581351130145
0.0554724801785
0.0495495168019
0.0413829877036
0.0335346636397
0.0272333637948
0.0232905483405
0.0213914058781
0.0357006826552
67.897146956
50.7170965338
30.4164333452
12.0407561335
3.1395318853
1.13107167458
0.629736509973
0.309776200778
0.131444466967
0.0723498389273
0.0596727608526
0.0584859823359
0.0567732994091
0.0517712511118
0.0438889103259
0.0355591179092
0.0285971718552
0.0241226882768
0.0218892114077
0.0352280296363
65.2493120458
49.4329746396
29.654851324
11.9481903964
3.7304366508
1.82706834204
1.27397430964
0.787397932038
0.340460971493
0.128371520783
0.0706086101619
0.0594733657554
0.0572966046683
0.053417068547
0.0461996882456
0.0376747008778
0.0300812161473
0.0250347024252
0.0224120012016
0.0347454656011
57.9091993472
43.0756466046
24.9230006321
10.3047208766
4.37256353772
2.96705368631
2.40581330733
1.75031441102
0.923063518953
0.32394738213
0.113574948299
0.0659923809994
0.0575970576013
0.0542371366855
0.0480902471704
0.0397360490044
0.0316449910395
0.0260177238308
0.0229604774185
0.0342781975083
45.8361528207
32.8244243436
18.6154738382
9.20731493009
5.84945272797
4.73382751364
3.93337116816
3.0752062003
1.93746749399
0.809959494083
0.241074908388
0.0890412394862
0.0599144874213
0.0544075116402
0.0493777492185
0.0415880706585
0.0332253105192
0.0270504708062
0.0235337070611
0.0338434025372
32.2866699814
23.0925792886
14.7797207384
10.2307752399
8.28090698407
6.7805447359
5.33564202981
4.16044684997
2.99423681384
1.52073528448
0.493089425609
0.141664092228
0.0671248688411
0.054704994491
0.0500561275944
0.0430824819756
0.0347053649595
0.0280870874179
0.0241239471916
0.0334489886612
22.6621452166
18.2582752672
14.8472607156
12.6696224661
10.5584857818
8.07070911821
5.84313410731
4.34763819842
3.32674930175
2.02908457166
0.765715592459
0.209855095592
0.0777625446181
0.0553640781159
0.0504290649576
0.0441772940146
0.0359542940214
0.029073399733
0.0247171983191
0.0330924832291
19.1127091339
17.6947100102
16.0917914221
13.8757774465
10.78761778
7.51337420976
5.00105706248
3.52799483721
2.79027097933
1.98948407758
0.873156526938
0.242589946078
0.0822033349017
0.0556016902342
0.0506889368403
0.0448098439211
0.0368544416868
0.0299437109756
0.0252954088792
0.0327600115009
17.0860217479
16.1674503654
14.3751043181
11.5694380988
8.20290659266
5.18312586186
3.26038225991
2.22289664472
1.74871081123
1.40981918721
0.704973215456
0.205023512282
0.0751016268861
0.0549974742981
0.0508733937927
0.0451038535708
0.0374761562809
0.0307051391268
0.0258622493929
0.0324294493741
13.438024124
12.2862164572
10.3055840391
7.70989678934
5.09978125298
3.0838527164
1.83545404739
1.14799497931
0.835915546559
0.67807937983
0.360676255205
0.118801041894
0.0637420398344
0.0549305755833
0.0511204735072
0.0451107717441
0.0379503179063
0.031431583918
0.0264316999964
0.0320747073684
10.0551296056
8.83767272531
7.08335597996
5.07066683482
3.24013537341
1.89431179318
1.05161767903
0.596160554381
0.38616357792
0.277458393839
0.164110793982
0.0816431397505
0.0629266372234
0.0565330588744
0.0512438003972
0.0450630633369
0.038590252256
0.0323580652948
0.0270977824303
0.0316966791519
7.78207480274
6.68125031308
5.26665389618
3.7784442673
2.4785806098
1.44426617765
0.749142902097
0.40218624463
0.250990178909
0.176182035876
0.120745140866
0.0858290474473
0.0698150309039
0.0594802583553
0.0515336748536
0.0452937612793
0.0394941165739
0.0335720840365
0.0279305962275
0.0313170130328
6.4233555936
5.50422658466
4.39767607128
3.30645621941
2.36872095049
1.44192742303
0.746564303531
0.417647075706
0.274859790061
0.201315968875
0.1518688625
0.121071796135
0.0927716007242
0.0708824910643
0.0556731034647
0.0464779820934
0.0405561187752
0.0350027163227
0.0290316098709
0.0310520539272
5.78609164831
5.03355715074
4.13993100933
3.26588179794
2.52241268637
1.7096063781
1.01662602974
0.639839593482
0.452824764528
0.344293155535
0.271782676509
0.221994354415
0.167642839499
0.116852971823
0.0776313823066
0.0540347538922
0.0428503020403
0.0366093306167
0.0303679573949
0.0310198100751
5.74694309648
5.14162853716
4.4148350676
3.67101912117
2.99658088999
2.27585877962
1.64944006438
1.22611963149
0.950094435681
0.754804655418
0.606652399725
0.489486082869
0.375172461856
0.261276274746
0.157483610505
0.0850755157941
0.0514373028758
0.0391577453429
0.0319573399925
0.0314635877668
6.4799322202
5.99043519087
5.38811536765
4.73455144449
4.08791885529
3.4430391252
2.85427141492
2.35402969834
1.93402196767
1.57898676088
1.26905021367
1.0021794232
0.773385152527
0.571678052111
0.368739491464
0.181868046967
0.0795202088122
0.0452291463558
0.0338799499079
0.0323937716055
7.20386927818
6.83531384576
6.35379733906
5.79469412656
5.19376860818
4.57644780825
3.96283388554
3.3681116494
2.79783965378
2.25879963609
1.77604041748
1.38063101226
1.07825938504
0.0574370402978
0.0602265237509
0.111065714987
0.0779875619753
0.116208645721
0.0877945254346
0.112408391197
0.0864154200355
0.10576690558
0.0818589460652
0.0981297186713
0.0762999272276
0.0910122850652
0.0707183584813
0.0845362535344
0.0654075081891
0.0788227074594
0.0604540896253
0.0737769919269
0.0558740864102
0.0693182341893
0.0516666186546
0.0653789812164
0.0478204862936
0.0619027700468
0.0443228438453
0.0588362980452
0.0411588616255
0.0561394505756
0.0383136185754
0.0537885937779
0.0357763208121
0.051768942122
0.0335342680486
0.0500654489042
0.0315767729523
0.0486576594735
0.0298988009217
0.0475245186642
0.0285049933419
0.046616754229
0.0274000299548
0.0458866675102
0.0266074887846
0.0452779672806
0.0261292861264
0.0447708686652
0.0259894834913
0.0443999530487
0.0261774226896
0.0442591395799
0.0266858078175
0.0445061255688
0.0274671918856
0.0452843144857
0.0284786251571
)
;

boundaryField
{
    inletfuel
    {
        type            turbulentIntensityKineticEnergyInlet;
        intensity       0.05;
        value           uniform 13.5;
    }
    inletair
    {
        type            turbulentIntensityKineticEnergyInlet;
        intensity       0.05;
        value           uniform 0.015;
    }
    outlet
    {
        type            inletOutlet;
        inletValue      nonuniform 0();
        value           nonuniform 0();
    }
    axis
    {
        type            empty;
    }
    leftside
    {
        type            kqRWallFunction;
        value           nonuniform List<scalar> 
33
(
0.0574370402978
0.0602265237509
0.0159049235898
0.0164894496331
0.0169371293388
0.0602265237509
0.0779875619753
0.0877945254346
0.0864154200355
0.0818589460652
0.0762999272276
0.0707183584813
0.0654075081891
0.0604540896253
0.0558740864102
0.0516666186546
0.0478204862936
0.0443228438453
0.0411588616255
0.0383136185754
0.0357763208121
0.0335342680486
0.0315767729523
0.0298988009217
0.0285049933419
0.0274000299548
0.0266074887846
0.0261292861264
0.0259894834913
0.0261774226896
0.0266858078175
0.0274671918856
0.0284786251571
)
;
    }
    burnerwall
    {
        type            kqRWallFunction;
        value           nonuniform List<scalar> 7(10.8138581188 9.35228684736 8.98014432194 0.0157417300294 0.0273635485551 0.101575722727 6.36733406076);
    }
    front
    {
        type            wedge;
    }
    back
    {
        type            wedge;
    }
    procBoundary0to1
    {
        type            processor;
        value           nonuniform List<scalar> 
27
(
5.36947318043
5.3626227833
5.33199673742
5.29239664521
0.843580426877
0.608928824171
0.329687657431
0.127281225738
0.0549022133084
0.035909443189
0.0338135854878
5.20169174183
4.99966151262
4.71840489403
4.37297161635
3.97625717034
3.53808525383
3.06543875257
2.58287261205
2.10635689408
1.66523947302
1.30115314064
1.03324731466
0.843580426877
0.859539733128
0.0467968506188
0.0295847608154
)
;
    }
}


// ************************************************************************* //
