/*--------------------------------*- C++ -*----------------------------------*\
  =========                 |
  \\      /  F ield         | OpenFOAM: The Open Source CFD Toolbox
   \\    /   O peration     | Website:  https://openfoam.org
    \\  /    A nd           | Version:  7
     \\/     M anipulation  |
\*---------------------------------------------------------------------------*/
FoamFile
{
    version     2.0;
    format      ascii;
    class       volScalarField;
    location    "0.08";
    object      N2;
}
// * * * * * * * * * * * * * * * * * * * * * * * * * * * * * * * * * * * * * //

dimensions      [0 0 0 0 0 0 0];

internalField   nonuniform List<scalar> 
814
(
3.39420959117e-08
2.64418091867e-08
9.85827885991e-09
3.74852712814e-06
3.94297380557e-06
3.09141221866e-06
0.000205534498399
0.000353540455625
0.000863658839142
0.00687815056957
0.0214493818937
0.170881888127
0.0173766846859
0.043687666145
0.191794634231
0.0316104720838
0.0682212430295
0.21447056309
0.0500023211765
0.0953433194996
0.238040862225
0.0721599565334
0.124528873794
0.259867832017
0.0986169161139
0.154857863069
0.279244385225
0.129339253509
0.185718222579
0.296735648021
0.163746627046
0.216880633802
0.313540324976
0.200879732814
0.248243793676
0.330600551485
0.239177432853
0.279270190081
0.347821492041
0.27649087322
0.308714299701
0.363992407492
0.31088573794
0.335537004303
0.378479208498
0.341527271071
0.359653313703
0.392007446066
0.369199246839
0.382231613109
0.406239155068
0.396515303787
0.405932354043
0.423929739439
0.427604672323
0.43468277281
0.448742800561
0.46605253952
0.471703499249
0.483256627025
0.511260200274
0.515844033785
0.525363782589
0.556089721661
0.559549837946
0.566725414609
0.592849392004
0.595054272344
0.599598276063
0.620997217914
0.622294807347
0.625001902343
0.645243182068
0.646189733417
0.64825100003
0.665479903445
0.666468177117
0.668603806364
0.679907774595
0.680890175187
0.683027310522
0.689480569186
0.690371738746
0.692301767053
0.695768132253
0.696525100125
0.698168773447
0.69952547673
0.70014884955
0.701497811991
0.703117126524
0.703567866905
0.704545026533
0.713780187892
0.714000918243
0.7145143242
0.538990333874
0.488160922412
0.448073982456
0.432473573919
0.423386056409
0.416721891183
0.412491921772
0.411041387789
0.412594495568
0.416191366151
0.41971061799
0.422564185526
0.426276258333
0.432808741527
0.444923742066
0.466040325251
0.49807725279
0.537832447541
0.576077223813
0.605447654554
0.628542764963
0.651065079344
0.67159550025
0.68599771024
0.694960064349
0.70041807532
0.703348841192
0.705892962349
0.715238748232
0.767995364591
0.767997094698
0.767998523063
0.767999284115
0.767999677475
0.767999862586
0.767999944979
0.767999979358
0.767999992834
0.767999997731
0.767999999355
0.767999999838
0.767999999965
0.767999999994
0.767999999999
0.768
0.768
0.767999999999
0.767999999994
0.767999999983
0.76740593586
0.767826887213
0.767953558326
0.767983116664
0.767993835009
0.767997763855
0.767999221054
0.767999742329
0.767999920125
0.767999977279
0.767999994178
0.767999998674
0.767999999735
0.767999999955
0.767999999993
0.767999999999
0.767999999999
0.767999999993
0.767999999898
0.767999999082
0.763984750592
0.767147468846
0.767599713063
0.767870543438
0.767950893381
0.767983036166
0.767994486666
0.767998356373
0.767999539691
0.767999879012
0.76799997121
0.767999993931
0.767999998871
0.767999999817
0.767999999975
0.767999999997
0.767999999997
0.767999999957
0.767999998906
0.76799996836
0.733988045148
0.764066767514
0.76580242374
0.767013567286
0.767601302793
0.767873823994
0.76796098665
0.767989997263
0.767997618079
0.767999436187
0.767999872154
0.767999974229
0.767999995405
0.767999999281
0.767999999904
0.767999999989
0.76799999999
0.767999999802
0.767999992386
0.767999325818
0.711395253842
0.750872868075
0.759628916415
0.764291350776
0.766403609453
0.767359344488
0.767777269968
0.767940301572
0.767987960346
0.767997774581
0.767999511371
0.767999901422
0.767999982524
0.767999997278
0.767999999635
0.767999999957
0.767999999971
0.76799999951
0.767999984996
0.767999093802
0.678960334773
0.731936068178
0.748838954601
0.759022697362
0.764261624438
0.766486060732
0.767479544695
0.767848741953
0.767964360397
0.767993281656
0.767998554041
0.767999685597
0.767999941396
0.767999990571
0.767999998701
0.767999999846
0.767999999927
0.767999999014
0.767999976421
0.767999034918
0.64967442754
0.710791779625
0.735906737069
0.753037747824
0.761920688482
0.765701235102
0.767208613788
0.767744901777
0.767927573951
0.767983385407
0.767996462681
0.767999159446
0.767999828995
0.76799997069
0.767999995753
0.767999999479
0.767999999832
0.767999998235
0.767999965115
0.767998956747
0.621152611878
0.690963903458
0.724851081296
0.748309264618
0.760439769712
0.765262943516
0.7669976833
0.767633060674
0.767875224507
0.76796477338
0.767991875177
0.767998071062
0.767999562176
0.767999918444
0.767999987377
0.767999998369
0.767999999616
0.767999997104
0.767999950887
0.767998828254
0.594885472395
0.67234406561
0.714048839687
0.743169264275
0.758878618388
0.764708464688
0.766706955611
0.767476997023
0.767798168854
0.767932992079
0.767982521756
0.76799595862
0.767998997795
0.767999795306
0.767999965833
0.767999995306
0.767999999115
0.767999995519
0.76799993411
0.767998678343
0.571590024518
0.653717936843
0.701438911185
0.735871329419
0.756207772161
0.763622248599
0.766204321731
0.767238362823
0.767686279472
0.767883969861
0.767965483323
0.767991629346
0.767997936634
0.767999531535
0.767999915062
0.767999987509
0.76799999793
0.767999993304
0.767999914556
0.767998518979
0.551468205505
0.63504296068
0.687128085507
0.726704711984
0.752293342147
0.761923477362
0.765458568372
0.766900220702
0.767532838425
0.767814760562
0.767937601671
0.767983370879
0.767996006607
0.767999010808
0.767999804472
0.767999969088
0.767999995163
0.767999990168
0.76799989132
0.767998342176
0.534788712449
0.617165314236
0.672452162247
0.717090772472
0.747529227502
0.759885860134
0.764548956136
0.766479398739
0.767338193985
0.76772387573
0.767896611709
0.767969021658
0.767992298796
0.767998082582
0.767999580725
0.767999928375
0.767999988891
0.767999985624
0.767999862961
0.76799813678
0.520814858027
0.599898778609
0.657397780346
0.70716943742
0.742837649968
0.757980825721
0.763636872478
0.766019561866
0.767106983209
0.767610102762
0.767841145955
0.767946183267
0.76798559509
0.767996472652
0.767999156348
0.767999843736
0.767999975215
0.767999978821
0.767999827351
0.767997895427
0.508167591366
0.582628280787
0.641490184007
0.696593009002
0.738429705538
0.756397730219
0.762848348014
0.765566241646
0.766848030151
0.767471427966
0.767770303984
0.767912725491
0.767974103174
0.767993534664
0.767998412054
0.767999676993
0.767999946569
0.767999968254
0.767999781986
0.767997611733
0.495806368754
0.564873297344
0.624041164868
0.68400593002
0.732921866602
0.75437314338
0.761880265032
0.765034434285
0.766541566234
0.767297276592
0.767679063134
0.76786599532
0.767955285577
0.767988256577
0.767997140332
0.767999364538
0.767999889045
0.767999951247
0.76799972436
0.767997276917
0.485192646336
0.5482723723
0.60711917527
0.670936169234
0.725799988273
0.750420984413
0.759695481686
0.763956982109
0.766024517649
0.767034416629
0.767546027152
0.767799592115
0.767925335016
0.767978729684
0.767994895229
0.767998806026
0.767999777853
0.767999923083
0.767999651154
0.767996878297
0.48065130239
0.537975364804
0.596649969353
0.662608488718
0.718317595238
0.743740840873
0.754765684996
0.761214064779
0.764812994055
0.76651737086
0.767313069005
0.767694112
0.767877208086
0.767961703921
0.76799068589
0.767997866453
0.76799957329
0.767999875789
0.767999557949
0.767996397667
0.484788912246
0.538185344914
0.597203004439
0.662570140539
0.712411876637
0.734743538665
0.746369305405
0.755139078386
0.761745825178
0.765318936204
0.766841325811
0.767503158278
0.767797617062
0.767931827871
0.767982860992
0.767996294667
0.767999215476
0.767999796692
0.767999438586
0.767995810672
0.500618848445
0.551488429519
0.60975840776
0.668617592452
0.706195239599
0.722689404895
0.733638802674
0.744832766868
0.755348759565
0.762570233412
0.765869789948
0.767146111271
0.767662730709
0.767881750678
0.767968914522
0.767993557106
0.767998651344
0.767999668381
0.767999284104
0.767995085216
0.5288508781
0.576358576086
0.628661921853
0.672759983185
0.696413600445
0.708078016959
0.718792028643
0.73186811296
0.746071077318
0.757634350932
0.764024085858
0.766530597737
0.767448865705
0.767805853548
0.767946638959
0.767989137992
0.767997821945
0.767999470558
0.767999081391
0.767994177998
0.564090746726
0.603825748771
0.642503083424
0.669615392801
0.684169212644
0.694769592773
0.707176212473
0.721768237301
0.737284877521
0.751771169438
0.761405630594
0.765635335456
0.767161552115
0.767710252083
0.767917775293
0.76798295119
0.767996695334
0.767999181119
0.767998810716
0.767993028633
0.595472719017
0.622867202369
0.646645731514
0.663176473942
0.675563875275
0.688894488321
0.704473352926
0.720184284577
0.734603512477
0.748210415033
0.759170514073
0.764774700965
0.766883099536
0.767623019113
0.767889914268
0.767976093357
0.767995325075
0.767998776899
0.767998441362
0.76799155489
0.617311743579
0.634003611552
0.649393440897
0.663434350965
0.678552520623
0.696081581789
0.713794223384
0.728393127996
0.739421349387
0.749200256297
0.758529714961
0.764441408809
0.766776741531
0.767587114428
0.767874750341
0.767970698984
0.767993719944
0.767998216967
0.767997921016
0.767989641469
0.635859312051
0.647837780916
0.661672673228
0.677935925662
0.697007742732
0.716828955667
0.732532520406
0.742743923914
0.749209941794
0.75423576562
0.760071143942
0.764866390279
0.766908301591
0.767621308295
0.767874932274
0.767966732277
0.767991587337
0.76799736047
0.767997153111
0.767987126926
0.657153429172
0.669135525467
0.68482690746
0.703346961064
0.722126788688
0.737814855396
0.748258681096
0.754401624614
0.75796037058
0.760202323928
0.763074690463
0.765978983981
0.767219070643
0.767691308083
0.767878856074
0.767960135271
0.767987883766
0.767995829258
0.767995954223
0.767983791778
0.677912986895
0.69056667876
0.706593188093
0.723717424744
0.738839071865
0.749762009688
0.756423635232
0.760249387734
0.762488530415
0.763925945265
0.76528567808
0.766729016276
0.767417134359
0.767714678459
0.767861918428
0.767940864472
0.767979428133
0.767992707483
0.767993970851
0.767979326905
0.692201223597
0.704361436262
0.719127250546
0.73398470921
0.746230594067
0.75453487666
0.759431685186
0.762233919432
0.763927271308
0.765063367801
0.766001471296
0.766832758443
0.767340662369
0.767609799655
0.767782660856
0.76789229295
0.767957241311
0.767985759261
0.767990509428
0.767973232408
0.700592178241
0.711530283577
0.724591761788
0.737504523248
0.748066511336
0.755257714941
0.759498275413
0.761962037638
0.763516304158
0.764616971241
0.76550401977
0.766230286172
0.76683559434
0.767246359179
0.767558711853
0.767773847168
0.767902289806
0.767968059321
0.767984105074
0.76796484623
0.70531371164
0.714764743739
0.726058371492
0.73725300746
0.746550917468
0.753062835681
0.757188955766
0.75975883523
0.761441299442
0.76269273718
0.763725109673
0.764611749531
0.765519682293
0.766319171621
0.766994827601
0.767483472606
0.767777062247
0.767923557068
0.767971303345
0.767953054445
0.707430677033
0.715158202334
0.7244211329
0.733721175252
0.741741218602
0.747934572069
0.752188972407
0.755063822421
0.757105418536
0.758711280678
0.760094026933
0.761376414903
0.762774317193
0.764242414191
0.765678345043
0.766813917372
0.767499417739
0.767828548746
0.767944936061
0.767936076035
0.70889203862
0.714499839749
0.721318394275
0.728402990237
0.734900049946
0.740368307948
0.744707483417
0.7481379893
0.750869959946
0.753071544561
0.754986977959
0.756794659134
0.758708076076
0.760833918707
0.763185226441
0.76542027886
0.766937652291
0.767653229335
0.767897013441
0.767911357931
0.716880621542
0.720041025595
0.724013626036
0.728354719564
0.732657190275
0.736660272461
0.74029985172
0.74359821512
0.746578919717
0.749246694504
0.751606565843
0.75371702253
0.755755802908
0.767970370978
0.767968593658
0.767980737061
0.767976317809
0.767986725148
0.767982108153
0.767989651665
0.767984776906
0.767990875578
0.767985864617
0.7679912559
0.767986169487
0.767991146457
0.767985963408
0.767990708434
0.767985393213
0.767990003878
0.767984505016
0.767989056882
0.767983303541
0.767987866043
0.767981764008
0.767986408425
0.767979833039
0.767984644713
0.767977428867
0.76798250819
0.767974439286
0.767979895761
0.767970690065
0.767976658079
0.767965935885
0.767972589826
0.767959845822
0.767967405503
0.767951983465
0.767960751589
0.767941853264
0.767952234546
0.767928870819
0.767941465087
0.767912494032
0.767928154394
0.767892320374
0.767912126977
0.76786812221
0.767893370986
0.767839919247
0.767871885258
0.767807807865
0.767847237568
0.767771697366
0.767818674333
0.767730976646
0.767783889048
0.767683744676
)
;

boundaryField
{
    inletfuel
    {
        type            fixedValue;
        value           uniform 0;
    }
    inletair
    {
        type            fixedValue;
        value           uniform 0.768;
    }
    outlet
    {
        type            zeroGradient;
    }
    axis
    {
        type            empty;
    }
    leftside
    {
        type            zeroGradient;
    }
    burnerwall
    {
        type            zeroGradient;
    }
    front
    {
        type            wedge;
    }
    back
    {
        type            wedge;
    }
    procBoundary0to1
    {
        type            processor;
        value           nonuniform List<scalar> 
27
(
0.733085680606
0.73311302156
0.733246855016
0.733464661489
0.758021836929
0.760735382425
0.763781355078
0.766231613624
0.767437296603
0.7678349922
0.767877274148
0.733994689597
0.735207215722
0.736841002169
0.738751206641
0.740820760592
0.742981038902
0.745197019614
0.747435427647
0.749648466015
0.751744486886
0.753588516639
0.755141297957
0.758021836929
0.756509286939
0.767738603543
0.767626423653
)
;
    }
}


// ************************************************************************* //
