/*--------------------------------*- C++ -*----------------------------------*\
  =========                 |
  \\      /  F ield         | OpenFOAM: The Open Source CFD Toolbox
   \\    /   O peration     | Website:  https://openfoam.org
    \\  /    A nd           | Version:  7
     \\/     M anipulation  |
\*---------------------------------------------------------------------------*/
FoamFile
{
    version     2.0;
    format      ascii;
    class       volScalarField;
    location    "0.08";
    object      nut;
}
// * * * * * * * * * * * * * * * * * * * * * * * * * * * * * * * * * * * * * //

dimensions      [0 2 -1 0 0 0 0];

internalField   nonuniform List<scalar> 
814
(
0.00242006589057
0.00149876847184
0.000196834343833
0.00202314453698
0.00125827486601
0.000170345647083
0.00180854126677
0.00117659483854
0.000163751412714
0.00156673068443
0.00111470158959
0.00027559954197
0.00138024832055
0.00104629672073
0.000480604997557
0.00124926483498
0.00103315111647
0.000668074717937
0.00117780266327
0.00107012645539
0.000861105462787
0.00117141583133
0.00114886443307
0.00105139139832
0.0012194603237
0.00126075010949
0.00123620598261
0.0013171914317
0.00140032693598
0.0014241828234
0.00146209303263
0.00156838291231
0.00163033192625
0.00165370624135
0.00177045441838
0.00186849481892
0.00189138671483
0.00201103170454
0.00214336551704
0.0021718436864
0.00228889222663
0.0024482291217
0.00248975418882
0.00260007553176
0.00277354064631
0.0028361226938
0.00293568827293
0.00310659815146
0.00318777729588
0.00327048537028
0.00341876722663
0.00348802991188
0.00354590447754
0.00365061901885
0.00361820063349
0.00364506544031
0.00368990873858
0.00343113026124
0.0034270927623
0.00341110043847
0.00291169062728
0.00288982441984
0.00284099605184
0.00236408263964
0.00234974704816
0.00232201529216
0.00231385000981
0.00232617829019
0.00235640295299
0.00268217845119
0.00270140200487
0.00274287440908
0.00274341842765
0.00274676712588
0.00275334830543
0.00255948222498
0.00254937917051
0.0025269899061
0.00236059079969
0.00234442955595
0.00230924549966
0.00220390651716
0.00218724936761
0.00215142362181
0.00211804498155
0.00210352397647
0.00207235647696
0.0021302226011
0.00211866137191
0.00209390129961
0.00232986183385
0.00232055954306
0.00230158580092
0.00255855792246
0.00255342589935
0.00254264114356
0.00245122948193
0.000430496064567
0.000613753402747
0.000786794873065
0.000955291411586
0.00113728604621
0.00134555853637
0.00159121580917
0.00187952546045
0.00220656149447
0.00255836339992
0.00291610164216
0.00325957098151
0.00355474798501
0.0037412937185
0.00371274063447
0.00336494963821
0.00276492439219
0.00228907467041
0.00240632201436
0.00279905861098
0.00275873824905
0.00249382235378
0.00226006765151
0.00210221909835
0.00202998003302
0.00206051792934
0.00227725458351
0.00252907131188
2.67474119692e-05
0.000147787026411
0.000210958930567
0.000240316804781
0.00025915619355
0.000277751112083
0.000298139140953
0.000319522265108
0.0003410741046
0.000360574660174
0.000376431954192
0.000387280046605
0.000392176825444
0.000391284905707
0.000384819799379
0.000375714073204
0.000364442982285
0.000354524592011
0.000330495510196
9.71161455025e-05
4.24330299767e-05
0.000108136804164
0.000181484308551
0.000230693244227
0.000265382360555
0.000293142355679
0.000316724988478
0.000339134591729
0.000360094184594
0.00037909663128
0.000393875453188
0.000403863186538
0.000407408227942
0.000405302874164
0.000396861250437
0.00038629397129
0.00037282039057
0.000361294089689
0.000326991032167
9.88859719985e-05
9.16891416728e-05
3.56229777823e-05
7.61821864445e-05
0.000156968021982
0.000218616313821
0.000267511889914
0.000305191053154
0.000336938785258
0.000363142700275
0.00038425151689
0.000399526310469
0.00040934378619
0.000412580156533
0.000410085415651
0.000401318675468
0.000390202234529
0.00037642310144
0.00036425008076
0.000323819321325
0.00010022030271
0.000215140075317
2.06692778761e-05
2.98243906928e-05
5.65265760758e-05
9.76258012983e-05
0.000168978762204
0.000237836276697
0.000298827015007
0.000347652484729
0.000381907384496
0.000402709659396
0.000413993199137
0.000417428920176
0.000414651436809
0.000405662848534
0.000394006699771
0.000379985749783
0.000367141063979
0.000321314262425
0.000112517967581
8.15158255581e-05
2.65867426183e-05
2.30778208939e-05
2.61481563253e-05
3.91362222673e-05
7.04813421764e-05
0.000123960437768
0.000205394617436
0.000293828970779
0.000363070080372
0.000401935323989
0.000419444277721
0.00042428097304
0.000421303798277
0.000411702000521
0.000399237754697
0.000384492475205
0.000370738128721
0.000318467712978
0.00011720412741
0.000151102194021
7.27628013242e-05
4.66543369189e-05
2.63461220218e-05
2.15269082471e-05
3.17155543329e-05
6.60485309784e-05
0.000137855329325
0.000236793384962
0.000331386881192
0.00039313854158
0.000422903488053
0.000431909219533
0.000429534085987
0.00041919899644
0.000405778667199
0.000389940007467
0.000375085445092
0.000316568528042
0.000121172961444
0.00027705190639
0.000150010601323
8.83824375106e-05
3.63734791936e-05
1.73972119482e-05
1.90309946453e-05
4.38013137202e-05
0.00010368382658
0.000196356258876
0.000296802332964
0.000375324007618
0.000420822894225
0.000437930253903
0.000437927358747
0.000427281220451
0.000412893167568
0.000395793830107
0.00037943745775
0.000314667947389
0.000125605702738
0.000460754931953
0.000263048296821
0.000144006751931
5.15186361294e-05
1.76699561296e-05
1.54964168126e-05
3.55665318972e-05
8.5867328628e-05
0.000166867009708
0.000262598004328
0.000350430423611
0.000411522932633
0.000440405079018
0.000445367038154
0.000435404751592
0.000420192156053
0.000401768784833
0.000383489118022
0.000311635778322
0.000130596591819
0.000707705323207
0.000427955946613
0.000230420445396
8.28582405616e-05
2.33309132647e-05
1.51085112086e-05
3.00123266259e-05
7.11531441965e-05
0.000140665588773
0.000229537818318
0.000321668062028
0.00039577540496
0.000438332012255
0.000451176553581
0.000443442579604
0.000427768983688
0.000407975756098
0.000387521276079
0.000307699724655
0.00013470681571
0.00101940627678
0.000664994762003
0.000371517619704
0.000143141092604
3.68657494706e-05
1.65906274683e-05
2.39810154775e-05
5.55831718782e-05
0.000115583399054
0.000198608516715
0.000291722762214
0.000375308184194
0.000431330067414
0.000454664863385
0.000451238135446
0.000435801162937
0.000414627788388
0.000391840440133
0.000303756995051
0.000137657460341
0.00139074132188
0.000983059202515
0.000580248234314
0.000236414920697
6.09114771103e-05
2.16218573635e-05
1.98573546879e-05
4.15277141249e-05
9.27200813026e-05
0.000170359559033
0.000262123725061
0.000351682455291
0.000419537717372
0.000454938272024
0.000458271364313
0.00044424042176
0.000421828065878
0.000396518945473
0.000300399119146
0.000139835824453
0.00180471187625
0.00136839561192
0.000848822209041
0.00035664472612
9.66425211871e-05
3.19399330077e-05
1.97977300027e-05
3.23317310094e-05
7.41638834444e-05
0.000145148770611
0.000233797526607
0.000326097774544
0.000403562844227
0.000451237531555
0.000463694976357
0.000452778180361
0.000429561752008
0.000401481486657
0.000297511202664
0.000141641104911
0.0022401187045
0.00180018734849
0.00116799714722
0.000503822651254
0.000140707776078
4.82815367826e-05
2.49786168663e-05
2.92279606424e-05
6.12303604116e-05
0.000123528327024
0.000207210802367
0.000299645327743
0.000384200433964
0.00044334094756
0.000466566967706
0.000460902259573
0.000437734724231
0.000406634612404
0.000294562848733
0.000143222328072
0.00267979571837
0.00225884053284
0.00152918897438
0.000679398262267
0.000190208484693
7.27480933454e-05
3.82012964283e-05
3.26630543086e-05
5.43203337616e-05
0.000105964895751
0.000182520645336
0.000272898993841
0.00036201474484
0.000431317993446
0.000466083436587
0.000467925164847
0.000446160869833
0.000411917014736
0.000291393487865
0.000144638844672
0.00310136718742
0.00272278817019
0.00192506384998
0.000893265369401
0.000255271056722
0.000113005062806
6.71648590054e-05
4.44986289695e-05
5.25789228411e-05
9.13014979268e-05
0.000158779696483
0.000245289519404
0.000336798155411
0.000415019020052
0.000461625230185
0.000473029833157
0.000454516412568
0.000417291716474
0.000288379288691
0.000145956171008
0.00346799484531
0.00313654388111
0.00230036060397
0.00111684814524
0.000341311309807
0.000179453782894
0.00012780729765
7.23224784218e-05
5.6233356949e-05
7.69509204897e-05
0.000132049061496
0.000213447264492
0.000306567349134
0.000393167057297
0.000452326370501
0.000475251807995
0.000462304237318
0.000422725573493
0.000285849431183
0.00014723969122
0.00372941792645
0.00339169573823
0.00251556904932
0.00126161671526
0.000445912663165
0.000288699217092
0.000248037496852
0.000145310837954
7.80214419123e-05
6.65256213168e-05
9.97399808199e-05
0.000171494342223
0.000266316757784
0.000362721858273
0.000436589681551
0.0004735020506
0.000468834843453
0.000428154583896
0.000284105682161
0.000148537463997
0.00383022516448
0.00342024057508
0.0024855011518
0.00126204877085
0.000565932000946
0.00049610672306
0.000467894256838
0.000320457979587
0.000160200183236
7.99240880944e-05
7.38718010433e-05
0.000121118751831
0.000211158529159
0.000318978520459
0.00041152760297
0.000466481370219
0.000473310888924
0.000433450345429
0.000283377672862
0.000149894515167
0.00367555479887
0.00315783091135
0.00220234180383
0.00118985808068
0.000805727253364
0.000865113919009
0.000825675023279
0.00063776102072
0.000368239943568
0.00015417706755
7.60860421284e-05
8.21243703535e-05
0.000148308313869
0.000259997573134
0.000374637565054
0.000452802715171
0.000474996131384
0.000438381394315
0.000283760934725
0.000151370656804
0.00320627297385
0.00264179151599
0.00185312443088
0.0013115161739
0.00130542948078
0.00136102334051
0.00125877831744
0.00104070540427
0.000697416534655
0.000328545110723
0.000121988173475
7.05080623279e-05
9.9518939029e-05
0.000195969740179
0.000327533397999
0.000432334126491
0.00047350908472
0.000442653933284
0.000285223935428
0.000153020972649
0.00257881136464
0.00217564264023
0.00183967366942
0.00183770165227
0.00193286440938
0.00183646817349
0.00160873071186
0.00134668377236
0.00101835126483
0.000567841892653
0.000216206691013
8.44559833322e-05
7.51964190725e-05
0.000144818382145
0.000280051555652
0.000408735911187
0.000469405983601
0.000445926011257
0.000287579532679
0.000154876099898
0.00223881922577
0.00222199675697
0.00235971285502
0.00250186559564
0.00241123316397
0.00209756196199
0.00171526547088
0.0013960365705
0.00112362328629
0.000738987544471
0.000317815019183
0.000110485901074
6.82881353118e-05
0.000116085924342
0.000245981167137
0.000388795753778
0.000463988846144
0.000447873154735
0.000290549088792
0.000156940532903
0.0025404589679
0.00277112190758
0.00293018935025
0.00284911115729
0.00249605262541
0.00199000942348
0.00151448871175
0.00117959343595
0.000977267918844
0.000737334275365
0.000364290384566
0.000125215477484
6.75704583255e-05
0.000108222554031
0.000235337276809
0.000378915057051
0.000458274032664
0.000447839270608
0.000293753409599
0.000159190260119
0.00291372556242
0.00300619887687
0.0029156620316
0.00258880753126
0.002079194187
0.00152281356386
0.00108955595266
0.000812123336082
0.00066802622571
0.00055881541242
0.00031199099505
0.000113010465836
6.8543314247e-05
0.000119845177323
0.00024644267074
0.000376080277314
0.00045000321711
0.000444601548932
0.000296984775468
0.000161580183515
0.00275783363894
0.00265585105603
0.00239019301418
0.00197142743873
0.00148012349159
0.0010280364713
0.000692896246791
0.000480358951417
0.000370701574128
0.000308271721553
0.000182659182204
8.04620337014e-05
8.06257574205e-05
0.000151832043562
0.000264180493563
0.000366265636557
0.000432409242502
0.000435646512233
0.0002998594137
0.000164053805597
0.00241733627747
0.00221812435998
0.00190176722645
0.00149805581876
0.00107812460484
0.000718383582706
0.000458173252999
0.00029831889096
0.000211904500954
0.000158942257957
0.00010734699844
8.12496248822e-05
0.000114877864232
0.000179034697394
0.000254891669754
0.000329374768434
0.000394806948506
0.000416457081033
0.000302187309138
0.000166675025414
0.00215501944232
0.00193050468938
0.00162389373869
0.00126922477021
0.00091856234789
0.000608058718148
0.000376646215762
0.000245313317905
0.0001768909441
0.000137244076963
0.000112157828856
0.000111380088683
0.000133655756907
0.000163069915636
0.000203104476358
0.000259257543025
0.000329209676756
0.000379378206538
0.000301741212881
0.000169455735736
0.00199738133259
0.00178592844179
0.00151506415693
0.00122018936639
0.000935255194184
0.000646014896402
0.000411999783013
0.000283990059388
0.000217345991407
0.000179178792182
0.000155790834414
0.000145875180561
0.000137702369122
0.000133936508949
0.000143809256128
0.000177049844666
0.000240588863087
0.000316183447979
0.000293714356833
0.000172657016914
0.00193811999558
0.00175619780318
0.00152582698345
0.00127777106629
0.00104181854844
0.000787547861345
0.000557046542078
0.000412388362184
0.000328483960399
0.000276113252763
0.000241620066439
0.000217288556159
0.000184161688964
0.000149267952283
0.000124195957713
0.000122510312027
0.00015762417093
0.000234131913469
0.000270637446873
0.00017580776372
0.00198789929533
0.00184667264152
0.00166719061139
0.0014689710733
0.00127257717488
0.00105461523413
0.000850900063335
0.000696529605425
0.000584832786468
0.000501308489469
0.00043731067666
0.00038481998789
0.00032401228248
0.000252070380127
0.000176751667655
0.000121920111648
0.000111845740081
0.000158450037593
0.000228301562818
0.000178375901715
0.0022255483577
0.00212734379536
0.00200084366252
0.00185437855232
0.00169752672414
0.00152666706728
0.00135348657244
0.00118923509091
0.00103851063532
0.000903970386091
0.000781597970162
0.000671000989924
0.000566639377764
0.000459442783293
0.000330667094099
0.000193223232825
0.000113435446754
0.00011391953735
0.00017971781698
0.000178593509468
0.00249857672475
0.00243540888234
0.00234813786116
0.00223830189806
0.00210821115804
0.00195941978371
0.00179206443241
0.00160902191434
0.00141484076595
0.00121733617032
0.00103064977573
0.000871390036833
0.000745301083599
0.000197045043728
0.000102799936374
0.000148160292215
0.000133125776863
0.000147628535277
0.000149877497753
0.000145571275596
0.000147526710808
0.000143748016639
0.000139751369365
0.00014172085322
0.000130263263815
0.000139834361691
0.000120735222239
0.000137867715997
0.000111668625104
0.000135849629057
0.000103211900717
0.000133719454837
9.5392473149e-05
0.000131487555303
8.82088808761e-05
0.000129199467512
8.16420225915e-05
0.000126917471182
7.56699593304e-05
0.000124690328544
7.02673571714e-05
0.000122564427958
6.54086959562e-05
0.000120600931398
6.10755089008e-05
0.000118862763061
5.72459912281e-05
0.000117397640013
5.39017295237e-05
0.000116229586464
5.10339790433e-05
0.000115380552225
4.86504670603e-05
0.000114820442298
4.67590163578e-05
0.000114547745191
4.53996668415e-05
0.000114532411822
4.45755269076e-05
0.000114817176515
4.43274985457e-05
0.000115510572611
4.46372634941e-05
0.000116710450181
4.54919968119e-05
0.000118641538669
4.68103569596e-05
0.000121203370553
4.85185077801e-05
)
;

boundaryField
{
    inletfuel
    {
        type            calculated;
        value           uniform 0.0100623058987;
    }
    inletair
    {
        type            calculated;
        value           uniform 0.000335410196625;
    }
    outlet
    {
        type            calculated;
        value           nonuniform 0();
    }
    axis
    {
        type            empty;
    }
    leftside
    {
        type            nutkWallFunction;
        Cmu             0.09;
        kappa           0.41;
        E               9.8;
        value           nonuniform List<scalar> 
33
(
0
0
4.48858881527e-06
4.7685337124e-06
4.97911629791e-06
0
0
0
0
0
0
0
0
0
0
0
0
0
0
0
0
0
0
0
0
0
0
0
0
0
0
0
0
)
;
    }
    burnerwall
    {
        type            nutkWallFunction;
        Cmu             0.09;
        kappa           0.41;
        E               9.8;
        value           uniform 0;
    }
    front
    {
        type            wedge;
    }
    back
    {
        type            wedge;
    }
    procBoundary0to1
    {
        type            processor;
        value           nonuniform List<scalar> 
27
(
0.0021907851661
0.00218855274575
0.00218319205182
0.00217625191266
0.000638447678424
0.000504180462357
0.000308441327538
0.000147719615202
0.000101218032427
0.000145293798057
0.000176779229623
0.00216089094494
0.00212427186135
0.00206690770167
0.00198543367719
0.00187662245249
0.00173832227276
0.0015699596755
0.00138044270479
0.00118071007469
0.000988376749582
0.000826127173059
0.000707502014362
0.000638447678424
0.000636198173391
0.000124152137199
5.03842373352e-05
)
;
    }
}


// ************************************************************************* //
