/*--------------------------------*- C++ -*----------------------------------*\
  =========                 |
  \\      /  F ield         | OpenFOAM: The Open Source CFD Toolbox
   \\    /   O peration     | Website:  https://openfoam.org
    \\  /    A nd           | Version:  7
     \\/     M anipulation  |
\*---------------------------------------------------------------------------*/
FoamFile
{
    version     2.0;
    format      ascii;
    class       volScalarField;
    location    "0.08";
    object      O2;
}
// * * * * * * * * * * * * * * * * * * * * * * * * * * * * * * * * * * * * * //

dimensions      [0 0 0 0 0 0 0];

internalField   nonuniform List<scalar> 
814
(
2.56956228421e-09
1.85709031476e-09
3.00935704315e-10
3.86010784097e-07
4.03752755491e-07
2.04111483877e-07
2.76449943015e-05
5.0438723821e-05
0.0001169540825
0.00107280561339
0.00371692958383
0.0335732072865
0.00155328265093
0.00385267569377
0.0162069345344
0.00155811311474
0.00295809703864
0.00773500279197
0.00129301428533
0.00196914740419
0.00366079365689
0.000949205382731
0.0012099057088
0.00176169435418
0.000640312440174
0.00071075801407
0.000871762356451
0.000405871681775
0.00040791533548
0.000446865521008
0.000246067496504
0.00023211661366
0.0002390046238
0.000144864071718
0.00013279623984
0.000134751012656
8.42474536576e-05
7.76418383918e-05
8.12062256505e-05
4.94245797825e-05
4.71841987114e-05
5.25394583557e-05
2.98836757929e-05
3.00396013643e-05
3.57425447636e-05
1.89599877981e-05
2.0045224013e-05
2.50176415553e-05
1.29038320439e-05
1.41974338095e-05
1.82656405779e-05
9.78434394125e-06
1.10577372802e-05
1.44881019223e-05
8.57012644076e-06
9.79240137454e-06
1.28690787602e-05
8.63255706637e-06
9.83128237961e-06
1.27684777311e-05
1.01329822762e-05
1.14615977381e-05
1.46927989659e-05
1.78600803455e-05
2.00322019114e-05
2.52682372311e-05
5.96598121536e-05
6.50804541889e-05
7.77275030202e-05
0.000213634112703
0.000227865200047
0.000260472223905
0.000594320140961
0.000633259810209
0.000723756165425
0.00127608961118
0.00137712248141
0.00161078183778
0.00200467655469
0.00216155637764
0.00252228566039
0.00250986262826
0.00268120933901
0.00307098323091
0.00271403749887
0.00286993627861
0.00322132281637
0.00261611164678
0.00273806603801
0.00301073345296
0.0028739789578
0.0029505920703
0.00312116189153
0.00656198943345
0.00659689098969
0.00668746960766
0.127745019408
0.0482495884883
0.0174607193672
0.0067064185161
0.00279096464576
0.001250606272
0.000602051098979
0.000313049668089
0.000178335787086
0.000112176301281
7.60996464825e-05
5.28207501741e-05
3.66547650182e-05
2.64124403948e-05
2.07610801729e-05
1.82306897342e-05
1.77710920653e-05
2.01680107131e-05
3.40180249036e-05
9.77532064143e-05
0.000310383040773
0.000863569448478
0.00197693494776
0.00307927092535
0.00365800232974
0.0037395512255
0.00340945230845
0.00336887278833
0.00682309108741
0.231989262202
0.231992020459
0.231994522932
0.231996735086
0.231998244838
0.231999131981
0.231999607294
0.231999838828
0.231999940233
0.231999980136
0.231999994148
0.231999998491
0.231999999665
0.231999999937
0.23199999999
0.231999999999
0.231999999999
0.231999999994
0.231999999952
0.231999999867
0.230820971726
0.231566585986
0.231807165468
0.231911481411
0.231961479707
0.231984195113
0.231993941797
0.231997848486
0.231999296927
0.23199979234
0.231999945374
0.231999987324
0.231999997434
0.231999999555
0.231999999936
0.231999999992
0.231999999995
0.231999999941
0.231999999187
0.231999992716
0.221890097361
0.226430013409
0.228637418236
0.230920513975
0.231580741105
0.231850903707
0.231950046975
0.231984781523
0.231995649611
0.23199883617
0.231999719356
0.231999940278
0.231999988812
0.23199999818
0.23199999975
0.23199999997
0.231999999978
0.231999999661
0.231999991323
0.231999749058
0.18628694782
0.202399339815
0.21120265565
0.222445399578
0.228159529722
0.230788282293
0.231622877047
0.231902349214
0.231976560738
0.231994415627
0.231998725356
0.231999741782
0.231999953783
0.231999992743
0.231999999027
0.231999999887
0.231999999918
0.231999998425
0.231999939608
0.231994653095
0.0826425781783
0.116550752257
0.159663179101
0.195673503079
0.215899557334
0.225554010275
0.229764788417
0.231400468299
0.231878853845
0.231977543339
0.231995054289
0.231998999803
0.231999822364
0.231999972294
0.231999996284
0.231999999569
0.231999999761
0.231999996112
0.231999880994
0.231992812624
0.0301952601435
0.0521477541798
0.0881354462671
0.147120256015
0.19393464664
0.216480612912
0.226698090499
0.23046113434
0.231636793858
0.231931378236
0.231985209255
0.231996780665
0.23199939953
0.231999903344
0.231999986683
0.231999998431
0.231999999391
0.231999992176
0.231999812976
0.231992345427
0.0120343508473
0.0236633165069
0.044884703571
0.0961312806423
0.169824673524
0.208153131551
0.22383840025
0.229373449156
0.231253502107
0.231828554927
0.231963507341
0.231991330732
0.231998236589
0.231999697821
0.231999956233
0.231999994651
0.231999998546
0.231999985991
0.231999723301
0.231991725343
0.00512646553241
0.0109728955459
0.0246345457685
0.0634255404002
0.154887972813
0.203440152238
0.22157116648
0.228185017987
0.230702193182
0.231633590638
0.231915586195
0.231979987023
0.231995460874
0.231999155079
0.231999869329
0.231999983178
0.23199999656
0.231999976995
0.231999610445
0.231990706145
0.00232270280846
0.00554730265067
0.0155050831634
0.0473522301727
0.14048104878
0.197614397271
0.218475703438
0.226527292495
0.229887467135
0.231298995847
0.231817393005
0.231957857901
0.231989562148
0.231997870354
0.23199964491
0.231999951354
0.231999991742
0.231999964353
0.231999477374
0.231989517123
0.00113660558987
0.00313060442587
0.0104362835468
0.0357478959984
0.117040321014
0.186351423457
0.213176067537
0.224004021766
0.228703665968
0.230781286739
0.23163786523
0.23191233408
0.231978426917
0.231995108099
0.231999114159
0.231999870052
0.231999980008
0.231999946567
0.231999322275
0.23198825319
0.000610754419142
0.00191229452153
0.00690410979832
0.0246424343752
0.0849305145206
0.168970557502
0.205339757082
0.220439113472
0.227081150622
0.230049099572
0.23134333573
0.231825244964
0.231958109819
0.231989637724
0.231997954465
0.231999677307
0.231999952034
0.231999921096
0.23199913794
0.231986850979
0.000365674821781
0.00124918450532
0.0045891338308
0.0164107725671
0.0551998379945
0.148899231477
0.195826841501
0.216008163414
0.225023824198
0.229086606699
0.230909541291
0.231673601631
0.231918985365
0.231979860179
0.231995601778
0.231999250086
0.231999887724
0.231999883509
0.231998912903
0.231985221966
0.000241258063087
0.000857629180928
0.00315921331246
0.0116279685424
0.0411988651493
0.131166643172
0.186365141751
0.211163507901
0.222577470512
0.227880442743
0.230321707462
0.231431856362
0.231848116105
0.231962864613
0.231991129101
0.231998359667
0.231999746136
0.231999825792
0.231998630168
0.231983307752
0.000167815018193
0.000599148469744
0.00221968028424
0.00861445141626
0.0334597738174
0.117586461915
0.178291237376
0.206377004934
0.219830240484
0.226408313102
0.229570040216
0.231077268645
0.231726455807
0.231931797227
0.231983269249
0.231996601717
0.231999447573
0.231999733293
0.231998269632
0.231981057712
0.000114090232376
0.000391333616489
0.00141280324593
0.00563579651513
0.0244278554777
0.101661559108
0.168727692965
0.200820397907
0.216586266566
0.224560535605
0.228601744207
0.230581687152
0.231527063197
0.231875917508
0.231969819094
0.231993301717
0.231998845139
0.231999579347
0.231997810887
0.231978402173
7.41713253402e-05
0.000235170415656
0.00079972051233
0.0031250384439
0.0144771985645
0.0731737283413
0.148494696891
0.190015414033
0.211218020317
0.221793111182
0.227193970013
0.229877987524
0.231209673813
0.231774998951
0.231946050497
0.231987395087
0.231997676631
0.2319993161
0.231997226496
0.231975240515
5.09995268924e-05
0.00015066177663
0.000493557990761
0.00192248694134
0.00912517596619
0.0427107155544
0.108264160381
0.164157629658
0.199061974508
0.216443551553
0.224748968751
0.228764164565
0.230700319955
0.231594701121
0.231901472553
0.23197744981
0.231995521837
0.231998861799
0.231996479304
0.231971428203
3.90270369207e-05
0.000111021355686
0.000359847119371
0.00138989838392
0.00617981618125
0.0239017795122
0.0594610398535
0.114330553308
0.170134528684
0.204401261344
0.219870321534
0.226762513171
0.229860716624
0.23127874679
0.231818638743
0.23196080681
0.231991747116
0.231998085927
0.231995516775
0.231966771858
3.35203037186e-05
9.24573643396e-05
0.000294134625102
0.00107784060585
0.00400768151513
0.0120117439228
0.0281221759183
0.0587566049497
0.11802765853
0.178271674992
0.210045760075
0.223061609064
0.228445931873
0.230750441996
0.231671156533
0.231931824845
0.231985792299
0.231996809795
0.23199426208
0.231961016543
3.1887756478e-05
8.50735666926e-05
0.000258720218064
0.00082405279541
0.00230833711749
0.00537352990992
0.0115922524912
0.0260193163955
0.0615547528338
0.135859625934
0.192046302512
0.216770170321
0.226219464465
0.229952470757
0.231435914984
0.231885063758
0.231977038119
0.231994828416
0.231992603459
0.231953818268
3.55905680579e-05
9.14914486682e-05
0.000251543648096
0.000642757528781
0.00140677170286
0.00278782899486
0.0055241213949
0.0120193890179
0.0309676381555
0.0903581144682
0.167385303343
0.207734994149
0.223246290848
0.22895092508
0.231131470004
0.231819625649
0.23196515832
0.231991927153
0.231990375018
0.231944697337
5.81432374092e-05
0.000136374932075
0.000321508497027
0.00070823095263
0.00146251400812
0.00290036920658
0.00545078789107
0.00986924935718
0.0206586208596
0.0611148065616
0.145996965429
0.199018190718
0.220359695098
0.22803683939
0.230837467734
0.231747084741
0.231950750343
0.231987900981
0.231987322186
0.231933000624
0.000149438250124
0.000297596652198
0.000616745418376
0.00129085730948
0.00269633279172
0.00545410347076
0.0100153075449
0.0161616513672
0.025901151185
0.0623819801777
0.138465974631
0.195432455651
0.219223625143
0.227654573011
0.230676345871
0.231689992992
0.231933981337
0.231982403103
0.231983013234
0.231917812545
0.000434449014193
0.000783636791315
0.00153493376135
0.00316535665492
0.0066493573869
0.013541706413
0.0244898850622
0.0400057942812
0.0674315802826
0.0995999632054
0.151899044573
0.199501228867
0.220546028396
0.228004446091
0.230676728814
0.231648223259
0.231911934796
0.231974118939
0.231976639645
0.231897850954
0.00121360937902
0.00226329433288
0.00461979391419
0.00973585876291
0.0200684194823
0.0392210516192
0.0714187296654
0.106732350102
0.133975632749
0.153248308059
0.181141291328
0.210830091236
0.223765921593
0.228735089541
0.230717863902
0.231579415801
0.231873971184
0.231959405201
0.231966637803
0.231871371689
0.00286221677577
0.00544945380367
0.0110298749908
0.02241739094
0.0438812767113
0.0809299969656
0.12263927712
0.154316568993
0.175367761864
0.18963498584
0.20355421536
0.21859327204
0.225836126925
0.228981503123
0.230541357704
0.231378341264
0.231787229975
0.231929235048
0.231949904852
0.231835909077
0.00439948557141
0.00811873031248
0.0158411031936
0.0311965721055
0.0596883973101
0.106385732043
0.145768557653
0.17227972857
0.189347373067
0.201099859587
0.210920524661
0.219669689048
0.225034777939
0.227881276406
0.229710577131
0.230871047176
0.231558374839
0.231861146424
0.231920197178
0.231787453567
0.00504567217626
0.00880872255006
0.0162913473347
0.0309432086507
0.0603354914227
0.107766750465
0.144899409652
0.169090159831
0.184991148305
0.196439230904
0.205734330745
0.213368747143
0.21973745562
0.224064303432
0.227359388188
0.22963167461
0.230988742569
0.231684167463
0.231863662994
0.231720568744
0.00497299235052
0.00818848095515
0.0143118451109
0.0258023091881
0.0479935907918
0.0887911355074
0.123138116584
0.147265163313
0.163932691413
0.176666800978
0.18731323323
0.196514254067
0.205977378754
0.21434199937
0.22143886369
0.226587084751
0.229685482748
0.231231599964
0.23174648046
0.231625954182
0.00435778592063
0.00670619406774
0.0109511067492
0.0184150344227
0.0316705475918
0.0554498172827
0.0822136385117
0.104329883285
0.121897640195
0.136798307855
0.150288579714
0.163172788802
0.177479980447
0.19266950181
0.207646996165
0.219563389119
0.226785401488
0.230257310847
0.231495823196
0.231487827789
0.00395457978115
0.00532307612777
0.00764312930601
0.0114159252559
0.017500929432
0.0271711914098
0.0389204361884
0.0518234580835
0.0673414299237
0.0834322454491
0.0998650652425
0.116858650522
0.13578986855
0.157389277571
0.18166067302
0.204973233558
0.220908917809
0.228450807197
0.231031702139
0.231283635177
0.00714921773569
0.00790761700871
0.00910686175713
0.0108676087075
0.0133800373032
0.0168869578828
0.0213477974451
0.0269414303588
0.0357227352362
0.0508631199711
0.0685417029147
0.0868448247329
0.106087114615
0.231765000955
0.231750903966
0.231847217984
0.231812167306
0.231894711377
0.231858093074
0.231917922918
0.231879260142
0.231927630566
0.231887887371
0.231930647297
0.231890305603
0.231929779472
0.231888671303
0.231926305527
0.231884149097
0.231920717627
0.231877104766
0.231913206898
0.231867575814
0.231903762275
0.231855365773
0.231892201896
0.231840051393
0.231878214034
0.231820984296
0.231861269644
0.231797274791
0.23184055124
0.231767541263
0.23181487453
0.231729838508
0.231782611395
0.23168154247
0.231741497831
0.231619192579
0.23168873058
0.231538859615
0.231621189697
0.231435910883
0.231535790698
0.231306051777
0.23143024948
0.231146099839
0.231303186341
0.230954267423
0.231154523446
0.230730735356
0.230984251651
0.230476286185
0.230788881805
0.230190175387
0.230562135328
0.229867391915
0.230285072514
0.229492336062
)
;

boundaryField
{
    inletfuel
    {
        type            fixedValue;
        value           uniform 0;
    }
    inletair
    {
        type            fixedValue;
        value           uniform 0.232;
    }
    outlet
    {
        type            zeroGradient;
    }
    axis
    {
        type            empty;
    }
    leftside
    {
        type            zeroGradient;
    }
    burnerwall
    {
        type            zeroGradient;
    }
    front
    {
        type            wedge;
    }
    back
    {
        type            wedge;
    }
    procBoundary0to1
    {
        type            processor;
        value           nonuniform List<scalar> 
27
(
0.0202241236681
0.0202283814235
0.0202930029494
0.0204089905949
0.128397342448
0.156152287538
0.187820642931
0.213523140684
0.226230084151
0.230436792996
0.231001498206
0.0207087864207
0.0215084503322
0.0227441490797
0.0244516528712
0.0267621113617
0.0301363547178
0.0359637024195
0.0457729561973
0.0582879944667
0.0730752026416
0.0879415816965
0.101527880983
0.128397342448
0.114178139794
0.229922540154
0.229034670246
)
;
    }
}


// ************************************************************************* //
