/*--------------------------------*- C++ -*----------------------------------*\
  =========                 |
  \\      /  F ield         | OpenFOAM: The Open Source CFD Toolbox
   \\    /   O peration     | Website:  https://openfoam.org
    \\  /    A nd           | Version:  7
     \\/     M anipulation  |
\*---------------------------------------------------------------------------*/
FoamFile
{
    version     2.0;
    format      ascii;
    class       volScalarField;
    location    "0.08";
    object      one_over_tauStar;
}
// * * * * * * * * * * * * * * * * * * * * * * * * * * * * * * * * * * * * * //

dimensions      [0 0 -1 0 0 0 0];

internalField   nonuniform List<scalar> 
814
(
792.024376998
1121.11619286
4943.91906337
973.858037994
1338.90251017
4940.616674
1064.03388916
1471.48789779
4935.10506826
1280.59966716
2077.63004103
6253.71890662
1554.32075486
2658.51842365
6461.57888077
1854.34490983
3109.11149938
6043.74345778
2149.23175008
3398.87867627
5555.08531752
2380.05258301
3530.80903406
5067.06599197
2538.53326987
3527.92103264
4589.60882482
2617.32327049
3422.79536641
4132.76930123
2619.7171559
3246.23133574
3706.57366238
2557.3432521
3024.81263763
3316.46937858
2445.3088435
2780.22598386
2962.65856985
2299.64975622
2529.93137325
2643.43825482
2135.21090265
2287.11636798
2358.66702916
1964.59723428
2061.1542187
2108.27082084
1797.85947892
1857.54464161
1890.41232535
1641.50515622
1677.66475533
1701.38651023
1495.73802656
1517.58483823
1534.15552946
1356.08681063
1368.50927834
1378.1280081
1210.76911692
1216.08808685
1217.55971508
1032.44367595
1030.59095671
1020.70292433
789.069190977
782.819261904
767.200440826
579.697168985
575.899704459
567.461645512
458.431447966
457.057028479
453.808345003
385.708285821
384.880322257
383.090687513
335.212089565
334.488216331
332.73368665
300.00963468
299.169149098
297.286774868
279.274154736
278.405690654
276.497024499
270.430469225
269.569590739
267.720885503
271.78246132
270.862243727
268.999600809
266.061489347
265.566895158
264.290651564
234.393271781
4456.8165194
4841.28784658
4692.14855866
4395.04949607
4050.05965382
3697.52097986
3357.26770542
3037.81919543
2743.61342842
2479.67966311
2243.44159097
2030.30383879
1841.24240412
1672.3874973
1516.95570468
1365.01927227
1201.54221424
994.766409022
740.688997899
554.763495043
448.944051072
380.218466788
330.130954475
294.655841721
274.002090711
265.389058233
266.83639947
262.838546887
52.9655984107
18.5629009854
15.9092334011
14.7047390685
13.4789028814
12.2411026168
10.9659484181
9.7495987529
8.65435443975
7.71191151103
6.90214983346
6.22561861664
5.65543807388
5.2011803286
4.82762500849
4.5588322798
4.34544514057
4.21622843068
4.31545848381
14.7400549336
58.0458946345
35.0120790201
29.2854845328
24.2600709256
19.8432166684
16.4248163551
13.632923306
11.4063802509
9.67431357496
8.35504588107
7.32154107835
6.51110086418
5.85530318455
5.34392147683
4.92964797876
4.63330948192
4.39850251191
4.26333437238
4.47030377891
15.0081915075
99.8986550911
114.415677839
74.3964020177
42.0288329298
30.3011071452
22.6296889192
17.2211346202
13.3365813228
10.6835343701
8.88606032395
7.61683710465
6.68280093984
5.96031235349
5.40791431689
4.97120482762
4.657984159
4.41720175459
4.28230253088
4.56835364797
15.2103630159
470.181965195
370.202160719
216.298514284
112.037434606
67.9109327907
39.2713714336
25.8287026413
17.4888427955
12.6325920534
9.7808679912
8.05885654354
6.92024989739
6.09845180162
5.49045445396
5.02312727431
4.68894473589
4.43879349551
4.30494504853
4.65598510212
17.135178371
2220.46812872
1205.96241422
568.487706321
298.557833407
164.840798365
90.2931886144
49.9697348003
27.5782285995
16.5808118423
11.3357631903
8.73700963462
7.25978061549
6.28985404699
5.60639219562
5.09620363895
4.73577540164
4.46982611705
4.33580659793
4.78886157054
18.9999061599
2731.41985349
1240.13054608
711.636986223
509.665659285
317.716564758
176.739944661
85.8387074129
41.2148662835
21.8630244212
13.5070370655
9.70146851614
7.72983334569
6.54369498247
5.75613611319
5.18878500765
4.79577098062
4.50923612408
4.3728535223
4.94158884227
20.6395394801
2601.6177934
1263.5864851
792.236847177
599.541553256
434.841451508
255.792824674
116.630152145
53.0174586794
27.0450914777
16.0429984757
10.9678256453
8.35973711994
6.8718280333
5.93955205425
5.29718207558
4.86301611198
4.55211061253
4.40868366618
5.1094298328
21.9125729821
2474.78482349
1295.64446479
839.309227418
631.400170979
476.314029041
292.62970243
134.445103785
61.8788125291
32.0274901463
18.9223926419
12.5547428043
9.18355373451
7.294520348
6.16450995147
5.42314017168
4.93662233218
4.59695714914
4.44288468241
5.28254238239
22.8538294915
2359.34888509
1321.35377889
877.893641468
658.627493091
500.307742975
324.049534842
154.800182442
72.052574787
37.7253965928
22.264522995
14.4622332463
10.2249642411
7.83635383876
6.44593024848
5.57372393342
5.0201909006
4.64566191167
4.48014027851
5.45257035191
23.384149169
2258.91963023
1345.81510179
917.103320095
689.279498043
526.475632799
370.49786128
192.456347572
87.8574919831
44.8674806808
26.1070683303
16.6706411104
11.488374028
8.52052865074
6.8011995126
5.75832656545
5.11832035945
4.70057418657
4.52379592264
5.61827629743
23.5828398952
2170.99681208
1369.67537008
957.797107492
718.789287753
550.618920648
412.714657175
244.853649849
111.782765383
53.9234142013
30.4646280495
19.1581949222
12.96124371
9.36081530178
7.24670798132
5.98700654094
5.23542899573
4.76348023868
4.57463234316
5.78090612478
23.5481094497
2087.12847974
1387.1301816
994.885235692
745.103715307
566.734739632
429.64908543
288.323957997
140.894641958
64.8686695904
35.3596614354
21.913855026
14.6294731932
10.3597067412
7.79740063565
6.27064262558
5.37674346182
4.83635115433
4.63284287671
5.94609735283
23.3625037833
2001.32728489
1394.66388273
1025.31709401
769.639595073
579.644586214
417.970388102
296.582622538
163.855935635
76.7325340799
40.8052867202
24.955431366
16.4896818722
11.5100583834
8.46494762435
6.62149506048
5.54914015207
4.92207816237
4.69912694411
6.12508244083
23.0717980435
1914.13697832
1393.08146596
1048.34373076
791.575308754
588.401631063
382.711252388
265.967864328
168.861145511
87.4959288527
46.872396528
28.3690829322
18.5764959006
12.8219996756
9.26013848926
7.0538998282
5.76134630746
5.02469150356
4.77461270428
6.32200298077
22.7038193815
1827.46544135
1384.91244786
1065.37382132
811.319412997
599.282392038
345.999026029
225.831644526
162.952767859
98.1052252859
54.5638119754
32.5811277479
21.0629873364
14.350082205
10.2010962903
7.58402890626
6.02415841119
5.14930764992
4.86066879794
6.52820597158
22.280663147
1737.97101964
1371.48930362
1079.45438556
833.278895581
615.153917119
338.63609828
213.169112069
168.500666125
117.423602826
68.4337190482
39.3385986636
24.5279212839
16.2927653038
11.3463321213
8.23608949491
6.35159379357
5.30220700818
4.95889659719
6.73514153327
21.8218586022
1639.22654679
1346.95979271
1089.26251522
859.757789435
633.736964806
352.223538876
228.541894331
192.02258952
151.80523536
98.0234837334
53.9133618387
30.7195216234
19.1971153992
12.850826311
9.0499483946
6.76007200911
5.4902458471
5.0709677851
6.93417658512
21.3447921844
1533.37455401
1301.23118291
1074.12456548
851.97080373
592.03333871
330.668783607
245.097998828
221.315360617
191.456340941
144.749369514
86.1619558371
44.2481081269
24.4403235499
15.0791261122
10.1070280739
7.27023468873
5.72062345332
5.19841634498
7.11803411623
20.8617893693
1417.50498152
1227.24659794
1017.74780498
777.791211135
486.27116399
308.161653734
262.362327083
247.210208637
225.786094167
189.280620918
134.529099659
72.432102939
34.991105024
18.786879875
11.557263328
7.89985517011
5.9967352706
5.34179832116
7.28239022239
20.3805001551
1285.32216455
1116.69752594
901.787202345
628.814314682
401.924411797
312.972561884
281.419526875
266.162546139
250.236358423
222.036002649
178.019470511
113.810760757
54.2536808596
25.0074716691
13.574197568
8.65967396784
6.31603839626
5.50025572856
7.42592952568
19.9049606203
1124.34898121
952.168746584
719.490241441
498.996756507
385.230022697
332.427109546
298.695377977
278.237880879
264.821754537
241.172589311
205.37575005
151.098660522
80.4343184181
34.0273230271
16.0941930584
9.48876068171
6.65505385872
5.66914172869
7.54983998743
19.4373353887
907.062248203
735.73185165
563.976228928
455.141494374
394.117881378
346.424810656
306.733511411
280.419818817
266.612572042
247.24325804
216.916606411
171.022192735
102.565545037
42.9529763396
18.4583557702
10.2284798483
6.97494016337
5.84270690803
7.65645747337
18.9772025314
673.638940271
572.57015256
493.442585163
438.144399741
388.943690069
339.796236856
297.21811164
269.224103506
257.017973097
242.909660092
215.758173738
174.397697078
109.518743248
46.2497166895
19.3882960569
10.6445305526
7.23853814408
6.01805097799
7.75009937694
18.5210269922
526.078416729
483.112523705
443.285468511
401.920538631
354.808205915
306.135381246
269.239320217
246.306969066
235.556687579
227.033361114
203.333826235
163.23970763
98.567052295
41.283054346
18.5760796072
10.7943720985
7.49587500389
6.21605659965
7.83755645482
18.0629189757
437.668625614
415.717100712
387.527257589
351.501616814
309.710342515
269.745088314
238.297521522
215.001759509
202.826138619
197.828424028
177.585671455
132.731321688
71.046435197
32.5309172622
17.4113667472
11.0855745703
7.89986895182
6.49406918921
7.93334258856
17.5958948808
373.683901415
357.959470714
334.628118716
304.126240044
270.123942489
237.125393211
206.453092019
179.726580184
163.827108171
156.867584458
137.344068565
90.2534960825
49.2297660097
28.4065018453
18.0955990508
12.3165244603
8.79927407991
6.99398895493
8.07067544822
17.1149666294
324.435337096
310.928312943
291.383088155
267.521073381
242.590147375
213.614450955
178.900065626
147.433918395
127.549176414
115.344040426
96.7241963374
69.2954567317
47.0095695272
32.8424466625
22.8498701047
15.7327587232
10.8019206738
7.96648751539
8.33123423241
16.6324309324
289.071882694
277.027814992
260.912698776
243.610799659
227.733289267
200.729046736
163.01176619
132.329962571
113.801286956
101.101637243
87.7320743702
74.7331751696
60.6861999162
47.6804631631
34.87986084
23.6492090472
15.1826660657
9.96789862005
8.89691271732
16.1859737366
268.565902207
257.828140982
244.062713007
229.892841206
217.732734791
195.240995465
164.234261254
139.696055727
124.146183783
112.298989639
101.307229962
92.0209206163
81.9999190277
70.5259590777
56.3199385413
39.741545884
24.4910465058
14.0821249265
10.101252574
15.8797171048
260.182460177
250.557964664
238.274470361
224.828015264
211.796126455
194.122498176
174.460207302
158.494484515
146.299407768
135.601684057
124.936310803
114.554443851
104.279296798
93.3515483552
80.2522320669
62.8619537895
41.4343142677
22.2608725501
12.6033162819
15.8756807223
262.031266771
253.408233028
242.327571126
229.747783305
216.703843494
202.982417021
189.852713548
178.232371346
167.694071254
157.28462033
146.197515867
134.475672477
122.881654264
112.023178478
100.399204181
84.7518849765
63.1353223933
35.7618208667
16.9757562361
16.3260326012
259.297830502
252.412082059
243.354469816
232.845123442
221.601833741
210.124979377
198.977364281
188.376632727
177.96892382
166.997238157
155.093544796
142.602296022
130.217961879
26.2308534606
52.7206571448
67.4684104246
52.7168104369
70.8459304736
52.7129176523
69.4970477579
52.7116731084
66.2193660006
52.7104227765
62.3160383253
52.7094988032
58.5757130933
52.7090644976
55.1837523031
52.7089086953
52.2184622074
52.7089090652
49.6544512263
52.7090310257
47.445552653
52.7092785737
45.5418850485
52.7096646855
43.8958197847
52.7102209589
42.4666460584
52.710988655
41.2230571105
52.7120388174
40.1400147238
52.7134470147
39.197908162
52.7153780402
38.381303426
52.7180572666
37.67707642
52.7217159086
37.0705929596
52.7266373159
36.5400199322
52.7330501089
36.0534605027
52.7411583793
35.5800209469
52.751014538
35.0943142498
52.7625223873
34.5946847541
52.7754411959
34.1306284884
52.7897154504
33.762782037
52.8053305106
33.6279886565
52.8224478498
)
;

boundaryField
{
    inletfuel
    {
        type            calculated;
        value           uniform 120.747670785;
    }
    inletair
    {
        type            calculated;
        value           uniform 4.0249223595;
    }
    outlet
    {
        type            calculated;
        value           nonuniform 0();
    }
    axis
    {
        type            empty;
    }
    leftside
    {
        type            calculated;
        value           nonuniform List<scalar> 
33
(
26.2308534606
52.7206571448
14.7400549336
15.0081915075
15.2103630159
52.7206571448
52.7168104369
52.7129176523
52.7116731084
52.7104227765
52.7094988032
52.7090644976
52.7089086953
52.7089090652
52.7090310257
52.7092785737
52.7096646855
52.7102209589
52.710988655
52.7120388174
52.7134470147
52.7153780402
52.7180572666
52.7217159086
52.7266373159
52.7330501089
52.7411583793
52.751014538
52.7625223873
52.7754411959
52.7897154504
52.8053305106
52.8224478498
)
;
    }
    burnerwall
    {
        type            calculated;
        value           nonuniform List<scalar> 7(4943.91906337 4940.616674 4935.10506826 52.9655984107 58.0458946345 99.8986550911 234.393271781);
    }
    front
    {
        type            wedge;
    }
    back
    {
        type            wedge;
    }
    procBoundary0to1
    {
        type            processor;
        value           nonuniform List<scalar> 
27
(
220.270436672
220.215257732
219.496818589
218.562625945
118.934980585
108.717976456
96.2152180059
77.5686361423
48.8377025329
22.2514217431
17.2168940689
216.34715143
211.538795636
205.196686423
198.003025679
190.508854693
183.032647801
175.614821576
168.302915619
160.480258637
151.56566281
141.689421105
131.382703204
118.934980585
121.548251352
33.9273412199
52.8423153046
)
;
    }
}


// ************************************************************************* //
