/*--------------------------------*- C++ -*----------------------------------*\
  =========                 |
  \\      /  F ield         | OpenFOAM: The Open Source CFD Toolbox
   \\    /   O peration     | Website:  https://openfoam.org
    \\  /    A nd           | Version:  7
     \\/     M anipulation  |
\*---------------------------------------------------------------------------*/
FoamFile
{
    version     2.0;
    format      ascii;
    class       volScalarField;
    location    "0.08";
    object      p;
}
// * * * * * * * * * * * * * * * * * * * * * * * * * * * * * * * * * * * * * //

dimensions      [1 -1 -2 0 0 0 0];

internalField   nonuniform List<scalar> 
814
(
104628.645168
104619.307037
104636.571379
104610.864006
104606.030464
104609.716448
104597.258054
104594.879078
104596.443395
104601.686894
104599.94554
104604.23627
104611.273654
104610.373774
104609.280046
104597.838709
104597.422717
104597.92047
104595.003582
104595.109341
104595.251864
104595.853334
104595.618253
104595.675366
104595.170378
104595.034876
104594.990169
104594.110487
104594.078478
104593.956323
104593.112951
104593.076236
104592.936677
104592.203244
104592.131265
104592.015214
104591.171659
104591.055132
104590.948926
104590.015702
104589.879991
104589.743595
104588.532549
104588.413052
104588.265945
104587.256565
104587.136693
104587.022996
104586.785643
104586.65773
104586.565336
104587.036195
104586.89454
104586.817629
104587.827078
104587.733837
104587.692987
104589.061609
104588.989438
104588.979298
104590.067702
104590.005429
104590.000594
104590.693627
104590.643461
104590.619747
104590.798023
104590.747892
104590.732348
104590.580047
104590.54891
104590.555189
104589.514317
104589.531247
104589.543557
104586.683873
104586.705073
104586.720678
104581.218801
104581.230931
104581.219068
104575.794092
104575.79018
104575.759661
104572.00542
104571.985515
104571.966736
104568.798284
104568.772959
104568.741898
104570.065825
104569.991716
104569.979601
104565.068862
104565.006347
104564.972567
104589.921507
104611.752288
104598.061872
104595.355751
104595.453366
104594.770135
104593.787113
104592.80785
104591.91102
104590.878072
104589.618703
104588.111049
104586.893962
104586.445335
104586.69703
104587.61796
104588.944572
104589.96765
104590.568501
104590.693399
104590.54962
104589.566739
104586.731867
104581.199827
104575.714271
104571.937948
104568.696507
104569.959631
104564.917973
104599.428007
104598.972141
104598.494946
104597.714167
104596.94937
104596.009614
104595.09264
104594.059798
104592.988688
104591.84181
104590.667444
104589.519578
104588.501616
104587.687723
104587.052702
104586.610426
104586.271156
104586.258447
104585.851799
104585.952481
104600.434626
104598.924052
104599.098474
104597.812183
104597.400341
104595.944762
104595.029542
104593.767336
104592.66132
104591.514012
104590.384213
104589.248583
104588.205784
104587.347417
104586.675923
104586.220042
104585.856719
104585.835981
104585.393655
104585.550069
104600.747118
104601.408064
104600.317029
104598.13917
104597.478748
104595.407947
104594.778977
104593.313527
104592.296912
104591.173336
104590.125601
104589.044735
104588.020882
104587.151767
104586.470457
104586.022654
104585.641683
104585.613399
104585.094343
104585.355381
104609.695488
104595.872288
104602.201489
104596.387144
104598.683824
104595.126324
104594.955138
104592.995624
104592.100435
104590.966656
104589.983428
104588.948729
104587.94448
104587.066638
104586.377541
104585.933486
104585.533036
104585.48765
104584.825551
104585.256537
104608.670074
104604.39838
104603.932267
104598.055506
104598.749054
104594.877077
104595.163628
104592.666256
104591.963028
104590.800602
104589.89014
104588.910822
104587.936865
104587.057068
104586.362534
104585.919882
104585.497
104585.414794
104584.721477
104585.012808
104597.646171
104598.081012
104597.78648
104596.305971
104597.623749
104594.243584
104594.892055
104592.496357
104591.837999
104590.613401
104589.800005
104588.891563
104587.969657
104587.106677
104586.415512
104585.973341
104585.527191
104585.39965
104584.730342
104585.0547
104595.970179
104596.251545
104596.259969
104596.096792
104595.604029
104594.291912
104594.112962
104592.299884
104591.581596
104590.426219
104589.709515
104588.890264
104588.043743
104587.220531
104586.544155
104586.099943
104585.630459
104585.453015
104584.809193
104585.146175
104595.468342
104595.345345
104595.203829
104594.610868
104594.360309
104593.65033
104593.256789
104592.116517
104591.272584
104590.25334
104589.626652
104588.906347
104588.156702
104587.395455
104586.746302
104586.298377
104585.809374
104585.583308
104584.968613
104585.240305
104594.607206
104594.38683
104594.269517
104594.145801
104593.526411
104593.108208
104592.51509
104591.746389
104590.964673
104590.136
104589.567397
104588.950502
104588.308754
104587.624158
104587.01207
104586.561141
104586.061018
104585.795894
104585.205612
104585.365055
104593.520398
104593.358686
104593.224606
104593.115367
104592.758425
104592.465271
104591.963119
104591.349508
104590.70953
104590.042971
104589.559941
104589.056661
104588.513838
104587.904002
104587.331319
104586.87877
104586.378702
104586.09025
104585.519612
104585.540083
104592.483605
104592.328189
104592.195824
104592.03529
104591.881111
104591.668068
104591.280873
104590.863533
104590.464791
104589.97437
104589.665048
104589.25054
104588.802238
104588.248904
104587.706524
104587.248647
104586.756276
104586.459823
104585.908073
104585.779284
104591.561766
104591.433438
104591.34975
104591.192378
104591.054091
104590.844881
104590.765888
104590.385047
104590.315921
104589.996505
104589.889166
104589.561887
104589.213629
104588.691026
104588.159666
104587.681907
104587.193901
104586.896532
104586.364745
104586.090986
104590.555924
104590.448493
104590.367342
104590.339811
104590.509462
104590.106009
104590.179289
104589.877212
104590.153595
104590.063471
104590.222642
104590.021735
104589.756298
104589.266363
104588.722894
104588.202508
104587.700118
104587.395062
104586.878485
104586.477596
104589.317237
104589.207409
104589.120833
104589.16033
104589.333134
104589.172936
104589.507898
104589.618873
104589.829318
104590.186464
104590.579988
104590.583247
104590.389696
104589.970534
104589.409998
104588.831603
104588.286778
104587.95472
104587.438152
104586.935032
104587.835991
104587.756916
104587.694875
104587.788631
104587.995995
104588.131922
104588.533829
104588.91164
104589.904821
104590.108731
104590.793473
104591.139568
104591.065163
104590.735623
104590.191704
104589.56552
104588.956554
104588.572656
104588.037388
104587.453408
104586.654204
104586.527881
104586.482603
104586.574135
104586.675522
104587.11072
104588.158006
104588.841356
104588.875738
104590.755232
104591.058474
104591.537828
104591.702998
104591.454498
104590.998111
104590.366355
104589.694594
104589.235677
104588.665045
104588.024616
104586.237473
104586.08074
104586.088064
104586.317472
104586.611972
104587.162457
104586.877523
104588.311447
104589.638032
104589.024846
104591.151543
104591.804181
104592.034123
104592.071925
104591.736857
104591.170289
104590.467519
104589.918737
104589.302597
104588.637679
104586.518016
104586.393335
104586.454218
104586.726403
104587.126806
104587.529335
104587.965101
104588.963778
104587.800557
104591.244375
104589.446786
104591.632562
104592.416535
104592.431097
104592.311251
104591.883691
104591.21358
104590.586022
104589.922325
104589.26623
104587.517691
104587.502102
104587.574397
104587.782084
104588.029574
104588.248122
104588.503998
104588.95298
104589.530334
104587.97386
104590.854893
104590.597779
104591.663038
104592.559648
104592.579805
104592.364055
104591.818114
104591.171921
104590.482287
104589.855063
104588.882795
104588.88315
104588.872423
104588.936423
104588.995962
104589.139507
104589.380691
104589.70244
104589.990496
104590.218653
104588.995967
104591.591697
104591.500583
104592.069796
104592.583861
104592.472313
104592.137376
104591.570258
104590.916626
104590.341653
104589.901674
104589.830913
104589.687069
104589.513934
104589.32447
104589.212085
104589.147286
104589.201617
104589.305392
104589.172649
104589.950909
104588.456025
104591.609427
104591.139868
104591.944354
104592.152098
104592.06309
104591.665698
104591.130802
104590.634196
104590.442524
104590.293006
104590.056271
104589.800032
104589.599225
104589.478064
104589.409947
104589.38142
104589.417181
104589.579784
104589.432824
104589.681848
104589.127669
104590.427881
104590.956847
104591.368584
104591.541134
104591.368243
104591.024531
104590.629598
104590.600957
104590.455234
104590.242306
104590.02661
104589.805477
104589.593719
104589.291225
104588.776533
104588.610304
104588.274878
104589.237604
104589.073587
104589.518364
104589.387163
104589.907571
104590.221799
104590.530359
104590.587688
104590.490613
104590.220398
104590.540971
104590.469018
104590.363395
104590.225671
104590.057313
104589.900005
104589.746832
104588.704738
104589.180306
104587.022522
104588.127065
104587.050225
104587.914976
104587.47797
104588.042121
104588.385589
104588.992519
104589.300479
104589.456371
104589.331836
104589.624819
104589.69993
104589.814501
104589.871948
104589.777019
104589.731582
104589.519507
104588.898747
104588.361128
104588.337185
104588.796271
104586.241562
104587.511069
104585.224177
104586.044238
104586.240361
104587.002513
104587.529873
104587.90968
104587.938398
104586.761948
104586.841766
104586.909403
104586.925074
104587.185566
104586.892569
104586.412074
104585.747326
104585.330242
104583.974521
104583.532307
104582.847526
104582.702421
104582.149469
104583.127386
104583.493079
104584.496489
104585.370277
104585.924312
104586.112011
104581.143622
104581.074396
104580.917919
104580.802085
104580.694163
104580.207133
104579.994306
104579.695631
104579.54532
104579.489017
104578.793225
104579.180468
104579.37114
104579.581894
104580.666251
104580.949086
104581.87519
104582.921717
104583.589364
104583.973194
104575.621558
104575.428927
104575.12244
104574.694287
104573.996303
104573.415293
104573.022158
104572.715295
104572.176609
104571.80776
104571.455806
104571.895201
104572.921969
104573.969806
104574.868262
104577.027188
104578.494078
104579.901185
104580.962575
104581.63028
104571.883094
104571.77559
104571.652618
104571.532654
104571.639479
104571.531548
104571.875481
104572.284391
104572.75426
104573.004964
104572.922255
104572.767166
104572.712146
104573.050309
104573.909633
104574.604017
104575.103982
104577.04742
104578.166972
104579.111243
104568.582105
104568.255089
104567.738609
104567.02593
104566.153219
104565.248457
104563.867754
104562.734728
104561.996619
104562.117059
104562.467682
104563.494501
104564.569174
104567.001826
104564.552908
104570.887028
104569.540907
104573.425681
104575.097403
104576.296158
104569.919625
104569.968132
104570.115137
104570.403068
104570.851184
104571.449904
104572.104693
104572.723853
104572.710571
104572.090801
104571.105882
104569.788011
104568.062664
104567.309957
104567.022713
104568.122674
104567.74327
104569.79448
104571.90846
104573.211311
104564.770549
104564.365629
104563.714331
104562.802159
104561.646537
104560.390527
104559.399427
104558.539126
104558.074778
104558.281713
104558.91605
104560.239481
104562.257043
104583.308476
104583.727735
104583.562921
104583.784639
104584.26489
104584.417537
104584.671902
104584.787509
104585.015153
104585.131037
104585.288932
104585.363677
104585.520383
104585.565564
104585.750608
104585.776999
104586.033758
104586.044459
104586.386422
104586.384749
104586.812861
104586.801942
104587.309141
104587.291546
104587.86648
104587.843751
104588.463556
104588.439583
104589.074528
104589.053906
104589.674819
104589.6545
104590.173365
104590.153475
104590.477081
104590.458371
104590.486222
104590.470742
104590.090167
104590.087756
104589.22883
104589.233787
104587.879515
104587.87719
104586.125601
104586.125739
104584.047035
104584.058478
104581.800938
104581.819582
104579.321311
104579.350156
104576.568673
104576.60123
104573.621027
104573.648618
)
;

boundaryField
{
    inletfuel
    {
        type            zeroGradient;
    }
    inletair
    {
        type            zeroGradient;
    }
    outlet
    {
        type            fixedValue;
        value           nonuniform 0();
    }
    axis
    {
        type            empty;
    }
    leftside
    {
        type            zeroGradient;
    }
    burnerwall
    {
        type            zeroGradient;
    }
    front
    {
        type            wedge;
    }
    back
    {
        type            wedge;
    }
    procBoundary0to1
    {
        type            processor;
        value           nonuniform List<scalar> 
27
(
104570.457474
104570.416982
104570.406028
104570.383608
104563.976136
104563.786726
104563.38602
104564.076199
104565.011025
104568.018593
104569.75911
104570.35964
104570.284478
104570.165642
104570.005625
104569.808695
104569.573589
104569.34247
104569.115991
104568.662504
104567.878888
104566.697639
104564.858464
104563.976136
104563.248318
104570.205584
104570.259936
)
;
    }
}


// ************************************************************************* //
