/*--------------------------------*- C++ -*----------------------------------*\
  =========                 |
  \\      /  F ield         | OpenFOAM: The Open Source CFD Toolbox
   \\    /   O peration     | Website:  https://openfoam.org
    \\  /    A nd           | Version:  7
     \\/     M anipulation  |
\*---------------------------------------------------------------------------*/
FoamFile
{
    version     2.0;
    format      ascii;
    class       volScalarField;
    location    "0.08";
    object      PaSR<psiReactionThermo>:kappa;
}
// * * * * * * * * * * * * * * * * * * * * * * * * * * * * * * * * * * * * * //

dimensions      [0 0 0 0 0 0 0];

internalField   nonuniform List<scalar> 
814
(
5.62567576036e-12
7.77609647235e-12
2.5456516971e-11
6.85905511699e-12
9.16909645747e-12
2.44822575213e-11
7.46055927131e-12
1.0034267998e-11
2.41738804e-11
8.89697751379e-12
1.41028366765e-11
3.55416015574e-11
1.07233594324e-11
1.79790533888e-11
3.9665410878e-11
1.27099091425e-11
2.0986987125e-11
3.85253810165e-11
1.46639358134e-11
2.29861774889e-11
3.62997875519e-11
1.62282303655e-11
2.39819985782e-11
3.36681575122e-11
1.73522772421e-11
2.40910523142e-11
3.08528957695e-11
1.79727946337e-11
2.35023976252e-11
2.80336920177e-11
1.80872017518e-11
2.24086733664e-11
2.53408635457e-11
1.77542813664e-11
2.09856778948e-11
2.28398703089e-11
1.70625432588e-11
1.93805916988e-11
2.0541960377e-11
1.61180707176e-11
1.77136483296e-11
1.84410760961e-11
1.50241054432e-11
1.60795453143e-11
1.65439778235e-11
1.38710346473e-11
1.45442204785e-11
1.48552287029e-11
1.27290522466e-11
1.31465093811e-11
1.33660321068e-11
1.16409336912e-11
1.18929611345e-11
1.2050336515e-11
1.05985757402e-11
1.07476413716e-11
1.08522775703e-11
9.55368040012e-12
9.63340456039e-12
9.6828520847e-12
8.41119406616e-12
8.43668918096e-12
8.421955722e-12
7.01436232839e-12
6.99195191065e-12
6.90389632106e-12
5.30933498037e-12
5.26552379021e-12
5.15836289446e-12
3.9230954081e-12
3.89842924566e-12
3.84295980494e-12
3.09346056159e-12
3.0832054392e-12
3.06012198602e-12
2.57407377575e-12
2.56729004352e-12
2.55175775616e-12
2.21334414839e-12
2.20595689432e-12
2.1898379671e-12
1.96081655893e-12
1.9535531806e-12
1.93668926527e-12
1.81533366598e-12
1.80745241573e-12
1.79127242956e-12
1.75606749437e-12
1.7493633547e-12
1.7343480626e-12
1.78233699026e-12
1.77482369659e-12
1.76065516288e-12
1.75852519444e-12
1.7551143738e-12
1.74572531029e-12
1.69009303777e-12
2.57890299794e-11
2.9032975884e-11
2.90193661989e-11
2.78523104786e-11
2.62072417729e-11
2.43687118408e-11
2.24858138335e-11
2.06292979354e-11
1.88482440711e-11
1.719931571e-11
1.56820396051e-11
1.42765736707e-11
1.29998657903e-11
1.18289214868e-11
1.07109294829e-11
9.56325603404e-12
8.27463514132e-12
6.70191155062e-12
4.97972086996e-12
3.75940083005e-12
3.02534664227e-12
2.52771940168e-12
2.16601852816e-12
1.91348498803e-12
1.76957814344e-12
1.71535742881e-12
1.74358685053e-12
1.73507054464e-12
3.14208671699e-13
1.30954561861e-13
1.13806049112e-13
1.05616269184e-13
9.70177573549e-14
8.8268957695e-14
7.92117990965e-14
7.05378756068e-14
6.27020429153e-14
5.59371858467e-14
5.01055492438e-14
4.52184294216e-14
4.10865435729e-14
3.77848172439e-14
3.50602787523e-14
3.30932814828e-14
3.15257011053e-14
3.05714948711e-14
3.12453138858e-14
1.0159366128e-13
3.65275969576e-13
2.42450813838e-13
2.08252770029e-13
1.73984543598e-13
1.42892705359e-13
1.185803656e-13
9.86033781949e-14
8.26226990992e-14
7.01626296746e-14
6.06552767118e-14
5.31901578958e-14
4.73237791887e-14
4.25639178906e-14
3.88429452287e-14
3.58181768557e-14
3.36483006558e-14
3.19215661575e-14
3.09215791841e-14
3.23553488871e-14
1.03529635383e-13
6.47514279277e-13
6.66340645981e-13
4.92766623835e-13
2.96259092719e-13
2.16782920542e-13
1.62959792167e-13
1.24441217898e-13
9.658865261e-14
7.74940693989e-14
6.45261762848e-14
5.53493377599e-14
4.85829568445e-14
4.33365321891e-14
3.93159205764e-14
3.61271048723e-14
3.38335154975e-14
3.20629026226e-14
3.10638749538e-14
3.30575843066e-14
1.05013228265e-13
2.91722929963e-12
1.29993998334e-12
9.76838518638e-13
6.78629375338e-13
4.58370952423e-13
2.77539314157e-13
1.85280417193e-13
1.26302992325e-13
9.15501203793e-14
7.10163924576e-14
5.85705300601e-14
5.03198529338e-14
4.43505632497e-14
3.99242951591e-14
3.65119918795e-14
3.40649769556e-14
3.22258994658e-14
3.1233473051e-14
3.36864756464e-14
1.19152726127e-13
6.97153778995e-12
2.45961344949e-12
1.35784732796e-12
1.04134083433e-12
8.50199885759e-13
5.75486836901e-13
3.45551004985e-13
1.9672924375e-13
1.19689260175e-13
8.22246630218e-14
6.34975346593e-14
5.28012690618e-14
4.57558441389e-14
4.07790452857e-14
3.70532869642e-14
3.441388094e-14
3.24588284236e-14
3.14637852194e-14
3.46415213773e-14
1.32433405782e-13
9.63586392767e-12
3.12886466784e-12
1.60083767074e-12
1.17107060865e-12
1.02594914143e-12
8.63268109847e-13
5.47870097438e-13
2.87793276551e-13
1.56800955525e-13
9.77815864342e-14
7.04778368579e-14
5.62279415563e-14
4.7616850267e-14
4.18821054659e-14
3.77383642869e-14
3.48601069814e-14
3.27536861729e-14
3.17398632685e-14
3.57416740215e-14
1.44130155138e-13
1.10948221105e-11
4.0286851544e-12
2.05645130929e-12
1.24443398584e-12
1.03569734652e-12
9.46492496325e-13
6.7768124752e-13
3.61405300259e-13
1.9252813258e-13
1.15823680454e-13
7.96054845067e-14
6.08042757062e-14
5.00159345986e-14
4.32304987268e-14
3.85392209891e-14
3.53596637051e-14
3.30740773528e-14
3.20068996137e-14
3.69505216855e-14
1.53316430641e-13
1.22926050483e-11
5.02957007057e-12
2.56441118955e-12
1.38297026422e-12
1.04598995001e-12
9.47425242176e-13
7.28354942073e-13
4.11997570107e-13
2.26043244114e-13
1.36119996063e-13
9.09920536518e-14
6.67692416293e-14
5.30971088334e-14
4.4880097965e-14
3.94679873363e-14
3.59056908391e-14
3.34088912181e-14
3.22615894042e-14
3.8193914082e-14
1.6022679102e-13
1.30996730498e-11
6.0494621413e-12
3.19527063958e-12
1.70428587677e-12
1.14534463182e-12
9.71009769593e-13
7.72099845978e-13
4.64302039177e-13
2.63097304225e-13
1.5938407262e-13
1.04605500207e-13
7.42866267465e-14
5.70362695862e-14
4.69386753154e-14
4.05760693701e-14
3.65246078507e-14
3.37720579331e-14
3.25384523379e-14
3.94116873199e-14
1.64201332008e-13
1.35590951897e-11
7.02992603296e-12
3.95277726341e-12
2.17579243183e-12
1.29193029356e-12
1.02375251877e-12
8.34249273017e-13
5.34464735734e-13
3.07236729543e-13
1.85660653995e-13
1.2025671922e-13
8.33768561654e-14
6.19985202267e-14
4.9531664622e-14
4.19317551927e-14
3.72501510975e-14
3.41809496754e-14
3.28622538006e-14
4.05972353595e-14
1.65773265789e-13
1.37471666581e-11
7.88510505693e-12
4.7486217866e-12
2.69483565963e-12
1.44741774001e-12
1.09938013028e-12
8.94128989992e-13
6.18958022075e-13
3.5906807851e-13
2.14711090762e-13
1.37717297282e-13
9.39310187254e-14
6.807886076e-14
5.27763878303e-14
4.36076742718e-14
3.81144546684e-14
3.4648679964e-14
3.32387613493e-14
4.17614529311e-14
1.65654642825e-13
1.37025838024e-11
8.53601477223e-12
5.46612988652e-12
3.19568564538e-12
1.6304070282e-12
1.1797535181e-12
9.40212123884e-13
6.94578541246e-13
4.15265272136e-13
2.4620458466e-13
1.5680793643e-13
1.05819964144e-13
7.52880081446e-14
5.67789050684e-14
4.56819240781e-14
3.91552406659e-14
3.51895717633e-14
3.36692750648e-14
4.29449164815e-14
1.64449095432e-13
1.34676832576e-11
8.97783267064e-12
6.05947323791e-12
3.67353481273e-12
1.8650089215e-12
1.24011252564e-12
9.68221315852e-13
7.38630655421e-13
4.68204060192e-13
2.79619961967e-13
1.77516082835e-13
1.18981395774e-13
8.35635034686e-14
6.16209199157e-14
4.82422956949e-14
4.04220382307e-14
3.58245680857e-14
3.41587644838e-14
4.42270211115e-14
1.62487169385e-13
1.31078103933e-11
9.25014173799e-12
6.52568378515e-12
4.11144922531e-12
2.08763258144e-12
1.26359906913e-12
9.62307563961e-13
7.47266668277e-13
5.09669777569e-13
3.14790076668e-13
2.00252162681e-13
1.33607747963e-13
9.29619771787e-14
6.7376132325e-14
5.13913830721e-14
4.1977644667e-14
3.65828198589e-14
3.47153750513e-14
4.56369243362e-14
1.59968200468e-13
1.26735033728e-11
9.39908571398e-12
6.88640654362e-12
4.51262601212e-12
2.32154492403e-12
1.27319151421e-12
9.41560728433e-13
7.52634104797e-13
5.50454881476e-13
3.57019431869e-13
2.27584701445e-13
1.50830763279e-13
1.03846779135e-13
7.41677856475e-14
5.5244488938e-14
4.38996935979e-14
3.75012539465e-14
3.5349043426e-14
4.71134196675e-14
1.5705142299e-13
1.21596034416e-11
9.44601424062e-12
7.15729747162e-12
4.87408209385e-12
2.59219754269e-12
1.33952958146e-12
9.84174452864e-13
8.22059864372e-13
6.35552132667e-13
4.29750372139e-13
2.70006530044e-13
1.74454496725e-13
1.17576241468e-13
8.24016847744e-14
5.99732046644e-14
4.62888206105e-14
3.86250996097e-14
3.60714135178e-14
4.85962219445e-14
1.53877821147e-13
1.15289937068e-11
9.34984877913e-12
7.31097490365e-12
5.16363005153e-12
2.90857584481e-12
1.5100755414e-12
1.10566527075e-12
9.76473163762e-13
8.02272233777e-13
5.74860464474e-13
3.56461189166e-13
2.15593350293e-13
1.37858453667e-13
9.31547886379e-14
6.58576284046e-14
4.9262379635e-14
4.00035474371e-14
3.6894603967e-14
5.00246413647e-14
1.50572170274e-13
1.08037060135e-11
9.04622639546e-12
7.20738991998e-12
5.12300606533e-12
2.92155323963e-12
1.61330063362e-12
1.25319142062e-12
1.15645437937e-12
1.01906410489e-12
7.97547900523e-13
5.28798231277e-13
3.01049210398e-13
1.73745858727e-13
1.08936956868e-13
7.34669653137e-14
5.2966821206e-14
4.16880699012e-14
3.78296445945e-14
5.13476539529e-14
1.4722326067e-13
9.9579467443e-12
8.47886300587e-12
6.73197357158e-12
4.62059554117e-12
2.63467113773e-12
1.70670081389e-12
1.46344732911e-12
1.35518778023e-12
1.22737803203e-12
1.03303016778e-12
7.64607778265e-13
4.62423256005e-13
2.43276817375e-13
1.34828862672e-13
8.38422101894e-14
5.75247685235e-14
4.37022765088e-14
3.88802962431e-14
5.25349438526e-14
1.43887280006e-13
8.93451030245e-12
7.58400268207e-12
5.81925458936e-12
3.79743192749e-12
2.41099394753e-12
1.89076409372e-12
1.68163268518e-12
1.55054523223e-12
1.40307672923e-12
1.23144321207e-12
9.88155397712e-13
6.73469290737e-13
3.61611450015e-13
1.77284061074e-13
9.81533666687e-14
6.30057716732e-14
4.60265963083e-14
4.00399167998e-14
5.35771550227e-14
1.40594362304e-13
7.65574143202e-12
6.31494957363e-12
4.62149831514e-12
3.17788156303e-12
2.46273118513e-12
2.10876189591e-12
1.85740041218e-12
1.68219864053e-12
1.54182428731e-12
1.35948578256e-12
1.15017264856e-12
8.59395386454e-13
5.07886170531e-13
2.36740590545e-13
1.15849848106e-13
6.89644859406e-14
4.84899347835e-14
4.1274162778e-14
5.44820534454e-14
1.37360066137e-13
6.06102872648e-12
4.868908905e-12
3.72772919369e-12
3.01473918566e-12
2.59603846408e-12
2.24287446661e-12
1.93128644118e-12
1.70874954242e-12
1.56872694584e-12
1.40456605491e-12
1.22892787805e-12
9.68177055878e-13
6.22772411562e-13
2.93180309457e-13
1.3227446189e-13
7.42646130333e-14
5.08106612157e-14
4.25406115991e-14
5.52650979437e-14
1.34180500905e-13
4.53250581352e-12
3.86265347243e-12
3.33215180987e-12
2.94417710166e-12
2.57534042104e-12
2.1893703436e-12
1.84396676543e-12
1.60514207664e-12
1.4841614681e-12
1.38341523267e-12
1.23255325184e-12
9.92709860612e-13
6.57587568298e-13
3.13341473035e-13
1.38686825189e-13
7.72408157251e-14
5.27195753733e-14
4.38169585196e-14
5.59555257737e-14
1.31028643107e-13
3.5689798131e-12
3.2759855318e-12
2.98960957904e-12
2.67384479336e-12
2.30012100221e-12
1.90572542191e-12
1.59795768318e-12
1.40233292585e-12
1.33268445966e-12
1.30017122876e-12
1.16899453648e-12
9.33749590545e-13
6.00845502795e-13
2.82505714641e-13
1.33080063665e-13
7.83119086e-14
5.45764296198e-14
4.52528529082e-14
5.66012432964e-14
1.27860162055e-13
2.94429453641e-12
2.77944735456e-12
2.55684625347e-12
2.2657769811e-12
1.92736329837e-12
1.60781589614e-12
1.37430375632e-12
1.22097390699e-12
1.15561359022e-12
1.13995715392e-12
1.01904574055e-12
7.69214443907e-13
4.55481961445e-13
2.26828879491e-13
1.25015394406e-13
8.03733549641e-14
5.74771515249e-14
4.72600915116e-14
5.73051427403e-14
1.24622747583e-13
2.47286943886e-12
2.34188051095e-12
2.14775813249e-12
1.89826035163e-12
1.63014934318e-12
1.39608993342e-12
1.20229934847e-12
1.03959855486e-12
9.4836685629e-13
9.11790008581e-13
8.0002602124e-13
5.57058164933e-13
3.31957347239e-13
1.99947740199e-13
1.29727717257e-13
8.90620546784e-14
6.39099963467e-14
5.08571665083e-14
5.83060492856e-14
1.21282013049e-13
2.11456461991e-12
1.99700596677e-12
1.83122111933e-12
1.63637294313e-12
1.44871247296e-12
1.27179141726e-12
1.05973406727e-12
8.70092479734e-13
7.56188212621e-13
6.92089467819e-13
5.94265768739e-13
4.48795203455e-13
3.19280754136e-13
2.28998508192e-13
1.62088470279e-13
1.12927943522e-13
7.81333971709e-14
5.78242564812e-14
6.01829585449e-14
1.17923644511e-13
1.86365215484e-12
1.75855392767e-12
1.62101664048e-12
1.47805497827e-12
1.36447683714e-12
1.21176910066e-12
9.79493136958e-13
7.92874110296e-13
6.85861970555e-13
6.17967243159e-13
5.47968175848e-13
4.806735962e-13
4.01186313147e-13
3.21826221642e-13
2.40674841057e-13
1.66682322796e-13
1.08756868479e-13
7.20510532686e-14
6.42203530954e-14
1.1482003142e-13
1.72277667035e-12
1.63090915141e-12
1.51503049105e-12
1.39864688977e-12
1.30969416295e-12
1.18297979965e-12
9.92537900384e-13
8.4128596525e-13
7.48123803661e-13
6.81370103259e-13
6.2271446551e-13
5.75668411904e-13
5.22132444482e-13
4.56143446902e-13
3.71658511738e-13
2.69909324906e-13
1.71652335716e-13
1.00850238712e-13
7.27427681959e-14
1.1269394191e-13
1.67285131997e-12
1.59417137595e-12
1.49551826574e-12
1.390684446e-12
1.29565156248e-12
1.18217033203e-12
1.05969300122e-12
9.60106845989e-13
8.84421072822e-13
8.20010742548e-13
7.58597752409e-13
7.01435798823e-13
6.46096407333e-13
5.86233863042e-13
5.11878219372e-13
4.09177195281e-13
2.79586805972e-13
1.56424932479e-13
9.02528688048e-14
1.12678373748e-13
1.70653622835e-12
1.64015989221e-12
1.55615361755e-12
1.46258932843e-12
1.36809120384e-12
1.27213320987e-12
1.18093727995e-12
1.09992294465e-12
1.0291284109e-12
9.61320708828e-13
8.90999357332e-13
8.19102833507e-13
7.51781306503e-13
6.93026578953e-13
6.30736499394e-13
5.39808699934e-13
4.10972054626e-13
2.44044966638e-13
1.20328267533e-13
1.15799229459e-13
1.70905186207e-12
1.65843713783e-12
1.59216605244e-12
1.51550878287e-12
1.4335842665e-12
1.34985234984e-12
1.26732251709e-12
1.18700875805e-12
1.10840972397e-12
1.03069602686e-12
9.49584965593e-13
8.6794303906e-13
7.92349106785e-13
1.86949784202e-13
3.63784836268e-13
4.75465674914e-13
3.69479437408e-13
4.99351246531e-13
3.71717848468e-13
4.89602837248e-13
3.71489054667e-13
4.66268238967e-13
3.70542520881e-13
4.38498781361e-13
3.69229683579e-13
4.1191321348e-13
3.67714004924e-13
3.87785463752e-13
3.66046908246e-13
3.66668722884e-13
3.64246279523e-13
3.48372813863e-13
3.6231836681e-13
3.32570891102e-13
3.60269292294e-13
3.18914258472e-13
3.58105239466e-13
3.07072303355e-13
3.55835609546e-13
2.96761342418e-13
3.53472655959e-13
2.87763554697e-13
3.51031511264e-13
2.79907030498e-13
3.48533478113e-13
2.73058105889e-13
3.46001113203e-13
2.67109884891e-13
3.4345984847e-13
2.61968220699e-13
3.409441517e-13
2.57528270031e-13
3.38504467087e-13
2.53629062317e-13
3.36200261223e-13
2.50045946394e-13
3.34133132836e-13
2.46560194608e-13
3.32378482198e-13
2.43004574112e-13
3.31051340294e-13
2.39385370799e-13
3.30189416008e-13
2.36055009562e-13
3.2980308173e-13
2.33453092826e-13
3.29785406554e-13
2.32483495645e-13
3.29981445121e-13
)
;

boundaryField
{
    inletfuel
    {
        type            calculated;
        value           uniform 0;
    }
    inletair
    {
        type            calculated;
        value           uniform 0;
    }
    outlet
    {
        type            calculated;
        value           nonuniform 0();
    }
    axis
    {
        type            empty;
    }
    leftside
    {
        type            calculated;
        value           uniform 0;
    }
    burnerwall
    {
        type            calculated;
        value           uniform 0;
    }
    front
    {
        type            wedge;
    }
    back
    {
        type            wedge;
    }
    procBoundary0to1
    {
        type            processor;
        value           uniform 0;
    }
}


// ************************************************************************* //
