/*--------------------------------*- C++ -*----------------------------------*\
  =========                 |
  \\      /  F ield         | OpenFOAM: The Open Source CFD Toolbox
   \\    /   O peration     | Website:  https://openfoam.org
    \\  /    A nd           | Version:  7
     \\/     M anipulation  |
\*---------------------------------------------------------------------------*/
FoamFile
{
    version     2.0;
    format      ascii;
    class       surfaceScalarField;
    location    "0.08";
    object      phi;
}
// * * * * * * * * * * * * * * * * * * * * * * * * * * * * * * * * * * * * * //

dimensions      [1 0 -1 0 0 0 0];

internalField   nonuniform List<scalar> 
1567
(
-3.61018613153e-09
9.20242329097e-08
-1.43150754433e-08
2.75931753803e-07
4.27823104771e-07
8.90129043042e-10
9.13225680811e-08
-4.26839397835e-09
2.81645450438e-07
4.24452804024e-07
-1.15850069637e-10
9.15627467454e-08
-8.15199593985e-10
2.82695548393e-07
4.24175139547e-07
-2.223415624e-09
9.38663526847e-08
4.4104973093e-09
2.76078688366e-07
3.83043729965e-07
4.11659772716e-08
4.38766485065e-10
9.34820002949e-08
1.24132510676e-08
2.6407330267e-07
3.70001095098e-07
2.39391133154e-08
5.06147623136e-10
9.30117979172e-08
4.31140084202e-09
2.60264124438e-07
3.53959958877e-07
1.98858628453e-08
-8.08359132908e-10
9.38405820358e-08
1.07557016262e-09
2.58392105756e-07
3.50119235535e-07
4.73326074534e-09
-1.06316099262e-10
9.39571384255e-08
7.7784789214e-10
2.57518736114e-07
3.48375345534e-07
2.28754793736e-09
3.61247256762e-10
9.35997895339e-08
1.58403231982e-09
2.56282464162e-07
3.47546176596e-07
2.06587618128e-09
5.00087431628e-10
9.3100620381e-08
2.97228428976e-09
2.53759612018e-07
3.4798844517e-07
2.1506528288e-09
8.75277380335e-10
9.2224710104e-08
3.93398874317e-09
2.50622270506e-07
3.49209524522e-07
2.42584030762e-09
1.32441302189e-09
9.08946103692e-08
4.08586538907e-09
2.47782528946e-07
3.51198230652e-07
2.0258372529e-09
1.71549563206e-09
8.9166024036e-08
3.95144467968e-09
2.4551652604e-07
3.54405067498e-07
1.00966605747e-09
2.18691072808e-09
8.69660696272e-08
5.2759523163e-09
2.42501047567e-07
3.57320234672e-07
3.04492224861e-09
2.75189233185e-09
8.42216625487e-08
7.98841349437e-09
2.37491732483e-07
3.57480358069e-07
8.92475728265e-09
3.52731913891e-09
8.07517301405e-08
1.11938534217e-08
2.30233783405e-07
3.52838641441e-07
1.73084972189e-08
4.63847769154e-09
7.62524221229e-08
1.59888777172e-08
2.19548473164e-07
3.41142805904e-07
2.94969585908e-08
6.19152233273e-09
7.02844538706e-08
2.2387018161e-08
2.04232829501e-07
3.20445667526e-07
4.51079753699e-08
7.27191286633e-09
6.33048328716e-08
2.76656275579e-08
1.84842338575e-07
2.92439482531e-07
5.76965999312e-08
7.8136280698e-09
5.5765776384e-08
3.01534364445e-08
1.63399362938e-07
2.60570128896e-07
6.36647293887e-08
7.53230869303e-09
4.84421716125e-08
2.90497261596e-08
1.42517083768e-07
2.28860403263e-07
6.18425836826e-08
6.8933729517e-09
4.16802095939e-08
2.68628307671e-08
1.22973044542e-07
1.99303332556e-07
5.72002785181e-08
5.94623847457e-09
3.59436702009e-08
2.2961019172e-08
1.06623622214e-07
1.7404097506e-07
4.95229038268e-08
4.0772784186e-09
3.22711993822e-08
1.56663523271e-08
9.63123149483e-08
1.5793805646e-07
3.40871759398e-08
1.58507638151e-10
3.27592607767e-08
7.56041994806e-10
9.76556217521e-08
1.61554247793e-07
4.99416047451e-10
-3.49872222559e-09
3.69581387537e-08
-1.44659638351e-08
1.10770477462e-07
1.8385695259e-07
-3.3087604107e-08
-4.00032968312e-09
4.16535768312e-08
-1.62202420389e-08
1.25061758786e-07
2.08270513529e-07
-3.71140194552e-08
-1.98149150368e-09
4.41805508214e-08
-8.04851691683e-09
1.32809798778e-07
2.21353714707e-07
-1.82917960179e-08
1.084096296e-09
4.35523217015e-08
4.03109562535e-09
1.31210933608e-07
2.18610027634e-07
9.0349250778e-09
4.50399377341e-09
3.93072643873e-08
1.83430008837e-08
1.18175899527e-07
1.97011576358e-07
4.12594484825e-08
8.06800868811e-09
3.15844947227e-08
3.03955534459e-08
9.68546574049e-08
1.61962967399e-07
6.70461834733e-08
1.10404188368e-08
4.42826949772e-08
9.93174989615e-08
2.80319373178e-07
-2.52792779809e-07
2.65397017854e-07
3.39768484874e-08
2.63392936769e-07
1.95245139124e-08
2.76212853082e-07
-9.87005466195e-09
2.90851608504e-07
-1.38643765353e-08
3.05203174919e-07
-1.33748051624e-08
3.18399365096e-07
-1.15922109661e-08
3.3048342068e-07
-9.65478984577e-09
3.4219909895e-07
-9.14802892026e-09
3.5421110696e-07
-9.86226974991e-09
3.66132744834e-07
-7.08396992284e-09
3.7510738853e-07
2.21665222579e-09
3.77597296172e-07
1.7459030801e-08
3.70548650362e-07
3.94629792112e-08
3.52773957291e-07
6.586581489e-08
3.2558776955e-07
8.76151179764e-08
2.92764916443e-07
9.85439532988e-08
2.59696792962e-07
9.61822232812e-08
2.28333736765e-07
8.96446398604e-08
2.01155411638e-07
7.85359999257e-08
1.84766875078e-07
5.35273411609e-08
1.90776590985e-07
-1.34807536113e-09
2.19295872738e-07
-5.70005405485e-08
2.49166612402e-07
-6.26837907583e-08
2.65676637309e-07
-3.12838358648e-08
2.62827895127e-07
1.46051020615e-08
2.36542991509e-07
6.91392557329e-08
1.95112471971e-07
1.10266800652e-07
1.65534833848e-07
-2.21808065116e-07
1.22113700933e-06
-6.19809969369e-07
1.9945323618e-06
-1.15061115709e-06
2.87143221716e-06
-1.86894175171e-06
3.98058771045e-06
-2.59039476597e-06
5.11936818466e-06
-3.51784822267e-06
6.71861004854e-06
-4.42466053448e-06
8.40062722724e-06
-5.37586577671e-06
1.05187163657e-05
-6.22097905344e-06
1.29306285787e-05
-6.97292513756e-06
1.5887495755e-05
-7.55279514823e-06
1.94029454421e-05
-7.94524019259e-06
2.36665597034e-05
-8.10401625626e-06
2.87958130643e-05
-7.97929037584e-06
3.49594749547e-05
-7.56736811072e-06
4.24053636815e-05
-6.73624878029e-06
5.12490204671e-05
-5.64013072817e-06
6.20704720935e-05
-3.92264523412e-06
7.46943520198e-05
-2.47218280479e-06
9.07612548749e-05
0.000108604428003
1.7552404252e-07
1.03354376374e-06
-2.03124966132e-07
2.41483508473e-06
-3.91932371403e-07
3.14331227876e-06
-9.60407142886e-07
4.67399196728e-06
-1.50838564372e-06
5.84308426769e-06
-2.1821004893e-06
7.62729982824e-06
-2.7503283797e-06
9.27616911222e-06
-3.32270448431e-06
1.14866916838e-05
-3.78930963385e-06
1.3900849038e-05
-4.1959339226e-06
1.69286557265e-05
-4.48733804345e-06
2.04871936072e-05
-4.67340698675e-06
2.48378833879e-05
-4.72220316364e-06
3.00644616632e-05
-4.60984286097e-06
3.63508064601e-05
-4.32440736322e-06
4.39623446067e-05
-3.80149141915e-06
5.29706304378e-05
-3.10819172375e-06
6.409862408e-05
-2.0834499191e-06
7.69517503717e-05
-1.61676157409e-06
9.42279271365e-05
0.0001117076018
-2.11789227471e-07
1.00853167834e-06
-2.66305311751e-07
2.12767323206e-06
-3.75544358757e-07
2.94730925891e-06
-6.97971931716e-07
4.93363306064e-06
-9.28092494568e-07
6.13121015547e-06
-1.38878072113e-06
8.22185904585e-06
-1.71807822991e-06
9.80329022316e-06
-2.05577874424e-06
1.20857075328e-05
-2.27810726595e-06
1.44578254655e-05
-2.46557985896e-06
1.75382840341e-05
-2.58759718484e-06
2.11364130809e-05
-2.65744875855e-06
2.55616674002e-05
-2.65288328862e-06
3.08680536444e-05
-2.56369065799e-06
3.72569779477e-05
-2.37393850723e-06
4.49924915658e-05
-2.05791387964e-06
5.41417320175e-05
-1.62547657272e-06
6.54699709926e-05
-1.02845879046e-06
7.85320549964e-05
-9.70268070529e-07
9.67838408351e-05
0.000113882606466
-2.94964684258e-07
8.01158869683e-07
-1.28482909597e-07
1.17370610065e-06
-7.20849421597e-07
2.20335608387e-06
-9.33013900192e-07
3.80820494641e-06
-1.49728852954e-06
5.90862601546e-06
-1.69721958821e-06
8.22061034025e-06
-2.00825547411e-06
1.02172938161e-05
-2.28728764311e-06
1.26258033523e-05
-2.45110811027e-06
1.4984110451e-05
-2.58160299777e-06
1.81321408203e-05
-2.65925073859e-06
2.17941349498e-05
-2.69226713344e-06
2.63137854481e-05
-2.65726156915e-06
3.17206402241e-05
-2.54452184127e-06
3.82367595357e-05
-2.32669629303e-06
4.61140071026e-05
-1.98675641596e-06
5.54350719845e-05
-1.48312577993e-06
6.69484196566e-05
-8.41514199819e-07
8.02842579627e-05
5.10669863091e-07
9.83107651348e-05
0.000117274135718
5.5240068303e-07
1.34142743325e-07
6.35150534888e-07
2.22866907097e-07
8.34182032749e-07
-1.2545879534e-08
1.53524941112e-06
-6.13877122633e-07
2.4643486055e-06
-1.74224297084e-06
4.72112087239e-06
-2.28379211186e-06
6.91871381162e-06
-2.71040547178e-06
9.81837436156e-06
-2.67532489839e-06
1.254440908e-05
-2.73843799853e-06
1.53618235766e-05
-2.79420016321e-06
1.86569055643e-05
-2.82450408002e-06
2.24208006628e-05
-2.8218473185e-06
2.70523720731e-05
-2.75855046794e-06
3.25720532392e-05
-2.62117614477e-06
3.92251598791e-05
-2.3729711062e-06
4.72467059887e-05
-2.00104249173e-06
5.67482347332e-05
-1.41908369737e-06
6.84123423744e-05
-6.56898193269e-07
8.19948663893e-05
1.19147162047e-06
9.94413938856e-05
0.00011806377267
3.97240926051e-06
2.23655742239e-08
6.07094846939e-07
-3.49763728122e-08
7.74221542096e-07
-1.37325204851e-07
1.19132514509e-06
-6.9858283014e-07
1.7593904586e-06
-1.78220201488e-06
3.55155231872e-06
-2.65789148199e-06
5.4538553433e-06
-3.10167153354e-06
8.83173304969e-06
-3.08501299245e-06
1.21299066523e-05
-3.13048894719e-06
1.55916990605e-05
-3.09418243207e-06
1.90735128008e-05
-3.07661838098e-06
2.30065627442e-05
-3.0345323583e-06
2.77658995742e-05
-2.94030005454e-06
3.34112963882e-05
-2.77263297904e-06
4.02065090408e-05
-2.48917934149e-06
4.83734134366e-05
-2.07783372354e-06
5.80587878319e-05
-1.42370882153e-06
6.98501956294e-05
-5.54641756281e-07
8.36570443583e-05
1.37348945311e-06
0.000100566995888
0.000118346146787
4.76648613754e-06
-4.5780469676e-08
6.23170527038e-07
-1.27078486359e-07
7.69979863301e-07
-2.40577968575e-07
1.08788084797e-06
-7.34541756028e-07
1.53472045611e-06
-1.54530680211e-06
2.88960984953e-06
-2.54180318725e-06
4.77144115374e-06
-3.13989528853e-06
8.17680832813e-06
-3.36389466694e-06
1.18178038789e-05
-3.42475538648e-06
1.56920232288e-05
-3.37045843142e-06
1.94228597649e-05
-3.31929562222e-06
2.35621248357e-05
-3.24249125248e-06
2.8459991013e-05
-3.11589463314e-06
3.42403836616e-05
-2.91658881488e-06
4.11841184461e-05
-2.59772804072e-06
4.94993120614e-05
-2.14999724285e-06
5.93762027002e-05
-1.44010173195e-06
7.12860224355e-05
-5.10721076271e-07
8.53271191881e-05
1.45986841234e-06
0.000101736891839
0.000118910321005
4.68202024562e-06
-7.00903746277e-08
6.64859349833e-07
-1.66794856841e-07
8.11438489543e-07
-3.03803406376e-07
1.09965113559e-06
-6.38505638955e-07
1.51199283897e-06
-1.26132920174e-06
2.72480642376e-06
-2.1336878972e-06
4.6526413161e-06
-2.84495053892e-06
7.93577020262e-06
-3.34180132812e-06
1.17042591055e-05
-3.55394789152e-06
1.57719200756e-05
-3.58893923459e-06
1.97649437352e-05
-3.53386164397e-06
2.41016782483e-05
-3.43106905155e-06
2.91441178896e-05
-3.27354903588e-06
3.50650047297e-05
-3.04298586814e-06
4.21648850723e-05
-2.69144971265e-06
5.06350755645e-05
-2.21344479304e-06
6.07158501607e-05
-1.46852767678e-06
7.27522868489e-05
-5.18218740843e-07
8.70586259121e-05
1.37440140428e-06
0.000103088655815
0.000120182652281
4.01802531039e-06
-7.57816789219e-08
7.18740741981e-07
-1.72614101189e-07
8.74057157102e-07
-3.03304524324e-07
1.14499442834e-06
-5.37509720076e-07
1.54666393494e-06
-1.07752867238e-06
2.60493736796e-06
-1.95544356961e-06
4.53647113464e-06
-2.73806303206e-06
7.59487300555e-06
-3.38189835912e-06
1.14711661506e-05
-3.68438996284e-06
1.56918393414e-05
-3.79152674218e-06
2.00164142752e-05
-3.75426590723e-06
2.46111040322e-05
-3.62466973115e-06
2.98121768371e-05
-3.43603616704e-06
3.58843391998e-05
-3.17500701547e-06
4.31516278366e-05
-2.79399970612e-06
5.17871541016e-05
-2.29025475311e-06
6.20865082458e-05
-1.52809598124e-06
7.42719884922e-05
-5.81428388606e-07
8.88821974602e-05
1.14562393964e-06
0.000104716046055
0.000122143616731
3.2362506772e-06
-7.66491969476e-08
7.80600794646e-07
-1.65687612937e-07
9.42593289137e-07
-2.76060277372e-07
1.18873647049e-06
-4.53874974174e-07
1.54267655063e-06
-9.64129844816e-07
2.37589393506e-06
-1.86105207914e-06
4.16099935392e-06
-2.76541990183e-06
6.95847027047e-06
-3.5014227579e-06
1.09148280027e-05
-3.873033638e-06
1.53586092871e-05
-4.01908169475e-06
2.00826281394e-05
-3.9866729764e-06
2.50235062131e-05
-3.8350536789e-06
3.04473735351e-05
-3.61810543563e-06
3.66966301526e-05
-3.3280667668e-06
4.4143672781e-05
-2.92124163356e-06
5.29586415272e-05
-2.39486810044e-06
6.34913440025e-05
-1.62777957497e-06
7.58581982156e-05
-6.97681692671e-07
9.08113944773e-05
8.23749001136e-07
0.000106657981365
0.000124701292627
2.45028350742e-06
-7.46669862768e-08
8.46683324266e-07
-1.58605614323e-07
1.0161110418e-06
-2.53949978393e-07
1.23429882496e-06
-3.9944264738e-07
1.53060419077e-06
-8.51645191331e-07
2.1411517329e-06
-1.69794100083e-06
3.6768044757e-06
-2.72190366276e-06
6.21922197977e-06
-3.55483161793e-06
1.00985075513e-05
-4.04438768583e-06
1.48067336923e-05
-4.22686163432e-06
1.99246571352e-05
-4.21833556851e-06
2.52954303014e-05
-4.06024415597e-06
3.10296194184e-05
-3.81862305715e-06
3.7497348521e-05
-3.50271909144e-06
4.51399781652e-05
-3.07320647777e-06
5.41509196922e-05
-2.52645237719e-06
6.4932241094e-05
-1.76183226363e-06
7.75185822007e-05
-8.51122284489e-07
9.28494094226e-05
4.79709957335e-07
0.000108898230726
0.000127691016601
1.80294990497e-06
-7.62256767653e-08
9.18166184359e-07
-1.65508108035e-07
1.10269105276e-06
-2.69124504268e-07
1.30332143462e-06
-4.22255589556e-07
1.56218406505e-06
-7.48581850671e-07
2.03683046612e-06
-1.47756471512e-06
3.28925109017e-06
-2.50510720783e-06
5.59752949326e-06
-3.42576424384e-06
9.25597203001e-06
-4.08086175563e-06
1.41578761536e-05
-4.35824913651e-06
1.96017512232e-05
-4.41219244824e-06
2.5419116153e-05
-4.27687275881e-06
3.15395172384e-05
-4.0314642146e-06
3.82875781597e-05
-3.6917166592e-06
4.613829974e-05
-3.24298745272e-06
5.53655004449e-05
-2.67818231188e-06
6.64112369557e-05
-1.91930045675e-06
7.92575631505e-05
-1.02567084086e-06
9.49957495511e-05
1.53881234007e-07
0.000111398835618
0.000130991570976
1.29371872043e-06
-7.75629303135e-08
9.93026805485e-07
-1.70294109569e-07
1.19888607225e-06
-2.82445911242e-07
1.39299417081e-06
-4.42346818283e-07
1.62699336156e-06
-7.13034277819e-07
2.05491603667e-06
-1.3326150838e-06
3.07938534637e-06
-2.21083036875e-06
5.13899497641e-06
-3.17865094202e-06
8.58294145519e-06
-3.95835295517e-06
1.34867881568e-05
-4.37686990702e-06
1.9184051849e-05
-4.5370826355e-06
2.54182480386e-05
-4.4640275724e-06
3.19606357959e-05
-4.23959221814e-06
3.90637019086e-05
-3.88688970215e-06
4.71440148381e-05
-3.42438842947e-06
5.66054351108e-05
-2.84233684365e-06
6.7928762139e-05
-2.0898887847e-06
8.10768217307e-05
-1.20793219551e-06
9.72469514065e-05
-1.41369621168e-07
0.000114124033249
0.000134519760037
8.97450526795e-07
-7.10641613332e-08
1.06668496961e-06
-1.60966923292e-07
1.29770289564e-06
-2.70475137602e-07
1.49072330225e-06
-4.20261329704e-07
1.70102133714e-06
-6.60194124297e-07
2.1001665763e-06
-1.17681366146e-06
3.01741766257e-06
-1.98530463431e-06
4.92793746072e-06
-2.8714095257e-06
8.07317518704e-06
-3.70574883829e-06
1.28551639655e-05
-4.2809944442e-06
1.87185004819e-05
-4.56789149007e-06
2.53193643163e-05
-4.60546551298e-06
3.22928597397e-05
-4.43550412367e-06
3.98149195244e-05
-4.08549095746e-06
4.815887987e-05
-3.61147761008e-06
5.78709037216e-05
-3.0119498913e-06
6.94836471174e-05
-2.26399951065e-06
8.29747750622e-05
-1.3868642472e-06
9.95972553598e-05
-3.93960346678e-07
0.000117036005059
0.000138224584082
5.94434603121e-07
-4.81568974079e-08
1.12916826621e-06
-1.19594935822e-07
1.38333875976e-06
-2.0309838944e-07
1.5740626656e-06
-3.06671939919e-07
1.74964388138e-06
-4.80201127394e-07
2.10365067721e-06
-9.21179249022e-07
2.98819832538e-06
-1.66071380979e-06
4.75908456049e-06
-2.61641830443e-06
7.70733048975e-06
-3.506423784e-06
1.22320736875e-05
-4.14026456349e-06
1.80835887928e-05
-4.55561827726e-06
2.50918476368e-05
-4.70137120797e-06
3.24860522376e-05
-4.60893804854e-06
4.04990881156e-05
-4.28580428903e-06
4.91827127164e-05
-3.79973492605e-06
5.91582718936e-05
-3.17956183743e-06
7.10717798325e-05
-2.43219629104e-06
8.49471355922e-05
-1.55381481812e-06
0.000102040710806
-6.07346452566e-07
0.000120107879899
0.00014207069065
3.65221739119e-07
-3.51661124844e-09
1.16362628414e-06
-3.8159451955e-08
1.43669277608e-06
-7.31340571131e-08
1.62100818291e-06
-1.00236180541e-07
1.75891110514e-06
-1.18126887675e-07
2.05967188754e-06
-3.37070404792e-07
2.83129791832e-06
-1.06472790933e-06
4.42202893557e-06
-2.1736550638e-06
7.11077299295e-06
-3.15816732762e-06
1.12470826926e-05
-4.07626907063e-06
1.72205504453e-05
-4.51933879575e-06
2.44265199874e-05
-4.7856837133e-06
3.24573519744e-05
-4.77128897413e-06
4.10201562593e-05
-4.48650543626e-06
5.01733150093e-05
-3.9806818173e-06
6.0450184263e-05
-3.33393101521e-06
7.26855200679e-05
-2.58152057306e-06
8.69870619031e-05
-1.69970880009e-06
0.000104574317145
-7.80647412007e-07
0.000123320512739
0.000146037761383
1.9589336698e-07
5.67323686283e-08
1.16030008952e-06
6.95430132018e-08
1.44432928789e-06
8.14442910721e-08
1.62824675146e-06
1.07453932775e-07
1.75151671411e-06
1.59044908104e-07
2.0423467369e-06
1.58762884638e-07
2.65522399288e-06
-1.94846985847e-07
3.81746385636e-06
-1.11525326365e-06
5.93552262041e-06
-2.63194382989e-06
9.83558711183e-06
-3.68207449197e-06
1.54089886364e-05
-4.56600550455e-06
2.32351574435e-05
-4.9369972721e-06
3.19014801989e-05
-4.91841445786e-06
4.11297022507e-05
-4.65824383289e-06
5.10177127474e-05
-4.14393813805e-06
6.17291094245e-05
-3.46119703137e-06
7.4313549754e-05
-2.69931693651e-06
8.9088106516e-05
-1.81610837757e-06
0.000107197937164
-9.14962647179e-07
0.000126663884265
0.000150117471054
7.33883332453e-08
1.22517206406e-07
1.11696280732e-06
1.78216311872e-07
1.40770570256e-06
2.2946048203e-07
1.59718625924e-06
2.86860910154e-07
1.7371559919e-06
3.67157135817e-07
2.02892701641e-06
3.92645023274e-07
2.51531504822e-06
3.71687232646e-07
3.28695365055e-06
2.83329677021e-09
4.75276451264e-06
-1.05936285229e-06
7.66172444462e-06
-2.86439466369e-06
1.30607785847e-05
-4.11647617657e-06
2.08188461905e-05
-4.8296514793e-06
3.04981293549e-05
-5.04771111205e-06
4.07904772814e-05
-4.76048561765e-06
5.14965752729e-05
-4.2481244484e-06
6.29501337882e-05
-3.53577582232e-06
7.5958098489e-05
-2.76581838843e-06
9.12505626117e-05
-1.89175839854e-06
0.000109919717967
-1.00883347472e-06
0.000130137105961
0.000154315917132
-1.50787152333e-08
1.72116024732e-07
1.04353827742e-06
2.57817985987e-07
1.3365586543e-06
3.28632031036e-07
1.54554062126e-06
3.93978556436e-07
1.72828212896e-06
4.76736195949e-07
1.99590386938e-06
5.60358029762e-07
2.33705371479e-06
6.50483343423e-07
2.84125121415e-06
6.96152533003e-07
3.89013846101e-06
3.10520177045e-07
6.07491647033e-06
-8.91541377852e-07
1.04181825734e-05
-2.84109904678e-06
1.78106228657e-05
-4.47863151546e-06
2.83370175407e-05
-4.89734353623e-06
3.95668006466e-05
-4.79984108406e-06
5.16021517064e-05
-4.23622178412e-06
6.39645123926e-05
-3.51844032046e-06
7.76281704029e-05
-2.76384568108e-06
9.35003483063e-05
-1.91834214347e-06
0.000112759227077
-1.06271811335e-06
0.000133747921409
0.000158634848754
-6.58866231177e-08
1.94775399837e-07
9.54644665946e-07
2.88421645654e-07
1.25233586749e-06
3.62972002055e-07
1.49327073269e-06
4.33157240631e-07
1.70725989621e-06
5.21973977398e-07
1.9257265942e-06
6.39163611805e-07
2.1591533218e-06
7.58903856224e-07
2.54357668713e-06
8.74218302965e-07
3.3583197217e-06
9.40732188714e-07
5.06733424547e-06
4.94350351498e-07
8.62023496289e-06
-9.42685254792e-07
1.50071824806e-05
-2.91682026507e-06
2.5387260698e-05
-4.30895446276e-06
3.81330010349e-05
-4.30682316665e-06
5.1116093714e-05
-3.97913460362e-06
6.49618256581e-05
-3.33719229489e-06
7.93837255909e-05
-2.66197058274e-06
9.59036767438e-05
-1.88532820483e-06
0.000115759395681
-1.07671326678e-06
0.000137515394487
0.000163088512654
-9.39614320937e-08
1.89799428068e-07
8.65526332182e-07
2.83641571587e-07
1.16779874801e-06
3.7056229273e-07
1.43098094106e-06
4.69446708446e-07
1.64017540309e-06
5.96595690243e-07
1.81080361069e-06
7.67257757121e-07
1.98046979828e-06
9.74471294001e-07
2.31221348348e-06
1.15521042355e-06
3.08482871306e-06
1.255037878e-06
4.59707683862e-06
1.16140889979e-06
7.60058750291e-06
4.52517000486e-07
1.34924283422e-05
-1.22318838655e-06
2.28948128722e-05
-2.95431936321e-06
3.64955777422e-05
-3.60907315623e-06
5.08501141895e-05
-3.40438769825e-06
6.58710367519e-05
-2.96354482781e-06
8.13375869103e-05
-2.45598919865e-06
9.85484812979e-05
-1.80283405521e-06
0.000118975670929
-1.06104989959e-06
0.00014145752842
0.000167677369182
-9.92114607051e-08
1.77468359899e-07
7.83161880532e-07
2.77823768107e-07
1.08079268428e-06
3.89088517912e-07
1.34430636656e-06
5.17543306176e-07
1.541105761e-06
6.67679786647e-07
1.69182650417e-06
8.43872609461e-07
1.8550531325e-06
1.04649716739e-06
2.20987354415e-06
1.2302072759e-06
3.05247454837e-06
1.29836276452e-06
4.61615818085e-06
1.32794527572e-06
7.35787292812e-06
1.24189619877e-06
1.28636244515e-05
4.06165105352e-07
2.22692037041e-05
-8.64711976545e-07
3.56726077963e-05
-1.8222464758e-06
5.12752638291e-05
-2.21979331921e-06
6.7445714691e-05
-2.28826772439e-06
8.38319428243e-05
-2.14213423499e-06
0.000101627384768
-1.69168943816e-06
0.00012248408679
-1.03466370637e-06
0.00014558616317
0.00017238716722
-9.19428144968e-08
1.66366661505e-07
7.04399494766e-07
2.75483970286e-07
9.90130693797e-07
3.99767518342e-07
1.24996220023e-06
5.35794065484e-07
1.44703853456e-06
6.72654390986e-07
1.62044350154e-06
8.21001434846e-07
1.8330785589e-06
1.02011171124e-06
2.25281817917e-06
1.2446558731e-06
3.22516616078e-06
1.38783746471e-06
5.00191968531e-06
1.33379048562e-06
8.22918025762e-06
1.20315243169e-06
1.37229131197e-05
1.07884897225e-06
2.32057229256e-05
7.4939224232e-07
3.67589535702e-05
-4.99988503648e-08
5.31489309613e-05
-8.71888162045e-07
6.99106090986e-05
-1.63531538122e-06
8.71314318653e-05
-1.90570829802e-06
0.000105182295705
-1.66218625492e-06
0.000126276202735
-1.05120391081e-06
0.000149848775327
0.000177143396998
-7.41690250901e-08
1.16445071729e-07
6.54676327884e-07
1.83261384903e-07
9.47545570208e-07
2.34142727491e-07
1.23860951544e-06
2.2694338841e-07
1.51966578751e-06
1.48302418418e-07
1.82418577999e-06
2.60811900388e-08
2.21062325099e-06
-1.10225372993e-07
2.83568075693e-06
4.45952892424e-08
3.92750141792e-06
8.49611900502e-07
5.92789473803e-06
1.70850257209e-06
9.88771187256e-06
1.89882488065e-06
1.67153367271e-05
2.44962413427e-06
2.70930044625e-05
2.60664678246e-06
4.10094163597e-05
1.49012407454e-06
5.74724741576e-05
-1.28578211233e-07
7.39148834181e-05
-1.39909854352e-06
9.10387653342e-05
-1.9387996999e-06
0.000109033577676
-1.80161710608e-06
0.000130224263938
-1.15610387418e-06
0.0001541383808
0.000181854501663
-8.3387430399e-08
-1.89086399027e-08
6.89074982612e-07
-8.33815041779e-08
1.04281300891e-06
-2.30894061296e-07
1.44153661978e-06
-5.04901485337e-07
1.89778266763e-06
-9.32430210389e-07
2.44864523727e-06
-1.5465455068e-06
3.20028234849e-06
-2.11208270972e-06
4.33359530296e-06
-2.43736828034e-06
6.077604959e-06
-2.09008354554e-06
8.97033498225e-06
-1.82314380349e-07
1.36131574644e-05
1.95421589229e-06
2.19560162858e-05
4.17501061673e-06
3.4678834935e-05
4.5741504508e-06
4.83592742959e-05
2.40062034848e-06
6.40301300691e-05
-2.01885958312e-07
7.90869721301e-05
-1.85524204526e-06
9.52167178151e-05
-2.54504771741e-06
0.000112977577102
-2.32736941796e-06
0.000134095062452
-1.45446475309e-06
0.000158224772168
0.000186290022358
-9.42678155537e-08
-1.5578473578e-07
8.06402304692e-07
-3.42121018404e-07
1.26382711145e-06
-6.61540323425e-07
1.82477743713e-06
-1.16244017653e-06
2.51676945395e-06
-1.87999772257e-06
3.3985558685e-06
-2.76375120173e-06
4.67879218231e-06
-3.76047665159e-06
6.54356940508e-06
-4.68185401778e-06
9.30221096698e-06
-4.90037685935e-06
1.34571117912e-05
-3.28038304485e-06
1.97086916024e-05
7.65577782076e-07
2.86854451413e-05
2.95199059263e-06
4.17000845315e-05
1.66254003846e-06
5.53840996606e-05
-3.61822134108e-07
6.85624280975e-05
-2.47615223161e-06
8.26860344749e-05
-3.90910079556e-06
9.85047476818e-05
-4.05653916303e-06
0.000116119556352
-3.20469578022e-06
0.000137256610997
-1.88109362516e-06
0.00016183922721
0.000190348469957
-1.73811276546e-07
-1.64351746536e-07
9.25057798421e-07
-3.43172703994e-07
1.47355047996e-06
-6.36252426989e-07
2.17118403826e-06
-1.0891110039e-06
3.06247919196e-06
-1.70174322933e-06
4.24302591475e-06
-2.49332232413e-06
5.96649765818e-06
-3.44627515494e-06
8.3886936762e-06
-4.55386913398e-06
1.18101962101e-05
-5.46583215928e-06
1.66163434308e-05
-5.11257508828e-06
2.31450143243e-05
-3.45469229823e-06
3.18006191174e-05
-2.76175215503e-06
4.24761547616e-05
-3.18490789047e-06
5.4819280735e-05
-4.39708823234e-06
6.7853190423e-05
-5.76691046156e-06
8.283303689e-05
-6.15133063123e-06
9.91390792809e-05
-5.70194664244e-06
0.000117806833268
-4.40933725023e-06
0.00013973037859
-2.52672663891e-06
0.000164814509976
0.000193725021609
-2.20262691454e-07
-8.0958165708e-08
9.88437801606e-07
-1.61705391741e-07
1.57812472306e-06
-2.74725939173e-07
2.32133803812e-06
-4.11232535875e-07
3.24988569807e-06
-5.58701008144e-07
4.50259940952e-06
-7.75419277485e-07
6.3272891851e-06
-1.0995309516e-06
8.68348824292e-06
-1.56149181573e-06
1.18059502469e-05
-2.06773190472e-06
1.59979724916e-05
-2.36892701662e-06
2.14210067495e-05
-2.57329320136e-06
2.8329900039e-05
-3.976308945e-06
3.67464513396e-05
-5.94975595211e-06
4.77702163418e-05
-8.32285042067e-06
6.11964942683e-05
-9.94672398903e-06
7.75137247247e-05
-1.04526751606e-05
9.61583543727e-05
-9.05176922863e-06
0.000116353738127
-6.31411244585e-06
0.000139978872517
-3.24124840822e-06
0.000166415656904
0.000196362956491
-3.37556310791e-07
3.77689658179e-08
9.75737349905e-07
8.33971960796e-08
1.55015185977e-06
1.74143751021e-07
2.25575873058e-06
3.40664771272e-07
3.10618610456e-06
6.79183396298e-07
4.14056351206e-06
9.78126963549e-07
5.72384442416e-06
1.08949879108e-06
7.68163152379e-06
1.02549782661e-06
1.00642447072e-05
9.03565187373e-07
1.30054741815e-05
8.21584048005e-07
1.66725612429e-05
6.56732081751e-07
2.13219167554e-05
-1.17306442965e-07
2.7336115323e-05
-1.95988914515e-06
3.59652601649e-05
-5.23721380883e-06
4.87594871382e-05
-9.16647424406e-06
6.6313247723e-05
-1.03716214287e-05
8.67841482207e-05
-9.38511721422e-06
0.000111111943695
-6.69602500948e-06
0.000138272156574
-3.30422924421e-06
0.000167236027323
0.000198612391798
-2.64317129306e-07
1.76696577598e-07
8.73843891939e-07
3.61808745387e-07
1.37240077811e-06
6.56429000377e-07
1.96479672537e-06
1.08568221629e-06
2.65615581829e-06
1.65956992241e-06
3.45134012657e-06
2.50769529651e-06
4.39828575722e-06
3.45918447467e-06
5.62650406431e-06
4.22127540888e-06
7.35492259662e-06
4.6648999347e-06
9.53619828852e-06
4.93857352287e-06
1.20144780059e-05
4.97918317305e-06
1.51634475405e-05
4.53766599251e-06
1.9450948298e-05
3.23328518088e-06
2.58345349149e-05
8.26276441683e-07
3.57632539242e-05
-3.24336793328e-06
5.07498008733e-05
-8.44863452658e-06
7.30755358632e-05
-9.63519971911e-06
0.000100901076455
-6.6628844337e-06
0.000132693403042
-3.1180252414e-06
0.000166799841475
0.000200499470581
-1.363259954e-07
2.58139138941e-07
7.31529613981e-07
4.84385894545e-07
1.15056435316e-06
8.01422920486e-07
1.64136674005e-06
1.21603357899e-06
2.20056053357e-06
1.72419122317e-06
2.81246422935e-06
2.35214265764e-06
3.42151690157e-06
3.08098496371e-06
4.2019339548e-06
3.96975935474e-06
5.18146308694e-06
5.13474129785e-06
6.41326427145e-06
6.45786135953e-06
8.00709195473e-06
7.92856818431e-06
1.01258069235e-05
9.44916052627e-06
1.31855960072e-05
1.05310507837e-05
1.8165160062e-05
1.01351505188e-05
7.49740207652e-06
3.58140487239e-06
2.15142552217e-07
-9.06374133051e-07
-1.71020236475e-07
7.41780155417e-07
4.10728988031e-07
7.9384702048e-07
1.33343510677e-06
2.03545440068e-06
2.87434828962e-06
3.74656894773e-06
4.66608401395e-06
5.59003069192e-06
6.49180220008e-06
7.4146173494e-06
8.29636401821e-06
8.95611603358e-06
-3.02319023244e-06
4.30633083662e-06
-2.26351782677e-06
5.97512389082e-07
8.46289272732e-06
-8.65434914006e-07
2.67289897869e-06
1.13841323941e-05
2.63867478047e-06
2.88646833974e-06
1.40442736522e-05
6.39029986061e-06
2.54189559454e-06
1.64038422624e-05
9.82938541358e-06
2.07050354107e-06
1.84875808245e-05
1.28270095084e-05
1.57903608752e-06
2.03053886714e-05
1.53613817008e-05
1.1746974345e-06
2.19081641041e-05
1.7518820839e-05
8.53109581459e-07
2.33504945365e-05
1.93809760841e-05
6.02583951287e-07
2.46734672399e-05
2.10176505065e-05
4.1125189678e-07
2.59102693879e-05
2.24865885161e-05
2.65722089958e-07
2.7087992178e-05
2.38319317136e-05
1.56320659166e-07
2.82295445009e-05
2.50878748889e-05
7.73771456804e-08
2.93502551303e-05
2.6282537351e-05
2.11983713842e-08
3.04598440217e-05
2.74352653891e-05
-1.24644920992e-08
3.15705101036e-05
2.85631531296e-05
-3.0840274317e-08
3.26859158527e-05
2.96737709248e-05
-3.26652807125e-08
3.38062207906e-05
3.07727893245e-05
-2.45412513613e-08
3.49254593411e-05
3.18565013495e-05
-2.58918388663e-09
3.60295424317e-05
3.29211584581e-05
5.2364695124e-10
3.70977461653e-05
3.3929678176e-05
1.89287851268e-08
3.81022495267e-05
3.4880692667e-05
-9.06854582968e-09
3.90144321654e-05
3.57178697689e-05
2.16173432428e-09
3.98270938997e-05
3.64777597163e-05
-3.6976018031e-08
4.05238121977e-05
3.71121716762e-05
2.64788578683e-08
4.11856516057e-05
3.77243551222e-05
1.06102699016e-07
4.18431704706e-05
3.83195343822e-05
5.31774559391e-07
)
;

boundaryField
{
    inletfuel
    {
        type            calculated;
        value           nonuniform List<scalar> 3(-8.81299648797e-08 -2.6436629778e-07 -4.40683206111e-07);
    }
    inletair
    {
        type            calculated;
        value           nonuniform List<scalar> 
20
(
-9.37071701804e-07
-1.49688546018e-06
-2.19423655957e-06
-3.05752894221e-06
-4.12069085935e-06
-5.42418934189e-06
-7.0162946005e-06
-8.95451347022e-06
-1.13073568127e-05
-1.41563800863e-05
-1.75986475589e-05
-2.17496303635e-05
-2.67466614872e-05
-3.27530082637e-05
-3.99626829257e-05
-4.86062110141e-05
-5.89573668664e-05
-7.13414605033e-05
-8.61440590109e-05
-0.000103824120408
)
;
    }
    outlet
    {
        type            calculated;
        value           nonuniform 0();
    }