/*--------------------------------*- C++ -*----------------------------------*\
  =========                 |
  \\      /  F ield         | OpenFOAM: The Open Source CFD Toolbox
   \\    /   O peration     | Website:  https://openfoam.org
    \\  /    A nd           | Version:  7
     \\/     M anipulation  |
\*---------------------------------------------------------------------------*/
FoamFile
{
    version     2.0;
    format      ascii;
    class       volScalarField;
    location    "0.08";
    object      Qdot;
}
// * * * * * * * * * * * * * * * * * * * * * * * * * * * * * * * * * * * * * //

dimensions      [1 -1 -3 0 0 0 0];

internalField   nonuniform List<scalar> 
814
(
10.6136493086
10.8518240034
7.68338405841
1886.46428577
2730.04486676
5212.67524265
97283.16721
217330.22009
1857043.90609
3345631.65302
15060413.6613
345365141.175
12668955.2888
55030785.9144
603587587.252
15352780.3502
49925305.7895
265160724.337
14891906.5832
36729025.0409
114540494.936
12255413.2564
23670158.6866
50096398.0528
8939763.50248
14001554.302
22367960.5996
5922326.83562
7845684.88735
10280388.1693
3633396.48852
4252265.84531
4910427.1117
2105121.02866
2270665.88083
2468316.61796
1174770.52686
1219520.32701
1325418.03639
648145.500474
672819.393578
763944.229934
362807.819801
386457.048314
463886.495464
210986.649751
231950.653172
290793.99746
131051.456464
148125.565282
191378.177237
90944.3509276
104671.083583
137870.366372
73192.5994238
84598.4506379
111760.086617
67335.142549
77271.8481478
100608.590627
71153.1785163
80654.261261
103118.3315
107409.228722
120129.503321
149556.57816
276325.012206
298419.041469
348260.779508
728172.276699
772025.900111
869034.414657
1632331.30163
1731374.90139
1965919.35361
2986091.18119
3223336.64182
3759751.72667
4171592.37887
4484391.12256
5222739.15647
4712983.79658
5035347.63968
5748645.60264
4817049.65202
5073999.15323
5675948.62223
4497138.80922
4703732.77629
5149300.31505
5047639.63112
5154834.60597
5425667.94325
11621164.0348
11686376.6227
11802235.4655
45488543.107
1462533090.45
500066747.532
176989102.36
67378709.4408
27457354.2908
11979553.2232
5635140.90824
2900542.46139
1648584.18222
1013295.58076
639226.986351
404050.119032
266616.005945
192835.190179
155679.738704
138092.707677
139041.924921
195503.006107
421610.327967
1012385.87138
2322042.36998
4598726.3109
6349928.92586
6826511.45006
6552026.68115
5807054.33251
5814395.18321
12004608.0417
18326.3306255
4884.99023874
2966.4084656
1661.87757384
828.490979092
375.202186098
152.960713936
42.2347988991
10.5672342719
2.44416069322
0.51702619073
0.0990873069154
0.0168915618681
0.00252024931228
0.000319450765086
3.36699315906e-05
2.84033786633e-06
1.85167141709e-07
9.09030584312e-09
6.17252131147e-10
2045156.22121
485994.598945
192613.709472
74726.4283634
26899.5554771
9196.0117259
2249.02577277
497.963537076
105.065974114
21.0740661123
3.96451566654
0.68933986042
0.108584829509
0.0152210391749
0.00183714177406
0.000186699087983
1.52678670585e-05
9.73602047883e-07
4.71435440621e-08
2.91835869477e-09
22918222.8668
18364354.8767
4352239.69806
891731.693289
228140.228549
52296.3371998
11069.12253
2237.03361483
432.486638405
81.2274139538
14.4837128449
2.39952825705
0.362987812297
0.0492702385064
0.00580346185369
0.000579142627014
4.67028260351e-05
2.96417905396e-06
1.42553560087e-07
7.96072107628e-09
188392228.076
139342703.442
21171897.2255
5558025.74683
1735547.97951
361566.308334
71370.0827505
11292.7192847
1776.64179482
300.237265229
51.1742252996
8.20419610767
1.2098990987
0.161476647378
0.0188778698438
0.00188224072987
0.000152514413442
9.83645861265e-06
4.87176140336e-07
3.78344336655e-08
1338846695.24
780351070.171
157865476.769
24961377.4945
6127780.60755
1882471.58801
447700.267046
70474.6444163
8462.83089825
1024.12195402
164.195346178
26.2407699433
3.87716834927
0.520563990524
0.0616102216649
0.00625255978204
0.000517807980005
3.45469256525e-05
1.83628257155e-06
2.05814348184e-07
555443769.731
498359568.016
408471723.013
78907637.4886
14391505.3892
4372274.82959
1183395.51724
199144.203869
25347.6844499
2851.01098749
427.891258284
72.3448724512
11.2185997864
1.56597136413
0.192210499286
0.0202367152799
0.00174044342601
0.000121575866577
7.04797500352e-06
1.01826690437e-06
185975578.713
190469462.987
256856614.952
142398884.388
21329119.5986
5407986.49935
1590751.62766
303379.891854
46409.4167287
6283.99312595
931.312003557
170.422895399
28.6267103262
4.26510443629
0.55441868012
0.061548493312
0.00557068484871
0.000410381742743
2.60318557648e-05
4.4174475472e-06
70269384.2384
82034502.3818
133540412.771
223691529.219
27460155.8206
5222984.17903
1553642.43607
342824.371987
66265.5218967
11575.403867
1890.46250199
348.451113811
64.599234146
10.4315905571
1.45535538643
0.172303363704
0.0165714254252
0.00129347913017
8.95863950819e-05
1.63358787229e-05
29169287.3231
40149787.2981
82885912.9514
243191085.657
42735641.7726
5944138.32148
1616714.93684
385514.765988
88268.1019839
19079.1281209
3576.44696041
650.00018864
130.98792026
23.0444450351
3.47318099715
0.44140444706
0.0453879176291
0.0037673364197
0.000283513687168
5.21614050493e-05
13379369.1128
22415391.9088
55715141.187
176793274.841
70538696.2771
8415618.2058
2111355.56406
502385.804252
118713.601732
28863.4886982
6208.8160253
1183.78090464
240.06243807
46.5170953691
7.59429667657
1.03823519772
0.114482117473
0.0101316869236
0.000824437867264
0.000147583381505
6845011.31011
13710737.3708
37145474.1115
117446244.103
112270782.278
13307118.2868
3054355.13283
743451.799725
165484.829296
41012.5489458
9914.2741137
2065.42703773
413.60628625
86.9240959046
15.3460635702
2.25530658799
0.266901850394
0.0252351883859
0.00221274586216
0.000379961690973
3933495.77489
9002669.25166
25060797.9451
76631367.6906
198882210.125
22752421.4026
4367239.10979
1101407.06765
232334.250837
55597.7759327
14608.8765448
3395.60183012
703.524268584
149.794408095
28.8498488139
4.55388624127
0.578006916627
0.0584632307577
0.00551602937104
0.000907285714784
2495814.47114
6203862.06797
17530224.4703
54024059.5145
184862403.885
34206821.2977
5676280.757
1430617.29587
304801.070036
71443.0456732
19988.1183748
5233.86692977
1158.71325296
244.664410332
50.8572234917
8.60266143671
1.16910367695
0.126613280813
0.0128675063366
0.00203976701972
1670101.76933
4337989.022
12483228.1518
40006543.9717
144494381.409
44542603.4661
6480299.2747
1540620.73744
349896.842147
85854.1696102
25647.0277782
7566.13567212
1838.4399476
394.467434763
83.9698934155
15.3224205837
2.22426771389
0.257835169133
0.0282708271736
0.00436076339453
1092678.06189
2830291.60736
8026512.87373
26054842.0818
100966989.191
58739410.3584
8295264.28115
1851464.3804
427070.761995
107799.285341
33045.1804295
10606.6229022
2850.36539626
632.121822414
133.07643182
25.9811712066
4.01158770956
0.49679250735
0.058762070987
0.00889447999483
683607.776073
1700729.49733
4610119.4663
14557240.7552
57865259.1987
92693906.2654
16944862.61
4494257.97025
1040223.07814
222523.360971
55263.3865338
16339.1575933
4581.32307212
1047.08986517
211.738943146
42.4883311009
6.93907043644
0.91245469706
0.116028345364
0.0173676638196
450370.270052
1087705.48052
2904750.99825
9254420.55026
36604406.0799
121470684.062
46303283.4158
15651037.0523
4369301.31019
910780.241784
167926.30312
35662.9541162
8709.00343884
1923.3326207
361.440404482
68.0168344396
11.6266198314
1.60759674069
0.218239091508
0.032514440755
328098.854056
788114.187336
2118072.44467
6702726.07863
22839400.3346
56743606.5642
124038324.61
51343221.9231
17640798.0298
4359934.77356
798341.631984
125277.905314
22204.6440992
4203.01543507
696.195290006
111.268154204
19.1034544676
2.7303043331
0.39145149765
0.0583558265757
264720.671885
628159.279494
1660539.36501
4803623.53869
11966782.1289
24414921.3967
53451242.7074
123696369.475
57256726.4253
16466063.1545
3475203.6912
546826.844892
74470.0517433
10862.967119
1519.94970549
196.394485944
30.3618014313
4.45391086801
0.667948880161
0.100186918397
231043.745457
531293.519474
1307877.14996
2989266.12281
5573747.30193
10471955.3865
21300379.9297
49246215.6294
133176984.558
44046514.227
10834647.7967
1965384.30299
259107.117327
29829.1493436
3439.23428779
362.270788006
46.6193694509
6.90503084704
1.07888452207
0.164130023284
227397.126645
491313.316512
1024712.62028
1853243.68362
3210064.80554
5634912.16344
10388355.1771
22193576.1584
60613008.146
76792879.1449
21381029.8411
4639474.47854
695917.286776
72968.0741742
6981.67347996
631.819233752
67.559835942
10.0625696981
1.64674285122
0.257057979951
302183.56692
571984.87358
1038880.17509
1877133.17442
3433148.82173
6163927.86576
10673149.2855
18536380.9299
39411640.4312
86265299.0761
26268645.8005
6606195.75874
1179189.96213
126023.643337
10915.6672801
917.862654611
88.7735076966
13.7084750093
2.39746165924
0.390152270806
582766.576097
985920.398248
1774421.48718
3355249.21521
6388498.22336
11757956.0434
19976119.5016
31000593.0742
50209464.4919
65713101.7549
22351804.3645
6157209.37991
1195606.49012
132558.083485
11374.5271783
996.102821607
105.224722042
17.8490583461
3.44959485611
0.593477092931
1343145.3111
2235605.22161
4069468.11824
7797619.49852
15090060.3704
28451599.1827
49421070.5416
81097201.2159
76911251.5538
34808049.273
13932647.2704
4024193.55823
754282.807689
82846.0913595
8112.81015589
882.837781539
124.513369212
24.593081787
5.30478597297
0.962761186937
3189728.26781
5718777.5133
11158914.0593
22389186.3328
44135388.2995
85119544.9489
112144262.33
48542590.9977
24811736.6987
13518100.4152
6064850.00469
1619817.74887
269921.944947
34335.8335357
4984.4054006
873.695240168
182.164011585
41.4068988682
9.54366143618
1.78217638431
6595511.30971
12309272.0467
24380709.4078
48881837.8043
97084244.7296
101924958.946
37035529.6835
14231189.013
6674965.5934
3742593.98132
1823371.92677
428114.094373
80042.869562
17560.8923727
4916.93741125
1508.0192957
396.834505196
92.0937246623
21.0036839495
3.94175058323
9011940.87708
16431309.304
31830357.3962
63640161.0851
128234131.804
44074383.9359
13575634.3212
4591842.06847
1944238.04464
1018085.83184
517344.417065
183828.858898
65978.9367613
27371.2462244
11213.2787939
4190.77967941
1227.91733146
257.317800053
53.4794040924
9.95662411151
9347642.35823
16134399.6973
29733926.9992
57974928.9228
82818920.8677
26884896.3651
8195054.6828
3093950.77158
1538866.3729
920631.77579
571824.853
341263.976845
177350.949805
88473.6985322
38757.1552739
14488.5074646
4391.08124154
883.563791163
150.731948151
27.2443554503
8633378.02417
14033921.7185
24377513.1404
44747214.4733
81873195.4169
32409740.9921
12968151.0157
6035683.41379
3396098.21567
2160977.1462
1433646.91902
944859.349164
563569.695376
302131.345506
139817.662252
53425.1984533
16003.4118502
3305.17816625
454.289632529
71.2948828973
7344200.12702
11128874.2884
17933359.6887
30075291.4575
52802612.5142
63579346.1292
32392205.2736
17598764.1264
10159024.8208
6154109.43555
3876059.95238
2485155.84221
1538950.67759
873457.424565
428404.96791
172800.073524
54448.6858582
11499.3029087
1428.39791094
186.374567688
6740583.1515
8897347.71341
12496509.7684
18280415.8404
27595549.4697
42473138.2166
60536399.446
47333045.8046
26350463.5517
14909379.0681
8704463.21198
5236501.29207
3184113.31882
1884956.57516
1016228.7412
453980.858744
154458.838068
33982.6355984
3975.43262258
421.534924335
12459913.7965
13531940.0318
15220875.044
17684530.9072
21173942.5036
26004322.5473
32052339.4181
39553488.8229
43209988.3816
24107846.1689
13485766.5232
7639282.83566
4403318.14256
2.95125933903e-08
7.0130851279e-08
2.1908826174e-07
1.76497888011e-07
9.70780624389e-07
4.49629581865e-07
3.50797492334e-06
1.18607932221e-06
1.03806071915e-05
2.90196884671e-06
2.64752062612e-05
6.5821047294e-06
6.07812289158e-05
1.38479217698e-05
0.000130222133953
2.77590806744e-05
0.000265710775843
5.38242765719e-05
0.000524469579463
0.000102298785364
0.00101097133641
0.000191951181657
0.0019118044502
0.000356595013716
0.00355235075996
0.00065659808222
0.00647498480555
0.00119542101195
0.0115293272451
0.00213904688481
0.0199366677103
0.00374028704867
0.033291856292
0.00636771774374
0.0538454093713
0.0106038655205
0.0855502360916
0.0175417683706
0.138083164995
0.0298432834768
0.238983442079
0.0548350628346
0.471847273452
0.114457047348
1.09610846435
0.273815775459
2.88683154582
0.722007734843
8.13995963231
1.9761522592
21.8320684086
5.17719725628
56.1715962282
12.7177465068
122.425665781
26.2873958694
)
;

boundaryField
{
    inletfuel
    {
        type            zeroGradient;
    }
    inletair
    {
        type            zeroGradient;
    }
    outlet
    {
        type            zeroGradient;
    }
    axis
    {
        type            empty;
    }
    leftside
    {
        type            zeroGradient;
    }
    burnerwall
    {
        type            zeroGradient;
    }
    front
    {
        type            wedge;
    }
    back
    {
        type            wedge;
    }
    procBoundary0to1
    {
        type            processor;
        value           nonuniform List<scalar> 
27
(
32757800.0268
32606271.0476
32626347.5466
32642102.9443
2536954.33485
1406117.05794
697201.547726
270301.593536
67037.31061
7967.69552185
713.170245769
32866637.8962
33620451.185
34859119.1812
36676547.6164
39299954.1039
43458595.5334
51373184.3758
42515413.4238
27244124.4717
16822002.7772
10189424.0392
6174081.47601
2536954.33485
3778734.94192
195.537443488
40.8614991045
)
;
    }
}


// ************************************************************************* //
