/*--------------------------------*- C++ -*----------------------------------*\
  =========                 |
  \\      /  F ield         | OpenFOAM: The Open Source CFD Toolbox
   \\    /   O peration     | Website:  https://openfoam.org
    \\  /    A nd           | Version:  7
     \\/     M anipulation  |
\*---------------------------------------------------------------------------*/
FoamFile
{
    version     2.0;
    format      ascii;
    class       volScalarField;
    location    "0.08";
    object      T;
}
// * * * * * * * * * * * * * * * * * * * * * * * * * * * * * * * * * * * * * //

dimensions      [0 0 0 1 0 0 0];

internalField   nonuniform List<scalar> 
814
(
293.75765106
293.759595279
293.768385288
293.609690457
293.612681697
293.618583908
293.544477235
293.562395944
293.628144628
294.067508879
295.509761209
316.43992171
295.726546204
300.744246492
346.48352932
298.472197601
307.699382966
367.203604917
302.483588272
316.177283441
385.127848539
307.848654859
326.365996675
402.009871064
315.186098611
338.529283109
418.378307492
325.261369092
352.975345638
434.49230039
338.883188789
370.041746728
450.955340514
356.800325586
390.042129539
468.428296159
379.32774432
412.921586429
486.790801039
405.887384302
437.804655145
504.601637202
435.066034435
463.460396627
520.888618894
465.306407819
489.096702811
536.359400716
496.100210531
515.212644138
553.143797074
529.56573432
544.850460986
575.660909105
572.146146824
585.086706284
611.939695254
634.974499077
647.328888608
673.695552281
730.590347392
743.657717463
771.995821111
860.556459182
874.095236252
903.234642628
1005.9813264
1017.46246325
1041.69091497
1147.03841586
1155.30483515
1172.74419804
1294.0042238
1301.04065944
1316.48901815
1443.69526812
1452.25188196
1470.9044754
1571.84605905
1581.56561799
1602.89817008
1670.09830793
1679.88874033
1701.26645087
1742.08968069
1751.0722224
1770.72966777
1788.82426983
1796.66349633
1813.73029112
1834.16793501
1840.20603182
1853.3536153
1967.76258898
1971.18286634
1979.073234
406.159033819
565.294504865
582.073687086
587.903538703
587.847067685
585.033731254
582.499586206
581.995193334
584.53451426
588.965174225
591.92189935
592.715779729
594.23909011
599.790317065
614.617152292
647.418145979
710.072471093
811.950467895
943.673992534
1074.12527404
1195.97108876
1337.85433138
1497.42353422
1632.94173692
1731.06205067
1797.90405633
1837.3535221
1871.60865
1990.20219143
296.04371876
296.021103455
295.998639126
295.978739623
295.965286657
295.957258051
295.95270159
295.949957316
295.948081303
295.946529573
295.945040188
295.943592426
295.942217108
295.940985411
295.939891567
295.938941269
295.93817721
295.937649125
295.937211218
295.937315172
309.142067162
300.950037053
298.474021162
297.465095915
297.000111246
296.803465927
296.73470905
296.715451189
296.71641637
296.722083117
296.728432418
296.733736902
296.738012606
296.741540839
296.744549119
296.74709526
296.749221391
296.751139751
296.752603698
296.762411074
403.778850867
362.189776026
335.873308789
308.264659372
300.984506476
298.162601389
297.190439285
296.880971766
296.800363308
296.788017058
296.792345817
296.799693412
296.806154356
296.811355635
296.81584501
296.818908474
296.822379494
296.824082222
296.827558948
296.829995453
633.777411994
695.852175755
574.424477295
413.684775661
343.696071295
310.98395017
300.899391947
297.661126559
296.863022426
296.695907824
296.667960598
296.669994054
296.676477145
296.682285769
296.687171119
296.690148318
296.693659722
296.694910387
296.698685157
296.79539867
1336.76475828
1622.43257284
1267.80021462
811.098248811
515.78111568
386.586118135
327.538363892
304.534947855
298.014083271
296.782620452
296.596952495
296.566700138
296.567122703
296.571937213
296.576468849
296.579580457
296.582424364
296.583990075
296.585788668
296.721327393
1406.78372902
2000.9595471
2005.65829798
1449.46775071
811.563488352
513.805382377
371.208416628
317.701980749
301.266192761
297.335277104
296.684879652
296.562850414
296.543078222
296.544089633
296.547804193
296.55107949
296.553426234
296.555486809
296.556768098
296.703942576
1316.36261898
1953.45102094
2240.55961463
1978.5685134
1086.25952578
619.403390131
409.832345574
332.666491669
306.498482198
298.692019235
296.964540581
296.640950628
296.57109463
296.561859596
296.563858577
296.567006925
296.569309348
296.571563714
296.574728127
296.731519638
1200.1958862
1811.50358141
2222.54056127
2227.47490363
1217.76528297
670.69729247
438.739532344
348.757936038
314.052743358
301.30968968
297.582912802
296.790330062
296.617273347
296.583219203
296.580729058
296.583183962
296.585556563
296.587728715
296.593252735
296.762711916
1094.69115574
1654.53592664
2113.50705601
2289.71731625
1356.76221675
736.977986513
478.918218808
371.251199891
325.224510574
305.836204185
298.856451918
297.06038152
296.687064547
296.599441352
296.585803119
296.586425119
296.588661321
296.590755722
296.598097584
296.782707059
1006.68550463
1502.46804214
1965.69276468
2276.05860454
1615.71569998
869.255536278
548.375864752
405.428974099
341.380180432
312.862997205
301.223957876
297.624663356
296.813567003
296.625524784
296.587121043
296.58329074
296.584970896
296.587143624
296.596295264
296.798385941
935.23049305
1364.84633986
1805.46182693
2216.59583798
1964.96425912
1066.19845188
648.731444674
453.180853877
363.363704321
322.801341071
305.160965442
298.737327278
297.05396306
296.683653686
296.595418515
296.581456502
296.581663823
296.583966081
296.595410159
296.817246618
878.716288555
1247.18191875
1653.25853581
2118.75952083
2236.54088134
1285.43071408
765.436286651
511.324492349
390.975008982
335.821428688
311.002107899
300.718526012
297.535789918
296.795537566
296.619033848
296.583904755
296.580572443
296.582803885
296.59701601
296.84108128
832.521087647
1145.3969073
1512.3882182
1998.05007345
2308.20544537
1469.35005126
875.075021111
572.92777223
423.344373222
352.022105158
318.924472121
303.916726552
298.430302684
296.996298071
296.668015504
296.592095296
296.581003401
296.582592839
296.600068122
296.869367034
791.465740157
1054.36462104
1381.41680925
1870.55659242
2307.83086315
1599.1659554
962.232186116
631.207226222
458.9289169
371.577558603
328.993655636
308.631683616
299.993901632
297.372637627
296.757012993
296.609778241
296.582901125
296.582596071
296.603977133
296.902149261
752.458475905
970.989580314
1257.30046282
1736.06528786
2300.35730869
1749.15322663
1063.61617859
697.17713446
500.092750648
395.797387904
341.841120424
315.223062367
302.588122185
298.063982268
296.912849726
296.644716927
296.587712576
296.582944659
296.608899062
296.940351798
719.061225411
900.157916362
1151.15549801
1608.15219222
2259.16159018
2018.95530601
1286.37418232
828.849750061
569.100204938
432.157874972
360.50171585
324.576637939
306.757657833
299.3401669
297.195237169
296.709946153
296.598474203
296.58421422
296.615242011
296.985415452
700.256324083
855.712955998
1087.81690062
1525.406924
2151.73162338
2246.93252267
1712.83688531
1137.88658582
726.764611554
503.862049228
393.416567241
339.515078308
313.533813226
301.671391883
297.740622204
296.823286597
296.620101764
296.587284861
296.623428249
297.039370475
700.60617269
846.361428074
1081.78127396
1516.27933428
2060.80307839
2270.1435793
2130.05766679
1681.18066479
1083.89120815
665.137140819
460.414249478
366.900928332
324.899208037
305.852239398
298.786090537
297.01862411
296.660217624
296.593545187
296.633994097
297.104874162
729.021242677
881.801465718
1140.92953158
1565.48431547
1972.82759139
2154.11745578
2206.0119245
2132.73140032
1654.80986464
996.189712257
595.281818258
418.49657416
344.435480892
313.003119441
300.70542374
297.370064342
296.725875651
296.60497043
296.64775299
297.185349829
797.1000739
970.296054478
1250.14099427
1600.83416287
1842.78196427
1966.11997351
2080.52396035
2200.80878994
2134.90054079
1476.80277719
832.443273716
506.56414336
375.653354305
323.996960915
303.840020538
297.953270518
296.824724645
296.62383885
296.665916238
297.285322046
908.649442216
1094.35366217
1340.96129616
1561.46062401
1691.2217713
1792.67122019
1932.11993942
2119.15829053
2265.01430138
1917.5620727
1132.83636318
630.644314709
417.522448063
337.910392228
307.943447653
298.784612813
296.960943874
296.652545166
296.690309256
297.411025635
1037.73783238
1195.34705462
1359.77195381
1485.37080926
1583.81841002
1704.30291922
1872.50079997
2080.36085203
2284.3392678
2169.30499343
1372.55135343
745.432127394
457.670003784
350.529455518
311.891011937
299.707196112
297.126470085
296.693308853
296.723802489
297.570792674
1144.75690312
1252.55759821
1359.99995102
1463.44511591
1586.85261377
1752.8908059
1950.3102525
2145.23877797
2309.36978387
2167.13865281
1452.68046837
789.043131061
472.348517376
355.482535255
313.95918992
300.412985819
297.318584887
296.750145271
296.771463141
297.776241078
1245.83068816
1330.26463219
1434.3158809
1569.5771125
1751.34463765
1963.59565832
2132.19155425
2195.46921523
2071.08179326
1841.09906496
1304.26638487
733.239814949
452.643033888
350.179254218
313.800030863
300.909349973
297.575109798
296.839248032
296.843100878
298.043913869
1385.52337663
1483.73410479
1623.92837718
1806.27004819
1996.46883444
2098.60651435
1975.23016939
1714.80821899
1474.53980627
1285.58560929
959.350527203
581.284178768
407.342225793
339.831461832
313.157656819
301.781842939
298.037972559
297.007139449
296.958453928
298.396417491
1555.17010785
1676.595069
1839.46672927
2006.91519312
2079.97308265
1905.12522831
1556.4692486
1245.84800765
1019.6286997
851.962931557
674.899526635
476.309266778
379.088256
336.65544012
315.674579359
304.509076321
299.155704161
297.373088769
297.157811048
298.866453878
1697.59746988
1829.19961937
1990.51695758
2116.2800167
2069.76075122
1705.88242631
1325.56883136
1046.86692341
853.136202626
708.183363578
580.9256709
465.009602439
392.232081732
352.982534439
327.614790435
311.615877864
302.252324763
298.245166327
297.525033965
299.507796646
1796.12137049
1926.49096483
2081.51272121
2193.48646213
2103.43403967
1695.37809527
1334.11666649
1085.65581527
910.780009883
774.593257003
658.179284395
558.932720482
470.980323167
409.327675664
361.892698314
329.396215119
310.253780462
300.632120245
298.251824057
300.394567305
1858.83393683
1979.47461747
2123.28964714
2236.03379253
2202.62482865
1871.93585843
1557.46710397
1326.65467049
1160.07462338
1023.52966846
903.026858254
792.647224634
668.330286312
551.599285148
448.988534161
373.881778371
329.019681603
306.985948256
299.820515239
301.65729756
1890.85397604
1994.00343867
2118.05625851
2227.64487979
2262.27081693
2138.3172378
1938.43132604
1756.6134748
1604.62039965
1467.99734261
1337.23736379
1203.78656685
1040.55317839
850.926313503
647.905871405
477.14738849
371.541841119
321.03385868
303.305999239
303.523062751
1913.07854775
1991.46438451
2087.7517563
2183.85765785
2254.49117138
2271.86032941
2248.74553093
2197.62062667
2101.72051652
1982.92791043
1848.67223057
1698.59369573
1515.92012431
1285.47515216
995.763047258
686.317234696
458.239160349
347.521527939
309.928463651
306.326740659
2015.6503736
2064.32664273
2125.48443118
2191.19343123
2252.41063346
2301.05787821
2336.49805171
2357.93830724
2343.2850413
2253.20373316
2124.21440014
1977.75629306
1812.55574608
302.135797805
302.284478341
300.065763264
300.807585212
298.919101604
299.73873028
298.360006861
299.250512551
298.112630923
299.043995759
298.016982228
298.9749115
298.008850975
298.995083304
298.057910111
299.076855143
298.151070771
299.210937131
298.282447589
299.39514376
298.450751317
299.632253725
298.658098205
299.929747927
298.908867475
300.299734072
299.211461768
300.759109373
299.579497213
301.334758202
300.033202886
302.06511427
300.600768292
303.002446957
301.322035526
304.216042703
302.246481367
305.784153596
303.427894328
307.797523078
304.917152954
310.336068387
306.745650892
313.449328803
308.921878829
317.148984533
311.420701942
321.391719495
314.208547034
326.109549288
317.307579093
331.24893132
320.779944114
336.833057069
324.91958238
343.066745863
)
;

boundaryField
{
    inletfuel
    {
        type            fixedValue;
        value           uniform 294;
    }
    inletair
    {
        type            fixedValue;
        value           uniform 294;
    }
    outlet
    {
        type            zeroGradient;
    }
    axis
    {
        type            empty;
    }
    leftside
    {
        type            fixedValue;
        value           uniform 294;
    }
    burnerwall
    {
        type            zeroGradient;
    }
    front
    {
        type            wedge;
    }
    back
    {
        type            wedge;
    }
    procBoundary0to1
    {
        type            processor;
        value           nonuniform List<scalar> 
27
(
2219.45789906
2219.89453644
2221.86073947
2225.0016128
1602.82458122
1305.55371231
917.64153052
565.775160335
380.31833647
318.535018883
310.264657292
2232.54385792
2249.08827809
2269.97796759
2291.96960479
2311.7014888
2323.94094988
2312.58809325
2261.54562325
2180.66161381
2069.220335
1948.33751787
1833.76594995
1602.82458122
1725.18269818
330.319266766
350.432432706
)
;
    }
}


// ************************************************************************* //
