/*--------------------------------*- C++ -*----------------------------------*\
  =========                 |
  \\      /  F ield         | OpenFOAM: The Open Source CFD Toolbox
   \\    /   O peration     | Website:  https://openfoam.org
    \\  /    A nd           | Version:  7
     \\/     M anipulation  |
\*---------------------------------------------------------------------------*/
FoamFile
{
    version     2.0;
    format      ascii;
    class       volScalarField;
    location    "0.09";
    object      alphat;
}
// * * * * * * * * * * * * * * * * * * * * * * * * * * * * * * * * * * * * * //

dimensions      [1 -1 -1 0 0 0 0];

internalField   nonuniform List<scalar> 
815
(
0.000196104835642
0.000196003839466
0.000198032588468
0.000198475876279
0.000199494990903
0.000201353236919
0.000218754604249
0.000218934210595
0.000220488435009
0.000267577756131
0.000268187680682
0.000268956601744
0.000293351601145
0.000292875718812
0.000293265675588
0.000246956111159
0.000247229016059
0.000247681513589
0.00021553809208
0.000214976487655
0.000215109597522
0.000244145839486
0.000243753448695
0.000243215538052
0.00028379387239
0.00028315772672
0.000282419946024
0.00029520478052
0.000295147238649
0.000294523110089
0.00028678870343
0.000286542947126
0.000286039044435
0.000264553269437
0.00026446497628
0.000264156998954
0.000237390932433
0.000237415634484
0.000237172711902
0.000215380457759
0.000215188554538
0.000214957641036
0.000205397583749
0.000205345088593
0.000205098692297
0.000210645973028
0.000210392519864
0.00021007953296
0.000228177053329
0.000227954882192
0.000227580996255
0.000253856968146
0.000253648404355
0.000253235475515
0.000282996739988
0.000282804174088
0.000282367729007
0.000311991623117
0.000311804728135
0.000311334183787
0.000338150617717
0.000338095658548
0.000337666570875
0.000361243463733
0.00036097197002
0.000360512835915
0.000379792700211
0.000379644853262
0.000379187417304
0.0003946296095
0.00039433080725
0.000393875299958
0.000404986464147
0.000404778262023
0.000404354335506
0.000410378849916
0.000410228244699
0.000409874511149
0.000406500515132
0.000406409737874
0.000406167368945
0.00037536023085
0.000375367182224
0.000375366526342
0.000275967368046
0.000276082717391
0.000276376358709
0.000150646998506
0.000150710994853
0.000150899779411
0.000123018098971
0.000123020845144
0.000123045624332
0.000200200297241
0.00020423746642
0.000222615343467
0.000270611255891
0.000293731357894
0.000248387534226
0.000215183952242
0.00024280523462
0.000281489876271
0.000293842519636
0.000285328205534
0.000263723450693
0.000236844181421
0.000214612329146
0.000204769333393
0.000209636950648
0.000227066172771
0.000252656738675
0.00028173505435
0.000310646930797
0.000336995261416
0.000359749166125
0.000378439566545
0.000393092951587
0.00040361764722
0.00040922642943
0.000405681091301
0.000375245156777
0.000276795410787
0.00015128393597
0.000123155201223
8.68113087296e-05
0.000127960750912
0.0001820571679
0.000229335756215
0.00027345523073
0.000285618769604
0.00020405915696
0.000205528528053
0.000213539476997
0.000217248638112
0.000212477697736
0.000200684954449
0.000172457314014
0.00013721453726
0.0001117339911
9.86911651123e-05
9.31132991142e-05
9.05049890342e-05
8.85652416782e-05
8.85135915295e-05
0.000101769246525
0.000123949311992
0.000140195316282
0.000153132056318
0.000179832664738
0.000220710203369
0.000199456308578
0.00021026053688
0.00022175726862
0.000233161038888
0.000241899467543
0.000240209397703
0.000215065647356
0.000178227995136
0.00014920830182
0.000132288876682
0.000123224646613
0.000117734392797
0.000113143445628
0.0001099006043
0.000113387551985
0.000118102948286
0.000117963074267
0.000115398030593
0.000123143904116
0.00016070271031
0.000190001164391
0.000228124149153
0.000240548855989
0.000255534978258
0.000271211404539
0.000273723818018
0.000253614586204
0.000221397742917
0.000194004226723
0.00017564549538
0.000163151709481
0.000153235757981
0.000143913239899
0.000135348288397
0.000129953929485
0.000126173296398
0.000121414331768
0.000112869397301
0.000104736478646
0.000123698325694
0.000177621202075
0.000274035971275
0.000282709109559
0.000294745982516
0.000306319619919
0.000305482562499
0.000287178763675
0.000259909760878
0.000235055206124
0.000215420969406
0.0001988299923
0.000183230227932
0.000167914250378
0.000153630506387
0.000142577540064
0.000135741001021
0.000131895076865
0.0001241531329
0.000106146034986
0.00010901598621
0.000170130108816
0.000295403225491
0.000299339042088
0.000303510601808
0.000304265256957
0.00029606262695
0.000278111224711
0.000256058242061
0.000235288119878
0.000216416953744
0.000198220704087
0.000180397874881
0.000163727502552
0.00014952225686
0.000139499868711
0.00013525830629
0.000136023017547
0.000132174030564
0.000109661901306
0.000105212222945
0.000168820536438
0.000249537506076
0.000250379371567
0.000249837759656
0.000246893705768
0.000240657200239
0.000231291440955
0.000219197409739
0.000204178118533
0.000186410046459
0.000167533472532
0.000150069707891
0.000136070231486
0.000126576839709
0.000122385386083
0.000124404247165
0.000130885209312
0.000129293616381
0.00010652421936
0.000106849167814
0.000171345586234
0.000215606292142
0.000216711678673
0.000217563212212
0.000217893446647
0.000216649356731
0.000211509223727
0.000199870438532
0.000181668594154
0.000160051016847
0.000139485818324
0.000123292105687
0.000112658872219
0.000107473518281
0.000107581706766
0.000112822789232
0.000120436550145
0.000118269062525
0.000101053779629
0.000113069026008
0.000171983134302
0.000241745011875
0.000241602200773
0.000240985800697
0.000239087204958
0.000233494830619
0.000221770502408
0.000202667102176
0.000178088779698
0.000152530428338
0.00013084195195
0.000115515531316
0.000106379306567
0.000102355205729
0.000102590440526
0.000106224832879
0.000110644097716
0.000107789748676
0.000100259299027
0.000122829608315
0.00016811410357
0.000279570621871
0.000276826062852
0.000272343259466
0.000265162810679
0.000253517229814
0.000236186107587
0.000213126901282
0.000186566448271
0.000160591230876
0.000139261680211
0.000124276275309
0.000114903779996
0.000109727887659
0.000107665511563
0.00010772048775
0.0001081451899
0.000105808648229
0.00010754311333
0.000131958771094
0.000161168551548
0.000291973724706
0.000288254004148
0.000282464292598
0.000273766902189
0.000261065267902
0.000243720762459
0.00022202749925
0.0001978714857
0.000174543060838
0.000155224514963
0.000141177802947
0.000131724883454
0.000125556086895
0.000121703918146
0.000119311902731
0.000117589474483
0.000116921084613
0.000123569472977
0.000139946679779
0.000154959318225
0.000283715250748
0.000280336433375
0.000275177583466
0.00026756273313
0.000256773377561
0.000242432530915
0.000224884659517
0.000205593986157
0.000186989448636
0.000171428724884
0.000159928854122
0.000152042707154
0.000146790604257
0.000143332843671
0.000141056182081
0.000139978907625
0.000141420530854
0.000147326017269
0.000151892511669
0.000153378675816
0.000262594239555
0.000260078559209
0.000256244971685
0.000250622845362
0.000242775979389
0.000232533974123
0.000220249448546
0.000207012306353
0.00019452389915
0.000184435969358
0.000177516896438
0.000173469110251
0.000171568723154
0.000171111017498
0.000171567853834
0.000173075903663
0.000176111095896
0.00017836465501
0.000172124946508
0.000157054812043
0.000236007441412
0.000234270776758
0.000231695916008
0.00022801375561
0.000223067711166
0.000216937358139
0.000210074847583
0.0002033682499
0.000197994272096
0.000194972206876
0.000194655629861
0.000196649405255
0.000200295152055
0.000204920336519
0.000209821091926
0.000214552216729
0.000218168744278
0.000215848139817
0.000199799751249
0.000164231060378
0.000213905415691
0.00021261348584
0.000210850720096
0.000208581503177
0.000205977425108
0.000203469603729
0.000201761227835
0.000201736026411
0.000204216349676
0.000209602074825
0.000217603555017
0.000227365296981
0.000237893894528
0.000248188773299
0.000257233301286
0.000263894096263
0.000265963021286
0.000258037215712
0.000232076653358
0.000175075068093
0.000204050681047
0.000202867085321
0.000201473664187
0.000200111802505
0.000199349203097
0.000200090163711
0.000203447789949
0.00021044448037
0.000221598943069
0.000236576036774
0.000254151670786
0.000272611413433
0.00029022569462
0.000305392404234
0.00031668146042
0.000322513707502
0.000320465361491
0.000305379633012
0.000268582052633
0.000193654690709
0.000208813949255
0.000207532783075
0.00020625027456
0.000205511805418
0.000206339370701
0.000210204305802
0.000218732093637
0.00023312225658
0.000253516464861
0.000278661631422
0.000306202315271
0.000333415230718
0.000357763339682
0.000377045957253
0.000389417051644
0.000393056078846
0.000385691870052
0.000362882059641
0.00031528718899
0.000228810607816
0.000226105072908
0.000224648629156
0.000223368308766
0.000223093256016
0.000225293372528
0.000232014666292
0.000245415139831
0.00026686570812
0.000296101458383
0.000330973470084
0.000368128543776
0.000404031526426
0.000435531691172
0.000459944259215
0.000475000355226
0.000478563681607
0.000468173127052
0.000439424863155
0.000382354632801
0.000287188163776
0.000251548917894
0.000249888712203
0.000248521277339
0.000248478304884
0.000251578692018
0.000260358547311
0.000277497084103
0.000304653045042
0.000341411232202
0.000385112199663
0.00043180078949
0.000477410809201
0.000518312476774
0.000551347898594
0.000573701963467
0.000582559152798
0.00057448299082
0.000543660833955
0.000478083971785
0.000368350084777
0.000280477664018
0.000278584506688
0.000276989223414
0.000276792696758
0.000279998252715
0.000289510832573
0.000308578946654
0.000339489047949
0.000382241728304
0.000434262917936
0.00049140835271
0.000549221666083
0.000603548708383
0.000650628525667
0.000686848940311
0.000708203681523
0.000709286656422
0.000680847031115
0.000605401122107
0.000466417285176
0.00030922717955
0.000307066288372
0.000305090522676
0.000304329311295
0.00030679295798
0.000315621797815
0.000334707075046
0.0003674036445
0.00041485763041
0.000475262221383
0.000544634570476
0.000618125166178
0.000690874306041
0.000758260600989
0.000815502317999
0.000856776601622
0.000873552686039
0.000850874083483
0.000761443553147
0.000573814486023
0.000335474661299
0.000333053369604
0.000330606959124
0.00032899461613
0.000330081969289
0.000337099039077
0.000354603611136
0.000387415242111
0.000438603710806
0.000507885095108
0.000591765262581
0.000684881472526
0.000781342719787
0.000875239804226
0.000960066319763
0.00102738042432
0.00106426450135
0.00104811469565
0.000938329414715
0.000683933106422
0.000358103163605
0.00035544959149
0.000352544213123
0.000349997843759
0.000349417086495
0.000353969777967
0.000368813896274
0.000400507894715
0.000454808345704
0.000533800851918
0.000634790227879
0.000751640681813
0.000876912049379
0.00100274899537
0.00112013738131
0.00121705334668
0.00127503372034
0.00126282925179
0.00112526088005
0.000790423920738
0.000376729622994
0.000373938654245
0.000370687775983
0.000367317856278
0.000365114416597
0.000367056964455
0.000378777314042
0.00040872251942
0.000466034150201
0.000556036147627
0.000677061139075
0.000821727950901
0.000980279735175
0.00114202111147
0.00129447003997
0.00142103829847
0.0014970615122
0.00148271279728
0.00130986714454
0.000888758432279
0.000391354428098
0.000388544763818
0.000385128673008
0.000381194880957
0.000377690140379
0.000377345131552
0.000386161029644
0.00041457634939
0.000475725346786
0.000578848610941
0.000723219666211
0.000899478953259
0.00109459362766
0.0012939320897
0.00148057124281
0.00163264102177
0.00171944088777
0.00169414958685
0.00147996790297
0.00097462912681
0.000401931702613
0.000399254956724
0.000395911394046
0.000391772827269
0.000387498548678
0.000385603436836
0.000392503788531
0.000420841110766
0.000488228863856
0.000607883701193
0.00077924534463
0.000989923455869
0.00122249187105
0.00145753060504
0.00167308736901
0.00184216716222
0.00192912887485
0.00188286358668
0.00162283384199
0.00104149929496
0.000407700921909
0.000405368277013
0.000402405820658
0.000398530134232
0.000394211338618
0.000391915206193
0.000398758346841
0.000430028360979
0.000507971361926
0.000648640332799
0.000850064540703
0.00109572261782
0.00136295603185
0.00162715491782
0.00186156029432
0.00203494731522
0.00210846707965
0.00203010963301
0.0017211491418
0.00107874998547
0.000404514853617
0.000402950850333
0.00040094336239
0.000398095704347
0.000394795899966
0.000393716572129
0.000403173848952
0.000441734102385
0.000535796284151
0.000701812777125
0.000934369634139
0.00121169873917
0.00150560655988
0.00178670819019
0.00202440244772
0.00218473352172
0.00222821817362
0.00210556512443
0.00174720820783
0.00106898464172
0.000374969643044
0.000375271106888
0.000375596592591
0.000375330111859
0.000374748945327
0.000376835043535
0.000391478234696
0.000441070343203
0.00055559823673
0.000749327310228
0.00101035356708
0.00131020151707
0.00161581756861
0.00189457787038
0.00211392133033
0.00223953060886
0.00223427410136
0.00205630768336
0.00165589255962
0.000987721217114
0.000277967795023
0.000281205342793
0.00028511454804
0.000288631267382
0.000291535414629
0.00029636912674
0.000313342743169
0.000368103611458
0.000497492829882
0.000715061535427
0.000996373318367
0.0013032627934
0.00159940342697
0.00185166685826
0.00202863811419
0.00209912751537
0.00203307993567
0.00180322516523
0.001392262627
0.000813850462507
0.000152406432265
0.000155015238849
0.000157999492627
0.000160462235956
0.000161911354935
0.000163543253934
0.000171762310388
0.000205738426114
0.000302551248612
0.000490370689372
0.000748661997778
0.00102927501349
0.0012893370111
0.00149519601175
0.00161969785416
0.00163934164681
0.00153772903327
0.00130852951796
0.000968599610823
0.000576806290133
0.000123482018242
0.000124157695144
0.000124709721008
0.000124709277626
0.000123896799821
0.000122813896176
0.000124378003554
0.000137424517948
0.000180345376321
0.000273364612282
0.000417223299479
0.000588439679542
0.00075523441464
0.000888286423477
0.000965391068678
0.000971239675862
0.000900297556178
0.000759060481147
0.000570270302257
0.000385073528879
0.000124215878927
4.02034801124e-05
0.000123638629183
4.06586793266e-05
0.00012427926541
4.1614573911e-05
0.000126267891142
4.2955325868e-05
0.000128641809999
4.42224299095e-05
0.000129499213004
4.52240402067e-05
0.000128298970767
4.5940818098e-05
0.000125604987706
4.67194183533e-05
0.000122242633526
4.80850790272e-05
0.000119599605581
5.14323586206e-05
0.000118521610566
5.96262313868e-05
0.000117752571991
7.88689510587e-05
0.000103896251757
0.000127078699506
7.47704676917e-05
5.90872156157e-05
6.63362330893e-05
6.93740029263e-05
6.66288878961e-05
7.62849608102e-05
7.16397426131e-05
8.2158030646e-05
7.98508981528e-05
8.7777918467e-05
8.99901673283e-05
9.3281083632e-05
0.000101185094517
9.85529955742e-05
0.000112679198355
0.000103496797228
0.000124353895095
0.000108046111887
0.000135772859236
0.000112214279476
0.000146451778654
0.000116021862044
0.000155914007149
0.000119499522932
0.000162843001923
0.000122602923148
0.000166404352509
0.000125311878585
0.000164911666118
0.000127550280071
0.000158251019139
0.000129330149787
0.000148805865759
0.000130675303484
0.000144493335958
0.000131613177416
0.000158232710703
0.000132326307953
)
;

boundaryField
{
    inletfuel
    {
        type            calculated;
        value           nonuniform 0();
    }
    inletair
    {
        type            calculated;
        value           nonuniform 0();
    }
    outlet
    {
        type            calculated;
        value           nonuniform List<scalar> 
26
(
0.000123076712714
0.000123077378331
0.000123103146271
0.000123212845189
0.00012354033494
0.000124216255731
0.000124768602786
0.000124768080551
0.000123955239746
0.000122871750947
0.000124436586936
0.000137489174855
0.000180430230486
0.000273493176328
0.000417419741182
0.000588716690946
0.000755590482891
0.000888704804284
0.000965846278866
0.000971696856377
0.000900721487866
0.000759416999124
0.000570537934252
0.000385250971366
0.000158296953789
0.000132387748814
)
;
    }
    axis
    {
        type            empty;
    }
    leftside
    {
        type            compressible::alphatWallFunction;
        Prt             0.85;
        value           nonuniform List<scalar> 
32
(
0
0
0
0
0
0
0
0
0
0
0
0
0
2.28238407126e-06
5.60003308554e-06
7.58400728769e-06
9.07931099254e-06
1.04378233377e-05
1.1781003793e-05
1.31154398756e-05
1.44218414884e-05
1.56772454386e-05
1.6873466307e-05
1.80040894373e-05
1.90644203803e-05
2.00314734339e-05
2.08857886427e-05
2.15946506012e-05
2.21499011201e-05
2.25595060691e-05
2.28573638388e-05
2.31294421339e-05
)
;
    }
    burnerwall
    {
        type            compressible::alphatWallFunction;
        Prt             0.85;
        value           nonuniform 0();
    }
    front
    {
        type            wedge;
    }
    back
    {
        type            wedge;
    }
    procBoundary1to0
    {
        type            processor;
        value           nonuniform List<scalar> 
27
(
0.000188027476623
0.000189490671693
0.000191546435818
0.000194525763504
7.32631892192e-05
0.0001086650723
0.00019596189953
0.00030154713551
0.000370114184267
0.000335136780338
0.000205538386244
0.000200229594355
0.000207657124707
0.000208293632694
0.000196446725438
0.000173723960793
0.000144946599066
0.000112885213945
8.94676765094e-05
7.77749405063e-05
7.38053902279e-05
7.30753230356e-05
7.33563826931e-05
7.49777968139e-05
7.49777968139e-05
0.000125437821835
4.02912843464e-05
)
;
    }
}


// ************************************************************************* //
