/*--------------------------------*- C++ -*----------------------------------*\
  =========                 |
  \\      /  F ield         | OpenFOAM: The Open Source CFD Toolbox
   \\    /   O peration     | Website:  https://openfoam.org
    \\  /    A nd           | Version:  7
     \\/     M anipulation  |
\*---------------------------------------------------------------------------*/
FoamFile
{
    version     2.0;
    format      ascii;
    class       volScalarField;
    location    "0.09";
    object      dQ;
}
// * * * * * * * * * * * * * * * * * * * * * * * * * * * * * * * * * * * * * //

dimensions      [1 2 -3 0 0 0 0];

internalField   nonuniform List<scalar> 
815
(
0.00114112804491
0.00361987410499
0.00683527071273
0.00134363748553
0.00424266212075
0.00784787837495
0.00161289949799
0.00501237905958
0.00904946960813
0.00283222567125
0.00867111652816
0.0150876874712
0.00784497094124
0.0231592775585
0.0372570092319
0.00310641708807
0.00924993572054
0.0150024312631
0.000900420356601
0.00269294098887
0.00440756952295
0.000223019126693
0.000668012487102
0.00109943317086
6.77577680201e-05
0.000202230342702
0.000333636711124
2.61293019855e-05
7.81805122529e-05
0.000129258929436
1.16747015018e-05
3.49289377198e-05
5.78318333567e-05
5.50112267932e-06
1.64858282829e-05
2.73409963349e-05
2.6384504924e-06
7.91195303851e-06
1.31326872074e-05
1.29753237119e-06
3.88870710252e-06
6.45799178851e-06
6.87852492392e-07
2.06184033625e-06
3.42325351775e-06
4.20921971277e-07
1.2595104973e-06
2.08887196963e-06
3.03859972123e-07
9.09157591763e-07
1.5062698205e-06
2.50560946811e-07
7.49371451742e-07
1.24051733461e-06
2.21872752417e-07
6.63500029119e-07
1.09806425113e-06
2.01227481201e-07
6.01776815469e-07
9.95980953043e-07
1.81633306644e-07
5.43403250872e-07
8.99761323144e-07
1.6093850596e-07
4.81367055736e-07
7.97421811714e-07
1.38523338226e-07
4.14583564557e-07
6.87180052122e-07
1.1552825264e-07
3.45711015824e-07
5.73321504299e-07
9.28935374376e-08
2.78112152267e-07
4.61485537784e-07
7.21158752099e-08
2.15949182414e-07
3.58492729314e-07
5.43673303674e-08
1.62825681623e-07
2.70398669445e-07
4.12207533036e-08
1.23459785894e-07
2.05062949763e-07
3.55760549872e-08
1.06565928688e-07
1.77013112126e-07
3.71611123745e-08
1.11380302688e-07
1.85246483228e-07
2.97554683472e-08
8.92661376445e-08
1.48735901513e-07
0.00959254423626
0.0107970882659
0.0120793961833
0.0192689862207
0.0424515679952
0.017282307733
0.00512757922417
0.00129176397112
0.000393282815882
0.000153028014988
6.8593705072e-05
3.25137519298e-05
1.56371797534e-05
7.69516956051e-06
4.07966651594e-06
2.48647310852e-06
1.79100234738e-06
1.47353889954e-06
1.30392287413e-06
1.18294065796e-06
1.06929644273e-06
9.48243956429e-07
8.17912418808e-07
6.82894561448e-07
5.50198922808e-07
4.27715109111e-07
3.22808923421e-07
2.44899287777e-07
2.11384034816e-07
2.21360951313e-07
1.78088076345e-07
0.0251537244888
0.00636393877548
0.00178815532599
0.000657220204768
0.000285819874234
0.000108584532
3.52293009864e-05
0.0479099612108
0.126155320978
0.318476176286
0.776941352692
0.617514957608
0.355982815641
0.188580426554
0.10486590625
0.0678789795536
0.0498837257699
0.0401636322594
0.0339730994402
0.027800850806
0.011409283936
0.00429772791283
0.00208742720084
0.00121730314053
0.000667648299283
0.00026851815735
8.06957159252e-05
0.0522387808301
0.133251427356
0.334356253376
0.53999830746
0.351752058917
0.19631004084
0.101959617057
0.0576718900138
0.0383023387288
0.028389658273
0.0225239457841
0.0185693572506
0.0151306838813
0.00874737625053
0.00522784103033
0.00357515378224
0.00247512561165
0.0014963698915
0.000625679741525
0.000164811462078
0.0560985720324
0.13678580771
0.335915606104
0.326406664191
0.217036224885
0.127900007253
0.0744029262221
0.0481634714115
0.034935397523
0.0270051230273
0.0215928105582
0.0176058791965
0.0143627430022
0.0106326501191
0.00790840591951
0.00605636754917
0.00445168607777
0.00280806052324
0.0012400400539
0.000291137770543
0.0823409817042
0.176947280202
0.287426662102
0.234445915018
0.171201449783
0.116162457533
0.0789957346467
0.0567634824633
0.0429900811822
0.0334946156966
0.0264634987902
0.0210826625964
0.0168320081057
0.013212907972
0.0104222960899
0.00823809841038
0.00621381719271
0.0040353411505
0.00185340733892
0.000409740454771
0.140363121567
0.172635294915
0.174245772641
0.154306984383
0.123866778742
0.0938256825405
0.0703627725636
0.0537971181727
0.042054219345
0.03333041832
0.0266317930932
0.021387058633
0.0172167369446
0.0138365001011
0.0111585154789
0.00898808304809
0.00692225318079
0.00456002522053
0.00212672586609
0.000456223889496
0.0584010161953
0.0747067973597
0.0796129109371
0.0746456115489
0.0638641034233
0.0518344042992
0.0415003055345
0.0334818924885
0.0272707904429
0.022344510898
0.0184227035904
0.0153162948297
0.0128588726058
0.0108978695814
0.00932464045887
0.00795163533503
0.00635663991727
0.00420818813737
0.00191884560045
0.000407008875134
0.0177425221327
0.0235074548201
0.0262611494594
0.0260428608441
0.0238793828897
0.0209469688707
0.0181258515111
0.0156657198224
0.0135273923508
0.0116754915582
0.0101161119708
0.00885738022647
0.0078749612129
0.00712201159237
0.0065401001844
0.00597586121294
0.00500517164312
0.00332870698474
0.00145485644388
0.000313238303437
0.00457032398327
0.00631215004247
0.00751058034179
0.00804624550047
0.00808887986758
0.00778539989463
0.00729606250812
0.00671148769588
0.00610729635495
0.00554354125937
0.00506710531169
0.00470769573366
0.00446554380507
0.00432286511
0.0042404021997
0.00410199472543
0.00355847197721
0.00233338251863
0.00097235093594
0.000217664417185
0.00140875770975
0.00202290690276
0.00255251339729
0.00293491061937
0.00316646799894
0.00324617556433
0.00320457917485
0.00308046813012
0.00292194147001
0.00277091780399
0.00265896332127
0.0026021327875
0.00259926639809
0.00263856084907
0.00269084487713
0.00267370967645
0.00233781560785
0.00150102311186
0.000622610130693
0.00014471948606
0.00055313929237
0.000817625308896
0.00107177231911
0.00128859094769
0.00145279858677
0.00155299938395
0.0015948420197
0.00159444449626
0.0015733903595
0.00155228928482
0.00154735599698
0.00156644072121
0.00160820744837
0.00166337022112
0.00171146379111
0.00169641340205
0.00146623564375
0.000947026721388
0.000408030897836
9.96660342317e-05
0.000249377266057
0.000375271286595
0.000503905895599
0.000624186581509
0.000727278194862
0.000806492786096
0.000861849121824
0.000897826120305
0.00092190315277
0.000942074953247
0.00096561167257
0.000996435541005
0.00103313857901
0.00106980513664
0.0010935648621
0.00106870494969
0.000916737036674
0.000612979783885
0.000279536751248
7.69273853413e-05
0.000118797306489
0.000181063584014
0.000247534818609
0.000313984860583
0.000376463367696
0.000431772073695
0.000478933937458
0.000518505755242
0.000552136709072
0.000581895364565
0.000609861731435
0.000636894200574
0.000661627135151
0.000681223381793
0.000689525869954
0.000667095249968
0.000575832823607
0.000401634460777
0.000197072535169
6.64443344204e-05
5.73367270321e-05
8.82752958843e-05
0.000122493389479
0.000158527139788
0.000194846555605
0.000230072479593
0.000263403305495
0.000294388143363
0.000322834936246
0.000348722771404
0.000372169642269
0.000392826417927
0.000409317402567
0.000420026033683
0.000422313736745
0.000407658811522
0.000357205362108
0.000260144757818
0.00014006220614
5.92223573437e-05
2.82806900957e-05
4.3855158995e-05
6.15264627804e-05
8.08200033955e-05
0.000101192038404
0.000122080931651
0.000142999610308
0.000163437402147
0.000182889448527
0.000200929241344
0.00021728066628
0.000231475364014
0.000242570849158
0.000249644434311
0.000251238815706
0.000243471248505
0.000217380670776
0.000165748981395
9.94686020997e-05
5.10668356177e-05
1.49928843713e-05
2.33124726806e-05
3.28635110837e-05
4.34746047119e-05
5.49435002138e-05
6.70312831621e-05
7.94600456991e-05
9.18677881318e-05
0.000103875844746
0.000115178457263
0.00012557251033
0.000134737113494
0.000142110457868
0.000147096340393
0.000148776709278
0.000145108985469
0.000131793275959
0.000105093713809
7.00204175447e-05
4.09623688721e-05
9.11788189931e-06
1.41456454658e-05
1.98944617344e-05
2.62657777641e-05
3.31526265805e-05
4.04303433765e-05
4.79327134127e-05
5.54405178847e-05
6.27406259441e-05
6.96774906296e-05
7.61240508636e-05
8.18560871573e-05
8.65096110736e-05
8.96659641889e-05
9.07518481249e-05
8.86938929028e-05
8.15109529096e-05
6.75690785294e-05
4.88940609087e-05
3.0200497797e-05
6.55212386555e-06
1.01173495098e-05
1.4137334781e-05
1.85163777202e-05
2.31586384513e-05
2.79673536776e-05
3.28287487438e-05
3.76143459027e-05
4.22173692521e-05
4.65581449872e-05
5.05367345821e-05
5.39799178064e-05
5.66366588004e-05
5.82266459164e-05
5.84167648252e-05
5.66906199615e-05
5.22295363578e-05
4.44041256841e-05
3.37497942562e-05
2.08225263272e-05
5.3813357216e-06
8.27853468898e-06
1.15019073801e-05
1.49429859446e-05
1.84908788401e-05
2.20421132498e-05
2.54984811024e-05
2.87758841282e-05
3.1819598036e-05
3.45821791083e-05
3.69817140799e-05
3.88883054973e-05
4.01339002432e-05
4.05484791833e-05
3.99626044343e-05
3.8159931844e-05
3.48390921846e-05
2.97618894656e-05
2.29107744335e-05
1.37713523881e-05
4.75965607396e-06
7.31391831166e-06
1.01379564942e-05
1.31129305361e-05
1.61084297953e-05
1.90004962668e-05
2.16827050392e-05
2.40832925446e-05
2.61699582296e-05
2.79162663695e-05
2.92664647255e-05
3.01333850377e-05
3.04136121901e-05
3.00184642039e-05
2.88813178389e-05
2.69354350615e-05
2.40902672894e-05
2.02584435369e-05
1.5340028973e-05
8.92620518214e-06
4.32047917397e-06
6.64708431712e-06
9.22285267147e-06
1.19270504435e-05
1.46150955468e-05
1.71396374515e-05
1.93719761794e-05
2.12318620863e-05
2.26954434426e-05
2.37582242475e-05
2.43969493082e-05
2.45628082168e-05
2.42002950611e-05
2.32766421893e-05
2.17874744322e-05
1.97411809305e-05
1.71377125755e-05
1.39697157408e-05
1.02112577072e-05
5.74839349792e-06
3.91031972176e-06
6.0326973658e-06
8.39874926691e-06
1.08954343114e-05
1.33740249653e-05
1.56684964465e-05
1.76224044297e-05
1.91333179401e-05
2.01777325147e-05
2.07758164526e-05
2.09374895013e-05
2.06430180236e-05
1.98685286048e-05
1.86183565415e-05
1.69287247485e-05
1.48524880089e-05
1.24396117627e-05
9.73909053955e-06
6.80622680577e-06
3.71063289615e-06
3.47327457849e-06
5.37818524392e-06
7.52414453534e-06
9.81374599836e-06
1.21054006986e-05
1.42245298839e-05
1.59892586104e-05
1.72671533495e-05
1.8028867353e-05
1.83211551619e-05
1.81830569955e-05
1.76094492234e-05
1.6592240274e-05
1.51616997131e-05
1.3386306624e-05
1.13523824326e-05
9.14445954209e-06
6.84917898594e-06
4.56377198753e-06
2.41498789208e-06
3.00152781197e-06
4.66717335063e-06
6.56684856382e-06
8.62365940056e-06
1.07128805116e-05
1.26639915917e-05
1.42783137666e-05
1.5392213234e-05
1.59665583184e-05
1.60765094499e-05
1.57809911493e-05
1.5069545126e-05
1.39365807489e-05
1.24352266488e-05
1.06649782051e-05
8.7395900006e-06
6.76632214644e-06
4.84729642365e-06
3.08571449354e-06
1.59023349502e-06
2.51084574577e-06
3.92126145618e-06
5.55104260311e-06
7.34498281484e-06
9.20153976284e-06
1.09659252831e-05
1.24353961212e-05
1.34210732749e-05
1.38748457931e-05
1.39013614577e-05
1.35631215124e-05
1.28208711774e-05
1.16659601314e-05
1.01789832751e-05
8.48936713049e-06
6.7300747869e-06
5.01738068075e-06
3.44844058281e-06
2.10657880297e-06
1.05984085154e-06
2.02704187643e-06
3.1795067005e-06
4.52870779726e-06
6.03911484776e-06
7.63449365749e-06
9.18349221254e-06
1.04928940727e-05
1.13616938509e-05
1.17416944292e-05
1.17644541664e-05
1.14680992415e-05
1.07673639246e-05
9.65902946525e-06
8.25564579276e-06
6.70959379847e-06
5.16022569533e-06
3.71746675207e-06
2.46141832708e-06
1.44845650664e-06
7.1093819278e-07
1.57863080061e-06
2.48631118704e-06
3.56198228806e-06
4.78587992721e-06
6.10487794551e-06
7.41423990597e-06
8.54138792277e-06
9.29219482631e-06
9.6346708763e-06
9.71089540406e-06
9.49874765139e-06
8.87408862465e-06
7.85839908504e-06
6.5924727023e-06
5.23616300228e-06
3.92060281409e-06
2.74028373906e-06
1.75534897925e-06
9.97870310162e-07
4.75933393924e-07
1.19331945355e-06
1.88579514236e-06
2.71481035033e-06
3.67153057256e-06
4.72162309205e-06
5.78577828025e-06
6.71851876716e-06
7.35112734936e-06
7.68060441597e-06
7.8250884022e-06
7.68714917232e-06
7.14200802861e-06
6.24727248987e-06
5.15485444156e-06
4.01419764774e-06
2.93798856347e-06
2.00114574946e-06
1.24452135081e-06
6.83557889117e-07
3.1344710655e-07
9.06109626916e-07
1.43344313614e-06
2.06761124838e-06
2.8063757046e-06
3.62971624786e-06
4.4802450527e-06
5.23921725144e-06
5.76550673265e-06
6.07089191357e-06
6.22516231059e-06
6.10046364715e-06
5.61470957945e-06
4.84933826521e-06
3.9429770295e-06
3.01984022017e-06
2.16829945224e-06
1.44400693242e-06
8.7339124274e-07
4.62131653792e-07
1.99735423995e-07
7.81337827337e-07
1.23070242025e-06
1.76736413374e-06
2.39411934907e-06
3.10379569473e-06
3.85852088999e-06
4.55135386751e-06
5.00955641132e-06
5.18041161315e-06
5.15162550675e-06
4.90023690569e-06
4.40468581984e-06
3.73357305307e-06
2.985720698e-06
2.24912963155e-06
1.5854035699e-06
1.03282491984e-06
6.06827461306e-07
3.07135950277e-07
1.20996101099e-07
8.18073396068e-07
1.28659984835e-06
1.84812653238e-06
2.51511032029e-06
3.29908872341e-06
4.18692106796e-06
5.07079627806e-06
5.63941926637e-06
5.57198779908e-06
5.04918718487e-06
4.39934410799e-06
3.71372726472e-06
3.01531811594e-06
2.33576443869e-06
1.7132934646e-06
1.17663414787e-06
7.44657621491e-07
4.21381381547e-07
2.00926704748e-07
6.88112442631e-08
6.61081550007e-07
1.0502114584e-06
1.53047255254e-06
2.12131998521e-06
2.84666247683e-06
3.71912134274e-06
4.69131060996e-06
5.52540396496e-06
5.75643926282e-06
5.22866516582e-06
4.35339588055e-06
3.4619811258e-06
2.6575042014e-06
1.96004148938e-06
1.37516829366e-06
9.04191652874e-07
5.45173728157e-07
2.90392177752e-07
1.26423003381e-07
3.60657651143e-08
3.7502327574e-06
1.5802563546e-06
8.81378059551e-06
3.75683510535e-06
1.75379871789e-05
7.49640725895e-06
2.90326358757e-05
1.22758843314e-05
3.81093408837e-05
1.54169852787e-05
4.10895374803e-05
1.53274830692e-05
3.64480836981e-05
1.2610738363e-05
2.77912245138e-05
9.21191806383e-06
1.87633081176e-05
6.39701902443e-06
1.20618978358e-05
4.67056412243e-06
8.34382150684e-06
3.90562580375e-06
6.77358259427e-06
3.54728616832e-06
6.33053316717e-06
2.6080517493e-06
6.32990598102e-06
4.9135392303e-06
4.66216022875e-06
2.06354585229e-06
3.01067276814e-06
8.34466459658e-07
1.91591019958e-06
3.88610654059e-07
1.27083226114e-06
2.22863236258e-07
8.88904364208e-07
1.50917042298e-07
6.45282988344e-07
1.11189693361e-07
4.68668492675e-07
8.30849939765e-08
3.37984824587e-07
6.18894945428e-08
2.42278265098e-07
4.56786243398e-08
1.7238473749e-07
3.33593434054e-08
1.2198497101e-07
2.39715537943e-08
8.47136748573e-08
1.67960335986e-08
5.7340964782e-08
1.12746864252e-08
3.67319888874e-08
7.07163700104e-09
2.16189955637e-08
4.00269290002e-09
1.10904968979e-08
1.97064166314e-09
4.78383610946e-09
8.43114805992e-10
1.88185409898e-09
3.5111482921e-10
)
;

boundaryField
{
    inletfuel
    {
        type            zeroGradient;
    }
    inletair
    {
        type            zeroGradient;
    }
    outlet
    {
        type            zeroGradient;
    }
    axis
    {
        type            empty;
    }
    leftside
    {
        type            zeroGradient;
    }
    burnerwall
    {
        type            zeroGradient;
    }
    front
    {
        type            wedge;
    }
    back
    {
        type            wedge;
    }
    procBoundary1to0
    {
        type            processor;
        value           nonuniform List<scalar> 
27
(
0.000817757737117
0.00263567325896
0.00504981962898
0.00722485948969
0.065351095183
0.0145497774527
0.00274099135136
0.000539855398054
0.000139409377267
4.45821562581e-05
1.46533293628e-05
0.0369225078191
0.0994472304455
0.253399847546
0.61582604525
1.24806318872
0.78295728946
0.462815596481
0.27479071174
0.179468360188
0.131380685411
0.106424874549
0.0904632209182
0.0725207497875
0.0725207497875
1.47476722359e-06
6.07877669367e-07
)
;
    }
}


// ************************************************************************* //
