/*--------------------------------*- C++ -*----------------------------------*\
  =========                 |
  \\      /  F ield         | OpenFOAM: The Open Source CFD Toolbox
   \\    /   O peration     | Website:  https://openfoam.org
    \\  /    A nd           | Version:  7
     \\/     M anipulation  |
\*---------------------------------------------------------------------------*/
FoamFile
{
    version     2.0;
    format      ascii;
    class       volScalarField;
    location    "0.09";
    object      ed::R_H2O;
}
// * * * * * * * * * * * * * * * * * * * * * * * * * * * * * * * * * * * * * //

dimensions      [1 -3 -1 0 0 0 0];

internalField   nonuniform List<scalar> 
815
(
0.730831550102
0.772728879148
0.875353826846
0.826547368187
0.869932654437
0.965418838253
0.953387811401
0.98758597789
1.06975727453
1.60928515377
1.64230781249
1.71452831204
4.28917317623
4.22070718131
4.07400120039
1.63756117482
1.62536102247
1.58170383709
0.458265398279
0.456847082965
0.448638432414
0.109530408437
0.109359635498
0.107994150009
0.032081835855
0.0319175555889
0.0315949891681
0.0119219100377
0.0118904640085
0.0117956037529
0.0051331344856
0.00511920898457
0.00508558114009
0.00233130639121
0.00232882478324
0.00231735421966
0.00107791052571
0.00107744329022
0.00107303422628
0.000511006079077
0.000510491908792
0.000508660706489
0.000261072515124
0.0002608535697
0.00025985252978
0.000153907514136
0.000153509887049
0.000152753924679
0.000106995117045
0.000106710182265
0.000106075603858
8.49386331533e-05
8.4677062648e-05
8.41042925452e-05
7.23941863922e-05
7.21635449666e-05
7.16559290405e-05
6.31873509238e-05
6.29877219969e-05
6.25489129549e-05
5.48829141586e-05
5.47320858134e-05
5.43746232995e-05
4.67919734467e-05
4.66515431608e-05
4.63689865043e-05
3.87510448975e-05
3.86590350407e-05
3.84467761681e-05
3.10944610674e-05
3.1016067551e-05
3.086190852e-05
2.40549176231e-05
2.40058568781e-05
2.39004939114e-05
1.79665003331e-05
1.79334281317e-05
1.78625800888e-05
1.3030972368e-05
1.30089154104e-05
1.29620984465e-05
9.50500548945e-06
9.48946082395e-06
9.4570619472e-06
7.89188563155e-06
7.87990788264e-06
7.85347108124e-06
7.93019672704e-06
7.9228891047e-06
7.90640434844e-06
6.10818448843e-06
6.10818490838e-06
6.10654352686e-06
1.02485006289
1.10814560306
1.19138630032
1.82700977243
3.8733091561
1.52034640196
0.435500103754
0.105876134417
0.0310767126028
0.0116523513138
0.00503310980256
0.00229941865835
0.00106607394184
0.000505725214129
0.00025839053973
0.000151714750526
0.000105237932243
8.33568083635e-05
7.09972301912e-05
6.1986612561e-05
5.39180858772e-05
4.60074259307e-05
3.81825945112e-05
3.06724369233e-05
2.37760286444e-05
1.77823843954e-05
1.29118525325e-05
9.42387337482e-06
7.82531642749e-06
7.88322971021e-06
6.10083206766e-06
0.0221812758029
0.00461917305599
0.00106917867237
0.00032430787484
0.000116629547094
3.67062838883e-05
9.88125646754e-06
1.37512137978
2.26570867479
3.90097381281
6.83197087374
4.03605762537
1.7725648489
0.72839241253
0.318453933314
0.163764377895
0.0964231106784
0.0626381858609
0.0430015720918
0.0287109770465
0.00966757854467
0.00299441348418
0.00119821166893
0.000576968895453
0.000261835157018
8.72744451815e-05
2.17654910175e-05
1.44054614799
2.29973104745
3.93651334375
4.56581914494
2.21072874355
0.93962425603
0.378340104161
0.168148468347
0.088674041408
0.0526370955754
0.0336857779521
0.0225377366776
0.0149821028641
0.00709913252812
0.00348802188583
0.00196643528381
0.00112538998706
0.000563618184683
0.000195478256952
4.27453895352e-05
1.48675811334
2.26914312976
3.80201927093
2.6535750568
1.31114476883
0.588073229102
0.26500434766
0.134684331093
0.0775192958355
0.047961083764
0.0309161657587
0.0204471569149
0.0136018706874
0.00824763769001
0.00504310430693
0.00318582607571
0.00193839851502
0.0010149018343
0.000372294035443
7.26028427931e-05
2.09802315353
2.82243003398
3.1284471858
1.83265782582
0.994082104309
0.513073138768
0.270116826387
0.152303239493
0.0914823271658
0.0570216386584
0.0363024291322
0.023446797973
0.0152559272748
0.00980358755424
0.00635524182887
0.00414434555793
0.00258997056796
0.00139896227831
0.000534702309604
9.82440959644e-05
3.44181705477
2.65043120776
1.82563854267
1.16101106355
0.692146477265
0.398715260229
0.231427596089
0.138811699438
0.0860420738879
0.0545422354289
0.0351059278838
0.0228461992308
0.0149797903756
0.00984880189254
0.00652375331748
0.0043337805288
0.00276626083222
0.00151790309815
0.000589783760478
0.000105177271128
1.38074703116
1.10594808334
0.804355119771
0.541585520728
0.344107671157
0.21238714868
0.131602992349
0.083290701591
0.0537894897228
0.0352475870154
0.0234065135831
0.015765504007
0.0107765235254
0.00746792975765
0.00524537884131
0.00368716642134
0.00244280380671
0.00134753105017
0.000511763513041
9.02172710995e-05
0.40499297881
0.335990402194
0.256164854435
0.182417767557
0.124203183439
0.0828435075447
0.0554758754478
0.0376101469599
0.0257493612752
0.0177733282534
0.0124024370042
0.0087970051264
0.00636730889485
0.00470806667571
0.00354859752573
0.00267239773674
0.00185446334068
0.00102651493093
0.000373203702502
6.6750067754e-05
0.100675739858
0.0870642699367
0.0706963184835
0.0543813445559
0.0405907281954
0.029702970663
0.0215397998134
0.0155418140106
0.0112129491864
0.00813948027317
0.00599208653242
0.00451015515817
0.0034833010076
0.00275743539691
0.00222061354881
0.00177061561816
0.00127176377437
0.000692842213649
0.00023984788267
4.45819685479e-05
0.0299179255828
0.0268995490294
0.023161968719
0.0191206235112
0.0153153686399
0.0119362572221
0.00911732883159
0.00687404553619
0.00516926877843
0.003920164827
0.00302974010673
0.00240225338791
0.00195406150577
0.00162243064149
0.00135868556214
0.0011127824933
0.000804980402003
0.000428747070433
0.000147600453856
2.8481642953e-05
0.0113197234243
0.0104763544725
0.00937065100966
0.00808807603765
0.00676919765628
0.00550043748876
0.00437008928816
0.00342629591838
0.00268015084437
0.00211432220792
0.00169733337879
0.00139210188851
0.00116385681735
0.00098463106169
0.000831933957189
0.00067958174247
0.000485634431373
0.000259942568064
9.29088727024e-05
1.88414557841e-05
0.00491764788187
0.00463315128849
0.00424480973768
0.00377434113194
0.0032641756277
0.002751068655
0.002274068072
0.00185748494079
0.00151161467115
0.00123490703151
0.00101918183642
0.000851932759858
0.000719189359072
0.000609031465548
0.000511116784036
0.000411507119779
0.000291691810492
0.00016154035847
6.11033920658e-05
1.39658358456e-05
0.00225784403853
0.00215438465869
0.00200941447225
0.00182941167054
0.00162783887625
0.00141872693391
0.00121704727378
0.00103288709213
0.000871501443059
0.000734098156171
0.000619343738378
0.000523793466475
0.000442906124049
0.000372822265048
0.000309702897768
0.000246738388541
0.000175908001924
0.000101578977198
4.13437610128e-05
1.15832261967e-05
0.00105048147924
0.0010124570626
0.000958424827989
0.00089017330901
0.000811885055494
0.000728375903624
0.000644795756177
0.000564808141272
0.00049066672536
0.000423515428779
0.000363753673518
0.000310838725821
0.000263549510932
0.000221022430342
0.000182305525634
0.000144849114607
0.00010477798273
6.31552270939e-05
2.8206718044e-05
9.9156834355e-06
0.000499466142611
0.000484843806951
0.000464008828229
0.000437396546297
0.000406341729404
0.000372417886894
0.000337261777362
0.000302060804734
0.000267719500571
0.00023498087867
0.000204453396935
0.000176295570464
0.000150288049862
0.000126366235494
0.000104290796175
8.31549910622e-05
6.12660727707e-05
3.86516050643e-05
1.92411325946e-05
8.21503495111e-06
0.000255184008805
0.000248377259485
0.000238839095509
0.000226724388649
0.000212588655713
0.000197017537031
0.000180544953028
0.000163555147245
0.000146457775798
0.000129721063325
0.000113777199023
9.8796435692e-05
8.47518728102e-05
7.1656656995e-05
5.94202141462e-05
4.76712197532e-05
3.57183002915e-05
2.35608750717e-05
1.30201179581e-05
6.33417921247e-06
0.000149504237665
0.000145188890187
0.000139284838976
0.000131953973848
0.000123565308902
0.000114464413703
0.000104901364929
9.50636359593e-05
8.51930354658e-05
7.55715575355e-05
6.64165557986e-05
5.77913431691e-05
4.96711930584e-05
4.20486755331e-05
3.48875451463e-05
2.80419937692e-05
2.12567693162e-05
1.45737798302e-05
8.74518041009e-06
4.49079946758e-06
0.000103460326799
0.000100002165693
9.53169581792e-05
8.95810767189e-05
8.31216610187e-05
7.62480528985e-05
6.91842401849e-05
6.210581867e-05
5.519827796e-05
4.86215130578e-05
4.24538381445e-05
3.66933877417e-05
3.13090088054e-05
2.62883839602e-05
2.16198516257e-05
1.72545646553e-05
1.31111863543e-05
9.2180013156e-06
5.80858226977e-06
2.97823750458e-06
8.18062297171e-05
7.87776520706e-05
7.46589801227e-05
6.95999981922e-05
6.38956115635e-05
5.78551271658e-05
5.17339782188e-05
4.57417761375e-05
4.00527131339e-05
3.47685600816e-05
2.99087818529e-05
2.54494461738e-05
2.13594198055e-05
1.76248592133e-05
1.42389740322e-05
1.11816368947e-05
8.41937500977e-06
5.94723255189e-06
3.79471588915e-06
1.89484288923e-06
6.96440109114e-05
6.69908457412e-05
6.33407654298e-05
5.87891874189e-05
5.35793149856e-05
4.80051152999e-05
4.23458942902e-05
3.6850070805e-05
3.17088678799e-05
2.70169180543e-05
2.27840718575e-05
1.89829285337e-05
1.55814984218e-05
1.25605659459e-05
9.90638849443e-06
7.59787866463e-06
5.6041307082e-06
3.89645790147e-06
2.44503532132e-06
1.18151359384e-06
6.08397990895e-05
5.85934205887e-05
5.54570295781e-05
5.14631322513e-05
4.6786239433e-05
4.16776368105e-05
3.64129533809e-05
3.12679298308e-05
2.64672837697e-05
2.21304631215e-05
1.82810220806e-05
1.48937235487e-05
1.19337592863e-05
9.37475132783e-06
7.19321284079e-06
5.359821169e-06
3.83712311639e-06
2.5857850654e-06
1.56603140054e-06
7.31925218802e-07
5.29873121048e-05
5.11726490903e-05
4.85983269315e-05
4.5240881002e-05
4.12012586987e-05
3.66664467799e-05
3.18782352965e-05
2.71177899489e-05
2.26464959463e-05
1.86250382098e-05
1.50992802687e-05
1.20467025132e-05
9.42959107136e-06
7.21686284347e-06
5.37897420835e-06
3.88077728776e-06
2.68023472425e-06
1.73456153526e-06
1.00421243984e-06
4.54442252969e-07
4.52868848537e-05
4.38975900431e-05
4.18937400466e-05
3.92116351001e-05
3.58864455105e-05
3.20325606027e-05
2.78341517584e-05
2.35511438404e-05
1.94728426249e-05
1.58062045431e-05
1.26193151732e-05
9.88956078162e-06
7.57816021859e-06
5.65557922343e-06
4.0930045598e-06
2.85422889824e-06
1.89571057353e-06
1.17357579811e-06
6.47716614244e-07
2.84459925963e-07
3.76555096307e-05
3.66535690531e-05
3.51813848613e-05
3.3154609671e-05
3.05590082616e-05
2.74420159645e-05
2.39181427552e-05
2.02022891648e-05
1.65953107608e-05
1.33469416182e-05
1.05394321062e-05
8.14404581925e-06
6.12510910544e-06
4.46340362248e-06
3.1376370955e-06
2.11409715369e-06
1.3494650381e-06
7.98954679836e-07
4.21226466992e-07
1.80141990125e-07
3.03070778968e-05
2.96299051125e-05
2.8614009575e-05
2.71706019669e-05
2.52556795147e-05
2.28647469701e-05
2.00445184091e-05
1.69504082106e-05
1.38771560213e-05
1.11057099469e-05
8.71640806902e-06
6.66719657307e-06
4.93342846754e-06
3.51533654724e-06
2.40293212879e-06
1.56619114182e-06
9.62584937835e-07
5.46708906365e-07
2.76569718947e-07
1.15457492305e-07
2.35403754857e-05
2.31150433963e-05
2.24602507438e-05
2.14944005074e-05
2.01618955569e-05
1.84243239387e-05
1.62743550009e-05
1.38075515851e-05
1.13002562839e-05
9.04368080898e-06
7.09164242076e-06
5.3876493922e-06
3.93012896335e-06
2.74305040433e-06
1.82706067329e-06
1.1551814024e-06
6.8600698252e-07
3.75318067717e-07
1.82883816482e-07
7.44774279304e-08
1.7637973787e-05
1.73904756115e-05
1.69964506323e-05
1.63887898326e-05
1.55120632022e-05
1.43120324842e-05
1.27466928453e-05
1.0865765571e-05
8.92208666976e-06
7.18293407537e-06
5.651721027e-06
4.27224064228e-06
3.07628578411e-06
2.10728337278e-06
1.37160994835e-06
8.44230816351e-07
4.8637184576e-07
2.57414853768e-07
1.21162165718e-07
4.79442393711e-08
1.28272620125e-05
1.2690036958e-05
1.24630150276e-05
1.20963865882e-05
1.15429026569e-05
1.07457404948e-05
9.64697688541e-06
8.27087190339e-06
6.84355752629e-06
5.56907472541e-06
4.40065535403e-06
3.30803400117e-06
2.35274999099e-06
1.58509454808e-06
1.01146141096e-06
6.08497774758e-07
3.41601022641e-07
1.75512372481e-07
7.98130423492e-08
3.03625976402e-08
9.37040316241e-06
9.28009069036e-06
9.13188222859e-06
8.89544939347e-06
8.53722959623e-06
8.00579944573e-06
7.23802327434e-06
6.2413060846e-06
5.20449296053e-06
4.26260064147e-06
3.3599171028e-06
2.50189265635e-06
1.75684681633e-06
1.16627507699e-06
7.31885164378e-07
4.31922956723e-07
2.3705953775e-07
1.1844917456e-07
5.1886513741e-08
1.86038372637e-08
7.77330281627e-06
7.66508649959e-06
7.5095512318e-06
7.30078998281e-06
7.02337459798e-06
6.63344645715e-06
6.04945176522e-06
5.21749689224e-06
4.27278555765e-06
3.39372613689e-06
2.59640683465e-06
1.88809476788e-06
1.30112401478e-06
8.49458658974e-07
5.24279205266e-07
3.03730461043e-07
1.63060319476e-07
7.91395429285e-08
3.3158720064e-08
1.08363825929e-08
7.82949579553e-06
7.70877153734e-06
7.55442356376e-06
7.37849558932e-06
7.18189942693e-06
6.92487805593e-06
6.484200329e-06
5.65073610386e-06
4.4214061235e-06
3.19995818246e-06
2.24240933621e-06
1.53132810173e-06
1.01077221248e-06
6.39181479319e-07
3.84111569161e-07
2.16791534959e-07
1.13058888071e-07
5.28449551285e-08
2.08583275123e-08
5.92573349491e-09
6.086234395e-06
6.05302968406e-06
6.01800775906e-06
5.98657741448e-06
5.96139265207e-06
5.9173780139e-06
5.77099757623e-06
5.3261565236e-06
4.39421297954e-06
3.18772496197e-06
2.13455098589e-06
1.37314188228e-06
8.5685283935e-07
5.1588350554e-07
2.96518313378e-07
1.60217559168e-07
7.9599460032e-08
3.50202263407e-08
1.26198747151e-08
2.98654630431e-09
4.61161174028e-06
1.90352994238e-06
1.04221292899e-05
4.35144087859e-06
1.99417895327e-05
8.34900292462e-06
3.17428329365e-05
1.31458864702e-05
4.00628368039e-05
1.58731800661e-05
4.15295191948e-05
1.51712862967e-05
3.54131145783e-05
1.19985228731e-05
2.59534458798e-05
8.42396708427e-06
1.68390665269e-05
5.62170846193e-06
1.0400963959e-05
3.94404347037e-06
6.91232777181e-06
3.16903150373e-06
5.39099828825e-06
2.765738992e-06
4.84094086895e-06
1.95422261707e-06
4.65190589739e-06
3.53936828519e-06
3.29381597104e-06
1.42940239026e-06
2.04539567375e-06
5.55971152988e-07
1.25190691774e-06
2.49060898351e-07
7.9873162683e-07
1.37398024398e-07
5.37379940036e-07
8.94975228466e-08
3.7520733592e-07
6.34219806828e-08
2.62094985031e-07
4.55800428408e-08
1.81777661247e-07
3.26531788748e-08
1.25311643725e-07
2.31773302879e-08
8.57428389439e-08
1.62779650268e-08
5.83471126723e-08
1.12487861505e-08
3.89651339187e-08
7.579504799e-09
2.53626591015e-08
4.8928785755e-09
1.56236590417e-08
2.95127555412e-09
8.84275411124e-09
1.60649133175e-09
4.3624232409e-09
7.60634550186e-10
1.8096392169e-09
3.12966089296e-10
6.84616860941e-10
1.25341102971e-10
)
;

boundaryField
{
    inletfuel
    {
        type            calculated;
        value           nonuniform 0();
    }
    inletair
    {
        type            calculated;
        value           nonuniform 0();
    }
    outlet
    {
        type            calculated;
        value           uniform 0;
    }
    axis
    {
        type            empty;
    }
    leftside
    {
        type            calculated;
        value           uniform 0;
    }
    burnerwall
    {
        type            calculated;
        value           nonuniform 0();
    }
    front
    {
        type            wedge;
    }
    back
    {
        type            wedge;
    }
    procBoundary1to0
    {
        type            processor;
        value           uniform 0;
    }
}


// ************************************************************************* //
