/*--------------------------------*- C++ -*----------------------------------*\
  =========                 |
  \\      /  F ield         | OpenFOAM: The Open Source CFD Toolbox
   \\    /   O peration     | Website:  https://openfoam.org
    \\  /    A nd           | Version:  7
     \\/     M anipulation  |
\*---------------------------------------------------------------------------*/
FoamFile
{
    version     2.0;
    format      ascii;
    class       volScalarField;
    location    "0.09";
    object      ed::R_H2;
}
// * * * * * * * * * * * * * * * * * * * * * * * * * * * * * * * * * * * * * //

dimensions      [1 -3 -1 0 0 0 0];

internalField   nonuniform List<scalar> 
815
(
-0.0817849824658
-0.0864735763297
-0.0979580005405
-0.0924962284467
-0.0973513347633
-0.10803688312
-0.106690530024
-0.11051753564
-0.119713058266
-0.180089868952
-0.183785327315
-0.191867288595
-0.479987423863
-0.472325616989
-0.455908227679
-0.183254146528
-0.181888867147
-0.177003333482
-0.0512829906668
-0.0511242716117
-0.0502056682191
-0.0122571918689
-0.0122380812246
-0.0120852741835
-0.00359017393612
-0.0035717898657
-0.00353569250638
-0.00133414218811
-0.00133062316523
-0.00132000766246
-0.000574432389846
-0.000572874032304
-0.000569110849569
-0.000260888917974
-0.000260611209295
-0.000259327575822
-0.000120625462096
-0.000120573175291
-0.000120079771282
-5.71850287681e-05
-5.71274896434e-05
-5.69225657478e-05
-2.92157762877e-05
-2.91912748171e-05
-2.90792516945e-05
-1.72232894751e-05
-1.71787923207e-05
-1.70941950299e-05
-1.19734756529e-05
-1.19415895281e-05
-1.18705759218e-05
-9.50520625737e-06
-9.47593475261e-06
-9.41183791279e-06
-8.10139800872e-06
-8.07558767672e-06
-8.01878202895e-06
-7.07109098758e-06
-7.04875116346e-06
-6.99964547037e-06
-6.14176847114e-06
-6.12488976145e-06
-6.08488729381e-06
-5.23633760385e-06
-5.22062250716e-06
-5.18900251047e-06
-4.33650343506e-06
-4.32620691116e-06
-4.30245371089e-06
-3.47968003411e-06
-3.47090727058e-06
-3.45365583467e-06
-2.6919076164e-06
-2.68641738794e-06
-2.67462656093e-06
-2.01057263402e-06
-2.00687163149e-06
-1.99894325738e-06
-1.45825374736e-06
-1.45578542495e-06
-1.45054629075e-06
-1.0636742587e-06
-1.06193470573e-06
-1.05830905278e-06
-8.83155260482e-07
-8.81814869546e-07
-8.78856413062e-07
-8.87442530609e-07
-8.86624758354e-07
-8.84780002881e-07
-6.83547065277e-07
-6.83547112273e-07
-6.83363430604e-07
-0.114687638228
-0.124008971292
-0.133324167065
-0.204454723092
-0.433449433556
-0.170137022422
-0.0487354005781
-0.0118482539453
-0.00347769386113
-0.00130397674778
-0.000563238952797
-0.000257320465474
-0.000119300868481
-5.65940643426e-05
-2.89156451418e-05
-1.69779044293e-05
-1.17768348152e-05
-9.32818938846e-06
-7.94506918249e-06
-6.93672026161e-06
-6.03379767531e-06
-5.1485414423e-06
-4.27289000066e-06
-3.43245268435e-06
-2.6606980576e-06
-1.98996881809e-06
-1.44492343389e-06
-1.05459502756e-06
-8.75705717305e-07
-8.82186604469e-07
-6.82724279775e-07
-0.00248223445246
-0.000516916637408
-0.00011964830878
-3.6292239783e-05
-1.30516333932e-05
-4.10768087909e-06
-1.10577928228e-06
-0.15388536239
-0.253548090822
-0.436545295336
-0.764543646258
-0.451662085574
-0.198361968728
-0.081512026511
-0.0356371442211
-0.0183263390487
-0.0107903967953
-0.007009635711
-0.00481216611275
-0.00321295208725
-0.00108186728071
-0.000335095076649
-0.000134087971873
-6.456671307e-05
-2.93011210622e-05
-9.76659938653e-06
-2.43570532905e-06
-0.161206835471
-0.257355423922
-0.440522408686
-0.510945974703
-0.247395465484
-0.105150295295
-0.04233881088
-0.0188169483563
-0.00992322364943
-0.0058904462158
-0.00376966588098
-0.00252212482991
-0.00167659841706
-0.000794440838321
-0.000390333187905
-0.000220057378728
-0.000125938734235
-6.30726784377e-05
-2.1875336136e-05
-4.78349755582e-06
-0.166378266255
-0.25393242951
-0.425471614306
-0.296952956481
-0.146725947879
-0.0658093629428
-0.0296557748823
-0.0150720855652
-0.00867493234218
-0.00536716893808
-0.00345972758584
-0.00228817484621
-0.00152214112201
-0.000922966316612
-0.000564357405284
-0.000356515437388
-0.000216919875094
-0.000113574364313
-4.16622149887e-05
-8.12474806811e-06
-0.234782949368
-0.315848967943
-0.350094352385
-0.205086778383
-0.111244496025
-0.0574163466971
-0.0302278957534
-0.0170437603161
-0.0102374897774
-0.00638110617584
-0.00406248680647
-0.00262385492367
-0.00170724121653
-0.00109708760673
-0.000711194448936
-0.000463780236007
-0.000289835184945
-0.000156553319826
-5.98367968778e-05
-1.09941773377e-05
-0.385162555497
-0.296601138556
-0.204301273228
-0.129924973083
-0.0774558617495
-0.0446189283455
-0.0258983097892
-0.0155339659365
-0.00962868872213
-0.00610364422222
-0.0039285902422
-0.00255664387127
-0.00167633963399
-0.00110214739632
-0.000730052021709
-0.000484979287647
-0.000309563255209
-0.000169863600237
-6.60007829473e-05
-1.1770046427e-05
-0.154514910744
-0.123763054006
-0.0900127660848
-0.0606070746539
-0.0385079706096
-0.0237675552298
-0.0147272629654
-0.00932079159449
-0.00601940689781
-0.00394444285502
-0.00261934682858
-0.00176426629172
-0.00120596570775
-0.00083571173713
-0.000586993290729
-0.000412618805354
-0.000273366231208
-0.000150797818314
-5.72697907402e-05
-1.00959214664e-05
-0.0453214474199
-0.0375995934333
-0.0286665759372
-0.0204137792341
-0.0138991744108
-0.00927074756283
-0.00620812484099
-0.00420882925651
-0.002881527296
-0.00198895537469
-0.00138791639849
-0.000984444240145
-0.000712544835054
-0.000526864433352
-0.000397112010804
-0.000299059341391
-0.000207526962649
-0.000114873948197
-4.17640128714e-05
-7.46978304384e-06
-0.0112662946993
-0.00974307935827
-0.0079113951317
-0.00608563944777
-0.00454237641119
-0.00332396286739
-0.00241044896024
-0.00173923387156
-0.00125480468443
-0.000910862771769
-0.000670554920513
-0.000504716798937
-0.000389804889773
-0.000308575629439
-0.0002485016419
-0.000198143836653
-0.000142318948837
-7.75337193461e-05
-2.68405966818e-05
-4.98902314148e-06
-0.00334801777354
-0.00301024106773
-0.00259198060797
-0.00213972680624
-0.00171389310642
-0.00133574773487
-0.00102029062446
-0.000769252084927
-0.000578476061064
-0.000438692899334
-0.000339048364114
-0.00026882836569
-0.00021867266946
-0.00018156093774
-0.00015204608348
-0.000124527870602
-9.00827393863e-05
-4.79796905768e-05
-1.65174868667e-05
-3.18728805452e-06
-0.00126675344222
-0.00117237476505
-0.00104863908573
-0.000905110290913
-0.000757518899601
-0.00061553607464
-0.000489042482849
-0.00038342563559
-0.000299926966457
-0.000236606923548
-0.000189943059524
-0.00015578559591
-0.000130243432138
-0.000110186860576
-9.30990241075e-05
-7.60497831329e-05
-5.43457701698e-05
-2.90893275862e-05
-1.039712985e-05
-2.10848605362e-06
-0.000550317984679
-0.000518480895957
-0.000475022855703
-0.000422374243767
-0.000365283280996
-0.000307863148054
-0.000254483563783
-0.000207865100093
-0.000169159882818
-0.000138194430584
-0.000114053325434
-9.53370250878e-05
-8.04821427224e-05
-6.81547310375e-05
-5.71974174001e-05
-4.60504237549e-05
-3.26422820733e-05
-1.80774562663e-05
-6.83788192779e-06
-1.56287127942e-06
-0.00025266798495
-0.000241090182151
-0.000224867039959
-0.0002047235117
-0.000182166155706
-0.00015876511817
-0.000136195803167
-0.000115587036037
-9.7526892797e-05
-8.21505377296e-05
-6.93087439595e-05
-5.86160237136e-05
-4.95641842287e-05
-4.17213274462e-05
-3.46578442871e-05
-2.76116907893e-05
-1.96852925287e-05
-1.13673730531e-05
-4.62664586528e-06
-1.2962411807e-06
-0.000117555966691
-0.000113300777862
-0.000107254206172
-9.96164006039e-05
-9.08554167079e-05
-8.15101790531e-05
-7.21569965139e-05
-6.32058426104e-05
-5.49089178273e-05
-4.739423457e-05
-4.07064908547e-05
-3.47849511114e-05
-2.94929688345e-05
-2.47339015229e-05
-2.04012186054e-05
-1.62095934373e-05
-1.17253633606e-05
-7.06749611422e-06
-3.15652210188e-06
-1.10963189232e-06
-5.58936320004e-05
-5.42572939613e-05
-5.19257192377e-05
-4.89476252969e-05
-4.54723817133e-05
-4.16760748018e-05
-3.77418688945e-05
-3.38026425041e-05
-2.99596188163e-05
-2.62959460893e-05
-2.28797148687e-05
-1.97286640638e-05
-1.6818246997e-05
-1.41412345331e-05
-1.16708438974e-05
-9.30560467048e-06
-6.85608699651e-06
-4.32537544666e-06
-2.15321258593e-06
-9.1931785011e-07
-2.8556812692e-05
-2.77950915078e-05
-2.67277065906e-05
-2.53719891371e-05
-2.37901052267e-05
-2.20475919646e-05
-2.02041986496e-05
-1.8302924727e-05
-1.63896134807e-05
-1.45166624074e-05
-1.27324363949e-05
-1.10559878807e-05
-9.48430651462e-06
-8.01886349197e-06
-6.64952295968e-06
-5.33473119913e-06
-3.99711884721e-06
-2.63662092085e-06
-1.45703906565e-06
-7.0883740002e-07
-1.67305331225e-05
-1.62476166176e-05
-1.55869134438e-05
-1.47665401636e-05
-1.38277919454e-05
-1.28093403553e-05
-1.17391706614e-05
-1.06382623998e-05
-9.53367559296e-06
-8.45696728212e-06
-7.43246080533e-06
-6.46724130492e-06
-5.55854170879e-06
-4.70553055722e-06
-3.90415174012e-06
-3.13808834389e-06
-2.37877593758e-06
-1.63090431401e-06
-9.78644704652e-07
-5.02550766537e-07
-1.15779087698e-05
-1.11909172047e-05
-1.06666108658e-05
-1.00247270218e-05
-9.30187481369e-06
-8.53267167856e-06
-7.74218336584e-06
-6.95006022967e-06
-6.17705980875e-06
-5.44107543296e-06
-4.75087098767e-06
-4.10623771325e-06
-3.50368937385e-06
-2.94184757204e-06
-2.41940729827e-06
-1.93090222719e-06
-1.46723023376e-06
-1.03155655481e-06
-6.50019555146e-07
-3.33284875368e-07
-9.15466917386e-06
-8.81575089689e-06
-8.35484371111e-06
-7.7887094926e-06
-7.15035013285e-06
-6.4743791646e-06
-5.78938128891e-06
-5.1188134377e-06
-4.48216889502e-06
-3.89083650841e-06
-3.34699452845e-06
-2.84796477219e-06
-2.39026322007e-06
-1.97234068715e-06
-1.59343728578e-06
-1.25130062769e-06
-9.42184881661e-07
-6.65535457396e-07
-4.24654316597e-07
-2.12045706633e-07
-7.79363481289e-06
-7.49672772549e-06
-7.08825910612e-06
-6.57890681042e-06
-5.99588692636e-06
-5.3720963641e-06
-4.73879134192e-06
-4.12377160541e-06
-3.54843630273e-06
-3.02337545368e-06
-2.54969139894e-06
-2.12431780902e-06
-1.74367482499e-06
-1.4056120942e-06
-1.10859172569e-06
-8.5025389678e-07
-6.27140045667e-07
-4.36039934381e-07
-2.73615952753e-07
-1.32219344583e-07
-6.80838409489e-06
-6.55699918099e-06
-6.206015861e-06
-5.75907179735e-06
-5.23569592902e-06
-4.66400882021e-06
-4.07485521577e-06
-3.49909235938e-06
-2.96186766803e-06
-2.4765481705e-06
-2.04576974011e-06
-1.66670817525e-06
-1.335468199e-06
-1.049097939e-06
-8.04969060209e-07
-5.99800159511e-07
-4.29399971511e-07
-2.89366798963e-07
-1.75249482067e-07
-8.19073713739e-08
-5.92963780888e-06
-5.72656477131e-06
-5.43848074895e-06
-5.06275989175e-06
-4.61069889466e-06
-4.10322283782e-06
-3.56738965963e-06
-3.03466369942e-06
-2.53429572604e-06
-2.08426746656e-06
-1.68971135941e-06
-1.34810730828e-06
-1.05523487639e-06
-8.07615655111e-07
-6.01943513868e-07
-4.34285167887e-07
-2.9993635318e-07
-1.94109141467e-07
-1.12378148936e-07
-5.08551549063e-08
-5.06790803322e-06
-4.91243656827e-06
-4.6881922307e-06
-4.38804658702e-06
-4.01593543195e-06
-3.58465970286e-06
-3.11482942025e-06
-2.6355319304e-06
-2.17914250201e-06
-1.76882095639e-06
-1.41218652921e-06
-1.10670859107e-06
-8.48047269598e-07
-6.32897481721e-07
-4.58034831842e-07
-3.19407475449e-07
-2.12142806362e-07
-1.31331051673e-07
-7.2483860243e-08
-3.18329853902e-08
-4.21390564551e-06
-4.10178173328e-06
-3.93703438721e-06
-3.71022456574e-06
-3.41975925164e-06
-3.0709467786e-06
-2.67660158565e-06
-2.26077249248e-06
-1.85712726742e-06
-1.49361283877e-06
-1.17943357794e-06
-9.11373687185e-07
-6.85441044136e-07
-4.99484986591e-07
-3.51122765299e-07
-2.36581738462e-07
-1.51014244615e-07
-8.94084204113e-08
-4.7138084299e-08
-2.01591043814e-08
-3.39156654366e-06
-3.31578633921e-06
-3.20210077279e-06
-3.04057372063e-06
-2.8262809754e-06
-2.55871948847e-06
-2.2431168802e-06
-1.89686506843e-06
-1.55294740864e-06
-1.24280388983e-06
-9.75424885516e-07
-7.46104290036e-07
-5.5208393871e-07
-3.93389882849e-07
-2.68904321375e-07
-1.75267358195e-07
-1.07719750539e-07
-6.11804160818e-08
-3.09500179781e-08
-1.29204725527e-08
-2.63432687884e-06
-2.58672934769e-06
-2.51345363101e-06
-2.40536847153e-06
-2.25625217517e-06
-2.0618061851e-06
-1.82121015192e-06
-1.5451582025e-06
-1.26457493783e-06
-1.01204891371e-06
-7.93602644761e-07
-6.02914325485e-07
-4.39807953435e-07
-3.06965851693e-07
-2.04460419242e-07
-1.29272594658e-07
-7.67688108553e-08
-4.20006246078e-08
-2.04659332539e-08
-8.33452679559e-09
-1.97380829645e-06
-1.94611158038e-06
-1.90201752614e-06
-1.83401618185e-06
-1.73590455533e-06
-1.60161301959e-06
-1.42644095032e-06
-1.2159524949e-06
-9.98441708958e-07
-8.03818796993e-07
-6.32465723504e-07
-4.78092559044e-07
-3.44257139525e-07
-2.35819230395e-07
-1.53492409517e-07
-9.44751256328e-08
-5.4428291816e-08
-2.88064592982e-08
-1.35588640055e-08
-5.36528393685e-09
-1.43545718385e-06
-1.42010077419e-06
-1.39469548812e-06
-1.35366729157e-06
-1.29172870447e-06
-1.20252087889e-06
-1.079561816e-06
-9.25566381885e-07
-7.65840270871e-07
-6.23217044619e-07
-4.92463031894e-07
-3.70191328965e-07
-2.63288601501e-07
-1.77382776925e-07
-1.13189357723e-07
-6.80950074366e-08
-3.82274597246e-08
-1.96410189242e-08
-8.93161805639e-09
-3.39777957763e-09
-1.04861134995e-06
-1.03850477485e-06
-1.0219192478e-06
-9.9546081798e-07
-9.55373605226e-07
-8.95902985034e-07
-8.09983650126e-07
-6.98444270258e-07
-5.82417884752e-07
-4.77013777898e-07
-3.7599739817e-07
-2.79978672243e-07
-1.96603014811e-07
-1.30514051711e-07
-8.19028890136e-08
-4.83350936851e-08
-2.65285620681e-08
-1.32552619864e-08
-5.80645104323e-09
-2.08189493762e-09
-8.69885043197e-07
-8.57774907063e-07
-8.4036946097e-07
-8.17007668384e-07
-7.85963014687e-07
-7.42327424302e-07
-6.76974477193e-07
-5.83873112468e-07
-4.78153538751e-07
-3.79780857245e-07
-2.90555446623e-07
-2.11290546314e-07
-1.45604557876e-07
-9.50601565024e-08
-5.86703811622e-08
-3.39894883126e-08
-1.82475501603e-08
-8.85624892611e-09
-3.71068454645e-09
-1.21266434137e-09
-8.76173416794e-07
-8.62663557596e-07
-8.45390977737e-07
-8.25703450148e-07
-8.0370301285e-07
-7.74940586928e-07
-7.25625775376e-07
-6.32355503958e-07
-4.94785183034e-07
-3.58096915503e-07
-2.50940737599e-07
-1.71365948736e-07
-1.13112231763e-07
-7.15287210456e-08
-4.29846767622e-08
-2.42604357774e-08
-1.2652052552e-08
-5.91370710253e-09
-2.33418761084e-09
-6.63129567834e-10
-6.81090701692e-07
-6.77374870456e-07
-6.73455680703e-07
-6.69938413038e-07
-6.67120068165e-07
-6.62194533122e-07
-6.458135743e-07
-5.96032858505e-07
-4.91742086713e-07
-3.56727935574e-07
-2.38870660317e-07
-1.53663843262e-07
-9.5887615186e-08
-5.77308457046e-08
-3.31824003179e-08
-1.79294260975e-08
-8.90771675374e-09
-3.91899966116e-09
-1.41224914572e-09
-3.3421468613e-10
-5.16070475152e-07
-2.13017846505e-07
-1.16630660117e-06
-4.86955599969e-07
-2.23162082567e-06
-9.34309770428e-07
-3.55223722179e-06
-1.47111341089e-06
-4.48330180201e-06
-1.77631596939e-06
-4.64743345944e-06
-1.69776931988e-06
-3.96296650636e-06
-1.34271568141e-06
-2.90436574052e-06
-9.42698765787e-07
-1.88440518264e-06
-6.29107114933e-07
-1.16393805781e-06
-4.41365080672e-07
-7.7353612544e-07
-3.54636011445e-07
-6.03289089553e-07
-3.09504857767e-07
-5.41733952277e-07
-2.18690698902e-07
-5.20579663258e-07
-3.96079196504e-07
-3.68600235444e-07
-1.59959773778e-07
-2.28893579225e-07
-6.22169239851e-08
-1.40096832576e-07
-2.78715953105e-08
-8.93834592746e-08
-1.53757661593e-08
-6.01364417931e-08
-1.00153767797e-08
-4.19882329723e-08
-7.09734764101e-09
-2.93301975703e-08
-5.10071439034e-09
-2.03421470183e-08
-3.65411107574e-09
-1.40232185972e-08
-2.5936996712e-09
-9.59520231251e-09
-1.82161413818e-09
-6.52943566294e-09
-1.25881508256e-09
-4.36046144131e-09
-8.4819773722e-10
-2.83825271311e-09
-5.4754613214e-10
-1.74839288287e-09
-3.3026765116e-10
-9.89563860285e-10
-1.79777221414e-10
-4.88184600426e-10
-8.51201393005e-11
-2.02510840704e-10
-3.50230174407e-11
-7.66132468693e-11
-1.40265152856e-11
)
;

boundaryField
{
    inletfuel
    {
        type            calculated;
        value           nonuniform 0();
    }
    inletair
    {
        type            calculated;
        value           nonuniform 0();
    }
    outlet
    {
        type            calculated;
        value           uniform 0;
    }
    axis
    {
        type            empty;
    }
    leftside
    {
        type            calculated;
        value           uniform 0;
    }
    burnerwall
    {
        type            calculated;
        value           nonuniform 0();
    }
    front
    {
        type            wedge;
    }
    back
    {
        type            wedge;
    }
    procBoundary1to0
    {
        type            processor;
        value           uniform 0;
    }
}


// ************************************************************************* //
