/*--------------------------------*- C++ -*----------------------------------*\
  =========                 |
  \\      /  F ield         | OpenFOAM: The Open Source CFD Toolbox
   \\    /   O peration     | Website:  https://openfoam.org
    \\  /    A nd           | Version:  7
     \\/     M anipulation  |
\*---------------------------------------------------------------------------*/
FoamFile
{
    version     2.0;
    format      ascii;
    class       volScalarField;
    location    "0.09";
    object      ed::R_O2;
}
// * * * * * * * * * * * * * * * * * * * * * * * * * * * * * * * * * * * * * //

dimensions      [1 -3 -1 0 0 0 0];

internalField   nonuniform List<scalar> 
815
(
-0.649046567636
-0.686255302818
-0.777395826305
-0.73405113974
-0.772581319673
-0.857381955133
-0.846697281377
-0.87706844225
-0.950044216266
-1.42919528482
-1.45852248517
-1.52266102345
-3.80918575237
-3.74838156432
-3.61809297271
-1.45430702829
-1.44347215532
-1.4047005036
-0.406982407612
-0.405722811353
-0.398432764195
-0.0972732165676
-0.0971215542735
-0.0959088758258
-0.0284916619189
-0.0283457657232
-0.0280592966618
-0.0105877678496
-0.0105598408433
-0.0104755960904
-0.00455870209576
-0.00454633495227
-0.00451647029052
-0.00207041747324
-0.00206821357395
-0.00205802664384
-0.000957285063617
-0.000956870114933
-0.000952954455
-0.000453821050309
-0.000453364419149
-0.000451738140741
-0.000231856738837
-0.000231662294883
-0.000230773278085
-0.000136684224661
-0.000136331094728
-0.000135659729649
-9.50216413925e-05
-9.47685927372e-05
-9.42050279358e-05
-7.54334268959e-05
-7.52011278953e-05
-7.46924546324e-05
-6.42927883834e-05
-6.40879572898e-05
-6.36371470116e-05
-5.61162599362e-05
-5.59389708334e-05
-5.55492674845e-05
-4.87411456875e-05
-4.86071960519e-05
-4.82897360056e-05
-4.15556358428e-05
-4.14309206536e-05
-4.11799839938e-05
-3.44145414624e-05
-3.43328281295e-05
-3.41443224572e-05
-2.76147810333e-05
-2.75451602804e-05
-2.74082526853e-05
-2.13630100067e-05
-2.13194394902e-05
-2.12258673505e-05
-1.59559276991e-05
-1.59265565002e-05
-1.58636368315e-05
-1.15727186206e-05
-1.15531299854e-05
-1.15115521557e-05
-8.44133123075e-06
-8.42752611822e-06
-8.39875289442e-06
-7.00873037107e-06
-6.99809301309e-06
-6.97461466818e-06
-7.04275419644e-06
-7.03626434635e-06
-7.02162434556e-06
-5.42463742316e-06
-5.42463779611e-06
-5.42318009626e-06
-0.910162424666
-0.984136631768
-1.05806213326
-1.62255504933
-3.43985972255
-1.35020937954
-0.386764703176
-0.0940278804716
-0.0275990187416
-0.010348374566
-0.00446987084976
-0.00204209819288
-0.000946773073359
-0.000449131149787
-0.000229474894589
-0.000134736846097
-9.34610974281e-05
-7.40286189751e-05
-6.30521610087e-05
-5.50498922994e-05
-4.78842882018e-05
-4.08588844884e-05
-3.39097045105e-05
-2.72399842389e-05
-2.11153305868e-05
-1.57924155773e-05
-1.14669290986e-05
-8.36927834726e-06
-6.94961071018e-06
-7.00104310574e-06
-5.41810778788e-06
-0.0196990413505
-0.00410225641858
-0.000949530363591
-0.000288015635057
-0.000103577913701
-3.25986030092e-05
-8.77547718526e-06
-1.22123601739
-2.01216058397
-3.46442851747
-6.06742722748
-3.5843955398
-1.57420288017
-0.646880386019
-0.282816789093
-0.145438038846
-0.0856327138831
-0.0556285501499
-0.0381894059791
-0.0254980249593
-0.00858571126397
-0.00265931840753
-0.00106412369706
-0.000512402182383
-0.000232534035955
-7.7507845795e-05
-1.93297856884e-05
-1.27933931252
-2.04237562353
-3.49599093506
-4.05487317023
-1.96333327807
-0.834473960736
-0.336001293281
-0.149331519991
-0.0787508177586
-0.0467466493596
-0.0299161120712
-0.0200156118477
-0.013305504447
-0.0063046916898
-0.00309768869792
-0.00174637790509
-0.000999451252825
-0.000500545506246
-0.000173602920816
-3.79618919793e-05
-1.32037984709
-2.01521070025
-3.37654765662
-2.35662210032
-1.16441882095
-0.522263866159
-0.235348572777
-0.119612245528
-0.0688443634933
-0.0425939148259
-0.0274564381729
-0.0181589820687
-0.0120797295654
-0.0073246713734
-0.00447874690165
-0.00282931063833
-0.00172147863993
-0.000901327469983
-0.000330631820455
-6.4478094725e-05
-1.86324020416
-2.50658106604
-2.77835283341
-1.62757104744
-0.882837608284
-0.455656792071
-0.239888930634
-0.135259479177
-0.0812448373884
-0.0506405324826
-0.0322399423257
-0.0208229430494
-0.0135486860583
-0.00870649994751
-0.00564404737993
-0.00368056532193
-0.00230013538301
-0.00124240895848
-0.000474865512726
-8.72499186266e-05
-3.05665449928
-2.3538300692
-1.62133726944
-1.03108609047
-0.614690615515
-0.354096331883
-0.2055292863
-0.123277733502
-0.0764133851658
-0.0484385912067
-0.0311773376416
-0.0202895553595
-0.0133034507416
-0.00874665449622
-0.00579370129577
-0.00384880124115
-0.00245669757702
-0.00134803949792
-0.000523782977531
-9.3407224701e-05
-1.22623212042
-0.982185029337
-0.714342353686
-0.480978446074
-0.305599700547
-0.18861959345
-0.116875729384
-0.0739699099965
-0.047770082825
-0.0313031441604
-0.0207871667546
-0.0140012377152
-0.00957055781762
-0.00663221802052
-0.00465838555058
-0.00327454761599
-0.0021694375755
-0.00119673323186
-0.0004544937223
-8.01213496331e-05
-0.35967153139
-0.29839080876
-0.227498278497
-0.162003988323
-0.110304009028
-0.0735727599818
-0.0492677506068
-0.0334013177034
-0.0228678339792
-0.0157843728787
-0.0110145206057
-0.00781256088625
-0.0056547640598
-0.00418120224235
-0.00315148551493
-0.00237333839535
-0.00164693637803
-0.000911640982734
-0.000331439689631
-5.92802847102e-05
-0.0894094451582
-0.0773211905785
-0.0627849233518
-0.0482957051082
-0.0360483517842
-0.0263790077956
-0.0191293508531
-0.0138025801391
-0.00995814450196
-0.0072286175014
-0.00532153161191
-0.00400543835924
-0.00309349611783
-0.00244885976747
-0.00197211190691
-0.0015724717815
-0.00112944482554
-0.000615308494303
-0.000213007285988
-3.95929454064e-05
-0.0265699078093
-0.0238893079617
-0.020569988111
-0.016980896705
-0.0136014755335
-0.0106005094873
-0.00809703820713
-0.00610479345127
-0.00459079271736
-0.00348147192767
-0.00269069174262
-0.00213342502222
-0.00173538883631
-0.00144086970375
-0.00120663947866
-0.000988254622701
-0.000714897662617
-0.000380767379857
-0.00013108296699
-2.52943548984e-05
-0.0100529699821
-0.00930397970745
-0.00832201192394
-0.00718296574674
-0.00601167875668
-0.00488490141412
-0.00388104680531
-0.00304287028279
-0.00238022387792
-0.00187771528437
-0.00150739031927
-0.0012363162926
-0.00103361338521
-0.000874444201114
-0.000738834933082
-0.000603531959337
-0.000431288661204
-0.000230853240478
-8.25117428524e-05
-1.67329697305e-05
-0.00436732989719
-0.00411467039253
-0.00376978688198
-0.00335196688817
-0.0028988923467
-0.00244320550695
-0.00201958450822
-0.0016496198407
-0.00134245478833
-0.00109671260093
-0.000905128510988
-0.00075659573477
-0.00063870721635
-0.00054087673451
-0.000453919366636
-0.000365456696024
-0.000259049528419
-0.000143462902204
-5.4265510138e-05
-1.24029645662e-05
-0.00200517605358
-0.00191329447654
-0.0017845474323
-0.00162468815884
-0.00144567272054
-0.00125996181575
-0.00108085147061
-0.000917300056088
-0.000773974550262
-0.000651947618441
-0.000550034994418
-0.000465177442762
-0.000393341939821
-0.000331100937602
-0.000275045053481
-0.000219126697752
-0.000156222709395
-9.02116041446e-05
-3.67171151475e-05
-1.0286985016e-05
-0.000932925512549
-0.000899156284742
-0.000851170621817
-0.000790556908406
-0.000721029638786
-0.000646865724571
-0.000572638759663
-0.000501602298661
-0.000435757807533
-0.000376121194209
-0.000323047182664
-0.00027605377471
-0.000234056542097
-0.000196288528819
-0.000161904307028
-0.000128639521169
-9.30526193689e-05
-5.60877309797e-05
-2.50501959422e-05
-8.80605154318e-06
-0.000443572510611
-0.000430586512989
-0.000412083108991
-0.000388448921001
-0.00036086934769
-0.000330741812092
-0.000299519908467
-0.00026825816223
-0.000237759881755
-0.000208684932581
-0.000181573682066
-0.0001565669064
-0.000133469802865
-0.000112225000961
-9.26199522776e-05
-7.38493863917e-05
-5.44099857741e-05
-3.43262296176e-05
-1.70879200087e-05
-7.295717101e-06
-0.000226627196113
-0.000220582167977
-0.000212111388918
-0.000201352399512
-0.000188798550486
-0.000174969945066
-0.000160340754378
-0.000145252222518
-0.000130068162318
-0.000115204400918
-0.000101044762628
-8.77404478113e-05
-7.52675662955e-05
-6.3637793503e-05
-5.27706911866e-05
-4.23364885541e-05
-3.17211814443e-05
-2.09242541509e-05
-1.15630788925e-05
-5.62534181245e-06
-0.000132773704542
-0.000128941273569
-0.000123697925532
-0.000117187433684
-0.000109737516957
-0.000101655073348
-9.31621942678e-05
-8.44253735595e-05
-7.56593598728e-05
-6.71145902534e-05
-5.89840949933e-05
-5.13241018642e-05
-4.41126513497e-05
-3.73431449759e-05
-3.09833934062e-05
-2.49039054253e-05
-1.88779933786e-05
-1.29428755162e-05
-7.76653570544e-06
-3.98824870104e-06
-9.18824180293e-05
-8.88112484884e-05
-8.46503473134e-05
-7.9556349697e-05
-7.38197862051e-05
-6.77153812199e-05
-6.14420568191e-05
-5.51557584403e-05
-4.90212181512e-05
-4.31804376248e-05
-3.77029671568e-05
-3.25871500284e-05
-2.78053194315e-05
-2.33465363882e-05
-1.92004443274e-05
-1.53236624281e-05
-1.16439561206e-05
-8.18644476079e-06
-5.15856271462e-06
-2.64495262921e-06
-7.26515605432e-05
-6.99619011737e-05
-6.63041364116e-05
-6.18112886996e-05
-5.67452614306e-05
-5.13807480012e-05
-4.59445969299e-05
-4.06229626998e-05
-3.55705442389e-05
-3.08777235732e-05
-2.65617873244e-05
-2.26014814017e-05
-1.89691565855e-05
-1.56525185261e-05
-1.26455367464e-05
-9.93033626705e-06
-7.47719012811e-06
-5.28169709449e-06
-3.37006157255e-06
-1.6827971826e-06
-6.18503760985e-05
-5.94941180157e-05
-5.62525063237e-05
-5.22102806085e-05
-4.75834280592e-05
-4.26330189358e-05
-3.76071029483e-05
-3.27262991996e-05
-2.81604315771e-05
-2.39935426006e-05
-2.02343804586e-05
-1.68586107246e-05
-1.38378235968e-05
-1.11549538517e-05
-8.79779676874e-06
-6.74762476785e-06
-4.97699066253e-06
-3.46041796708e-06
-2.17141936857e-06
-1.04929424925e-06
-5.40314149946e-05
-5.20364214077e-05
-4.92510137171e-05
-4.57040604539e-05
-4.1550543504e-05
-3.70136279903e-05
-3.23380981651e-05
-2.77688374715e-05
-2.35054161016e-05
-1.9653914951e-05
-1.62352523405e-05
-1.32270153735e-05
-1.05982910873e-05
-8.32565338883e-06
-6.38824378058e-06
-4.76002100949e-06
-3.40772314488e-06
-2.29641826644e-06
-1.39078191847e-06
-6.50017847428e-07
-4.7057674296e-05
-4.5446084319e-05
-4.31598461825e-05
-4.01781211102e-05
-3.6590559804e-05
-3.25632239421e-05
-2.83108456369e-05
-2.40831262495e-05
-2.01122002202e-05
-1.65407707432e-05
-1.34095689093e-05
-1.06985952049e-05
-8.37435619497e-06
-6.40924718836e-06
-4.77703069448e-06
-3.44649211987e-06
-2.38029837107e-06
-1.54045239379e-06
-8.91834290904e-07
-4.03587098063e-07
-4.02189768205e-05
-3.89851534749e-05
-3.72055478159e-05
-3.4823588513e-05
-3.18705100786e-05
-2.84479008998e-05
-2.47193223381e-05
-2.091561191e-05
-1.72937001229e-05
-1.40373835867e-05
-1.1207128644e-05
-8.78285219056e-06
-6.73011294899e-06
-5.02268174171e-06
-3.63496972796e-06
-2.5348214228e-06
-1.68356776717e-06
-1.04224474643e-06
-5.75232754001e-07
-2.52626940572e-07
-3.34416039852e-05
-3.25517873198e-05
-3.12443504741e-05
-2.94443851053e-05
-2.713924901e-05
-2.43710691859e-05
-2.12415411695e-05
-1.79415166723e-05
-1.47381834934e-05
-1.18533287794e-05
-9.3599985283e-06
-7.23267213206e-06
-5.4396680613e-06
-3.96391863589e-06
-2.7865143302e-06
-1.87751541523e-06
-1.19845079349e-06
-7.09546259425e-07
-3.74088382693e-07
-1.59982885743e-07
-2.69155113532e-05
-2.63141187733e-05
-2.54119088022e-05
-2.41300282463e-05
-2.24293985393e-05
-2.03060274817e-05
-1.78014015288e-05
-1.50535431422e-05
-1.23242086127e-05
-9.86290605709e-06
-7.74098318351e-06
-5.92109228304e-06
-4.38134452883e-06
-3.12194666439e-06
-2.13402780742e-06
-1.39092378363e-06
-8.54865187296e-07
-4.85528490283e-07
-2.45619700969e-07
-1.02537019753e-07
-2.09060486068e-05
-2.05283140486e-05
-1.99467971128e-05
-1.90890320359e-05
-1.79056433817e-05
-1.63625177536e-05
-1.44531448489e-05
-1.22623933826e-05
-1.0035681346e-05
-8.03163189526e-06
-6.298039776e-06
-4.78473506672e-06
-3.49032100991e-06
-2.43608455264e-06
-1.62260025405e-06
-1.02590880774e-06
-6.09238171665e-07
-3.33317443109e-07
-1.62417883228e-07
-6.61429011348e-08
-1.56641654905e-05
-1.54443640311e-05
-1.50944331062e-05
-1.45547736507e-05
-1.37761586469e-05
-1.27104194646e-05
-1.1320251895e-05
-9.64981307609e-06
-7.9236449608e-06
-6.37911527838e-06
-5.0192553035e-06
-3.79414808324e-06
-2.73202864458e-06
-1.87146414239e-06
-1.21811753884e-06
-7.49755690718e-07
-4.31943553944e-07
-2.2860839447e-07
-1.07603301712e-07
-4.25789554343e-08
-1.13918048287e-05
-1.12699361838e-05
-1.10683195394e-05
-1.07427192967e-05
-1.02511739524e-05
-9.5432196159e-06
-8.5674150694e-06
-7.3453055215e-06
-6.07771725542e-06
-4.94585768079e-06
-3.90819232213e-06
-2.93784267221e-06
-2.08946138949e-06
-1.40771177116e-06
-8.98272053235e-07
-5.40402767322e-07
-3.03373562917e-07
-1.55871353557e-07
-7.08814242928e-08
-2.69648180626e-08
-8.32179181247e-06
-8.24158591551e-06
-8.1099629808e-06
-7.89998857549e-06
-7.581855991e-06
-7.10989646069e-06
-6.42803962421e-06
-5.54286181434e-06
-4.62207507578e-06
-3.78558686357e-06
-2.98391970463e-06
-2.22191398411e-06
-1.56024380152e-06
-1.03576102528e-06
-6.49982275364e-07
-3.83587863038e-07
-2.10530975682e-07
-1.05193912574e-07
-4.60800626977e-08
-1.65219423261e-08
-6.90341777307e-06
-6.80731159252e-06
-6.66918177083e-06
-6.48378231443e-06
-6.23741158329e-06
-5.89111903285e-06
-5.37247728803e-06
-4.63362377978e-06
-3.7946320189e-06
-3.01394527965e-06
-2.30585138803e-06
-1.67680422156e-06
-1.1555194569e-06
-7.54398502471e-07
-4.65608824103e-07
-2.6974097273e-07
-1.44812769316e-07
-7.02832940024e-08
-2.94480355175e-08
-9.62371825154e-09
-6.95332237874e-06
-6.84610797975e-06
-6.70903258603e-06
-6.55279213917e-06
-6.37819641408e-06
-6.149937469e-06
-5.75857455362e-06
-5.0183805999e-06
-3.92662094046e-06
-2.84186126696e-06
-1.99146859861e-06
-1.359962153e-06
-8.97659980721e-07
-5.67652758274e-07
-3.41126892399e-07
-1.92531099181e-07
-1.00406835519e-07
-4.6931248026e-08
-1.85241399015e-08
-5.26260392708e-09
-5.40514369331e-06
-5.3756548136e-06
-5.34455207835e-06
-5.31663900144e-06
-5.29427258391e-06
-5.25518348078e-06
-5.12518400193e-06
-4.7301236651e-06
-3.90247089283e-06
-2.8309970264e-06
-1.89568032557e-06
-1.21947803902e-06
-7.60965224164e-07
-4.58152659836e-07
-2.6333591306e-07
-1.4228813307e-07
-7.06917432783e-08
-3.11012266795e-08
-1.12076255694e-08
-2.65233161818e-09
-4.09554126512e-06
-1.69051209588e-06
-9.25582268871e-06
-3.86448527862e-06
-1.7710168707e-05
-7.4146931542e-06
-2.81905957147e-05
-1.16747730593e-05
-3.55795350019e-05
-1.40968640967e-05
-3.68820857354e-05
-1.34735169769e-05
-3.14501480719e-05
-1.06558071917e-05
-2.30490801393e-05
-7.48126831848e-06
-1.49546613443e-05
-4.992601347e-06
-9.23702590115e-06
-3.50267838969e-06
-6.13879164637e-06
-2.81439549229e-06
-4.78770919869e-06
-2.45623413423e-06
-4.29920691668e-06
-1.73553191817e-06
-4.13132623413e-06
-3.14328908868e-06
-2.9252157356e-06
-1.26944261648e-06
-1.81650209453e-06
-4.93754229003e-07
-1.11181008516e-06
-2.21189303041e-07
-7.09348167555e-07
-1.22022258239e-07
-4.77243498243e-07
-7.9482146067e-08
-3.33219102947e-07
-5.63246330418e-08
-2.3276478746e-07
-4.04793284504e-08
-1.61435514229e-07
-2.8999067799e-08
-1.11288425128e-07
-2.05836306167e-08
-7.61476366314e-08
-1.44563508886e-08
-5.18176770094e-08
-9.98997106795e-09
-3.46046724773e-08
-6.73130706178e-09
-2.25244063884e-08
-4.34533244336e-09
-1.38752661588e-08
-2.62100790296e-09
-7.85319025095e-09
-1.42671411034e-09
-3.87423864047e-09
-6.75514410886e-10
-1.6071283762e-09
-2.77943071855e-10
-6.08003614072e-10
-1.11314587685e-10
)
;

boundaryField
{
    inletfuel
    {
        type            calculated;
        value           nonuniform 0();
    }
    inletair
    {
        type            calculated;
        value           nonuniform 0();
    }
    outlet
    {
        type            calculated;
        value           uniform 0;
    }
    axis
    {
        type            empty;
    }
    leftside
    {
        type            calculated;
        value           uniform 0;
    }
    burnerwall
    {
        type            calculated;
        value           nonuniform 0();
    }
    front
    {
        type            wedge;
    }
    back
    {
        type            wedge;
    }
    procBoundary1to0
    {
        type            processor;
        value           uniform 0;
    }
}


// ************************************************************************* //
