/*--------------------------------*- C++ -*----------------------------------*\
  =========                 |
  \\      /  F ield         | OpenFOAM: The Open Source CFD Toolbox
   \\    /   O peration     | Website:  https://openfoam.org
    \\  /    A nd           | Version:  7
     \\/     M anipulation  |
\*---------------------------------------------------------------------------*/
FoamFile
{
    version     2.0;
    format      ascii;
    class       volScalarField;
    location    "0.09";
    object      epsilon;
}
// * * * * * * * * * * * * * * * * * * * * * * * * * * * * * * * * * * * * * //

dimensions      [0 2 -3 0 0 0 0];

internalField   nonuniform List<scalar> 
815
(
1959.30105351
1957.95103198
1950.12410174
1452.65451245
1454.34456869
1454.46548289
1215.95128881
1216.53223118
1217.51339082
1396.30326904
1392.5646147
1387.72464126
1271.17304507
1269.34419336
1263.53281516
606.6121407
609.971091378
610.450885083
213.61945409
215.490656381
216.425073059
92.9803475087
93.3251863232
93.5655251545
60.4432895992
60.4231526946
60.3778640074
47.5897335489
47.5505556072
47.4693708114
37.9749234188
37.9385248027
37.8643814454
28.469103106
28.4744562423
28.4457166201
19.910719289
19.9147533425
19.8967794501
13.4256359011
13.4314507776
13.420372326
9.25589525306
9.25634135607
9.24640596161
6.79693183285
6.7939390058
6.78354527263
5.37720457539
5.37415439786
5.36372229655
4.53012763484
4.52640943622
4.51631968626
3.97813804923
3.97424102774
3.96474968035
3.58252536664
3.57811927734
3.56879526986
3.26972224759
3.26641413656
3.25886559397
3.01745240274
3.01438867666
3.00745157178
2.80787292554
2.80491147156
2.7984380468
2.63117421135
2.62829756441
2.6222870785
2.47966280186
2.47685397282
2.47114946447
2.34858443464
2.34588088191
2.3406490835
2.25085098327
2.24817515268
2.24322614901
2.27895093232
2.27597913573
2.27046011559
2.90312598874
2.89887884743
2.89020356108
6.00812621126
5.99970069702
5.98351087905
17.8443535793
17.8223758545
17.7844584462
1939.74124974
1457.29130939
1222.93831949
1387.24211946
1260.05696299
611.183555471
217.354705985
93.8152692207
60.2999251128
47.3469924479
37.758152135
28.396467686
19.8680592295
13.4048141288
9.23542282211
6.7737271532
5.35469742813
4.5074760444
3.95638473834
3.56072289764
3.25195366365
3.00133745398
2.79315229958
2.61779322297
2.46742350783
2.33776165052
2.24107273889
2.26838737263
2.88624670643
5.97312777443
17.7535630026
7.99318754689
3.55316121179
1.77611717075
0.950308882111
0.513148812999
0.325679828038
0.460585111181
1909.42333844
1801.83392133
1565.20001003
1186.19996916
741.978121557
364.668001056
155.637354074
71.7950232123
40.752934717
27.7509150608
21.0758235951
16.8421938302
13.1831637582
7.72396860708
4.46964713848
2.63982654097
1.50219289642
0.792364918884
0.435805076294
0.470741587095
1462.65984055
1454.41971504
1377.07720441
1167.45432619
816.444366704
443.562883877
211.830406995
109.218576747
66.6734185884
46.3969872665
34.4572738912
25.7423131741
18.6528942251
12.6143319554
8.40714409422
5.38851251683
3.02901641286
1.460221877
0.664466048029
0.511827057882
1239.86646735
1277.52147006
1285.05156823
1173.87541008
893.207491847
553.059410775
314.054395603
190.505992496
128.333023174
92.3620730344
68.0530394485
49.7268755816
35.5223450451
24.8647803931
17.1946432084
11.5454732198
6.69581918902
2.91117055281
1.07192167541
0.595344460102
1391.67460736
1410.33316674
1404.89487175
1294.13341163
1029.81252214
706.43497091
453.675666702
299.445757861
209.188369832
151.142941308
109.685342993
78.5235126051
55.1777866173
38.5802515398
27.378710712
19.4869637473
12.0968544395
4.98550161697
1.51667160695
0.694010178911
1255.15408588
1235.82563122
1181.80597477
1050.49102729
831.582811377
590.142625416
399.777135921
276.046589918
198.175265872
145.336706921
106.708798446
77.7919181662
56.4581096988
41.288195072
31.0677801081
23.9341386135
15.9777925936
6.36606109439
1.76158045564
0.775932074958
611.805938828
593.285108685
552.425174995
480.225961807
382.597786778
284.577699298
207.38083835
153.09039419
114.509563099
85.674123023
63.9772007517
48.1312153451
36.9284429359
29.3261865799
24.608238601
21.2805525874
14.9082341878
5.76299009206
1.64860183328
0.822592316468
218.842176903
212.907288141
199.641641259
177.523587164
149.217143689
120.081654315
94.527685715
73.2619655843
55.7757837816
41.9558738065
31.7604067
24.7260124628
20.1057025164
17.3100761928
15.9433290488
14.8784080338
10.575245754
4.21301395617
1.39263164969
0.855341316747
94.256486234
92.5157268285
88.7132355893
82.0042043668
72.9133841722
62.0576460878
50.519411514
39.3152689672
29.5800328832
22.0992856012
16.9294391447
13.6060476568
11.5873909804
10.5011324903
10.0457445267
9.45983176579
6.73780128386
2.94134902182
1.17741187573
0.897813608069
60.1471321114
59.1960559008
57.3161099999
53.8883015874
48.7399820475
41.9373759852
34.1088184272
26.2785311647
19.570023978
14.6167499236
11.3482949708
9.32186903744
8.11072292737
7.42282329898
6.99017885496
6.33271474867
4.50612981292
2.23794642657
1.11578245595
0.981505660202
47.0850669703
46.3329414827
44.9019423098
42.3543549925
38.4627531768
33.2526709545
27.1937001849
21.1175178934
15.9154026368
12.0725603792
9.52021825566
7.90981401749
6.90097332501
6.24301017313
5.69668028053
4.94672056044
3.57616813625
2.0891675658
1.27053524935
1.16281551122
37.5413262055
36.9904646889
35.9436011893
34.0870077756
31.2349887136
27.3965083984
22.8866288984
18.2865271673
14.2384143386
11.1298381524
8.96966678075
7.54159424315
6.59842654935
5.93074897515
5.3385097348
4.6009300253
3.51464600758
2.41936339881
1.70272795049
1.53714576518
28.2889174008
27.978225082
27.340979941
26.1646512613
24.3120059739
21.7709604728
18.7220478483
15.5239456282
12.5975497751
10.2377050823
8.51061948056
7.31194044523
6.48706567825
5.88808893079
5.36538111835
4.76019675499
3.95126033575
3.1241365126
2.44504815613
2.22396233129
19.8230914573
19.6895961612
19.3669610387
18.7166068573
17.6462919538
16.137338582
14.2834759323
12.2861569933
10.3963960879
8.81218380855
7.60954731567
6.75333762606
6.16118375055
5.74525065585
5.40695347107
5.04538535673
4.57473329963
4.04261830406
3.45596865286
3.32013419773
13.388370565
13.3437974032
13.1931984403
12.849314872
12.2569023509
11.4055086366
10.3483296319
9.19760485807
8.09482147311
7.15802727669
6.44430607695
5.9475479426
5.62938108011
5.44459614202
5.339652211
5.26240833043
5.15494755204
4.97915818859
4.64061953372
4.92461321186
9.22508508992
9.21231156929
9.13685047929
8.94248578301
8.59930997309
8.10945762861
7.51306896532
6.87948297629
6.28872984964
5.80547507492
5.46258920588
5.25970371552
5.17882855074
5.19855502184
5.29763394586
5.45886513946
5.66013133929
5.83875686586
5.89926508925
7.13174674453
6.76362392937
6.76032060082
6.71623055885
6.59293401022
6.37600758255
6.07848734224
5.73866656205
5.4073608113
5.13315374349
4.94902697859
4.86839527146
4.8880118434
4.9963100151
5.18193382697
5.44058746281
5.77675429501
6.19776190464
6.6798085202
7.23474138735
9.86702408861
5.34568675247
5.34586901473
5.31744478104
5.23203245431
5.08409587125
4.89394081203
4.70173909109
4.55170962417
4.4780445223
4.49666105419
4.60805260607
4.80434540225
5.07394152582
5.4076315889
5.80700313433
6.28882789558
6.88497118075
7.63829881244
8.73506277984
12.9043407747
4.49923454416
4.5016987163
4.48349549844
4.42174115726
4.31528427956
4.18836507151
4.08376194911
4.04561492003
4.10403630739
4.26820195274
4.53221036528
4.88459281147
5.31131190157
5.80148625806
6.3566820155
6.9985856039
7.77741092044
8.80097206935
10.4386664158
16.0173578128
3.9489608348
3.95397506087
3.94404928896
3.89875783902
3.81790365527
3.72677411721
3.67067444628
3.6982731945
3.84342412721
4.11718834082
4.51418835778
5.02189177155
5.62349280394
6.30475556642
7.06327321114
7.91843503144
8.92736874851
10.2374639736
12.3525828935
19.0383875905
3.55386630055
3.56157932327
3.55857567529
3.52486315562
3.45883638139
3.3844142052
3.34879446097
3.40810657174
3.60676144445
3.96624998704
4.48923227041
5.16615772929
5.97874228826
6.90831367446
7.94423653585
9.09440773354
10.4042170749
12.0200724362
14.5030257381
21.9077524042
3.24671391802
3.25754801349
3.2604825108
3.23502589424
3.17667169566
3.10601763413
3.07092075547
3.13622108055
3.36279003466
3.79157344382
4.44192265543
5.31303009764
6.38750055313
7.64058883479
9.04730665318
10.5908779983
12.2787940257
14.2087378377
16.9176655226
24.6635823324
2.99739924639
3.01144952187
3.01976369177
3.00064831487
2.94591704246
2.87140046826
2.82389812609
2.87673208867
3.11184189865
3.59910555078
4.38471597947
5.48399225538
6.88288872604
8.54684893137
10.426751158
12.4626961033
14.5918392574
16.8186045504
19.5903865152
27.398437177
2.79081565243
2.80848065571
2.82200008171
2.80836129807
2.75554533934
2.67387941197
2.607344993
2.63660177894
2.86779562325
3.40923410641
4.34558970303
5.71633949255
7.51125277415
9.67823715041
12.129175116
14.7367988318
17.3368680532
19.8029269175
22.4761856611
30.1639301515
2.61719679101
2.63864392507
2.65728195284
2.64885922363
2.59782579125
2.50898420913
2.42238386476
2.42484347733
2.64907890417
3.25076805691
4.3647504318
6.06097305496
8.32937875746
11.0865797911
14.1854152078
17.4043714433
20.4547905383
23.0550251378
25.4751629293
32.9367258514
2.46863992812
2.49382604349
2.51726327064
2.51378755401
2.46503952151
2.37100606783
2.26803792054
2.24930637731
2.47726352704
3.16319307369
4.50047901528
6.58850288265
9.40415131644
12.8153277278
16.5946659722
20.410153996
23.8362266087
26.4477527608
28.4758253223
35.6225195818
2.34093244825
2.36942552202
2.3967366818
2.39734234257
2.35102849225
2.25458590909
2.14273041072
2.11787019824
2.37739858345
3.1941913182
4.81939095508
7.36898585383
10.7879224584
14.8777739412
19.319035587
23.6641307866
27.3564693161
29.8567546501
31.3598386791
38.0627471948
2.24603020379
2.27648817881
2.3054343485
2.30763183066
2.26232033451
2.16541851246
2.05384694535
2.0456523338
2.38126752476
3.39667414166
5.38672731836
8.45952563819
12.5086326138
17.2582566335
22.2965617111
27.0682965966
30.916117775
33.1971004001
34.0559500816
40.1259858254
2.27408546263
2.3024919261
2.32665228264
2.32257227323
2.2705740289
2.16874684483
2.06183129909
2.09399847828
2.56040697999
3.85588907688
6.28988002188
9.93014291936
14.6042404344
19.9598581646
25.5080700206
30.6126846033
34.5430042043
36.5571032352
36.720902789
41.9065286715
2.88829008364
2.90071940408
2.89917515056
2.86236327301
2.77364151988
2.63733918602
2.5133919696
2.58758672976
3.23029915713
4.89105858246
7.85198005522
12.1040645763
17.4035318216
23.3331633618
29.3540688681
34.7743712854
38.8264283403
40.6917273521
40.3031162481
44.4018720824
5.95716929588
5.92027409929
5.8449524201
5.71232748196
5.51008233225
5.25575115976
5.04137509868
5.13012849632
6.00929606733
8.17822973837
11.83299238
16.8326301462
22.8497769573
29.4069405255
35.9456572008
41.7362166913
46.0439881465
47.9945031344
47.392532086
50.3615785803
17.6930658132
17.5573905324
17.3367487472
17.0147074189
16.5814586485
16.0748677614
15.6386941236
15.6713862658
16.8776150759
19.8210244031
24.44983889
30.3337884534
36.9971667109
43.9216522962
50.5611198649
56.2544586878
60.3786069935
62.22554966
61.6656607953
64.344154947
1.36075872734
1.28468113282
1.32469152061
1.31489618439
1.31328639755
1.36379570051
1.34875580611
1.42997816922
1.44962966906
1.50233126703
1.62207591519
1.57775703002
1.85952272987
1.65890436205
2.12666034342
1.7599016869
2.39929382122
1.90266833161
2.6883030502
2.14697609611
3.08713985649
2.62730078703
3.89319291336
3.6544444641
6.17597637979
6.13479828533
11.9586661016
67.0861482946
18.2687254355
110.131990879
24.7022947231
143.821907349
31.1240707289
173.690441774
37.1168305665
204.391245903
42.9867594589
238.259284824
49.262227066
275.568401222
56.0975311555
315.837965436
63.4717238128
358.224171044
71.4356279825
402.162899948
79.8808290767
447.04881901
88.5726187293
492.265457284
97.0630877655
536.256338962
104.696803425
577.39139174
110.681361394
613.165120651
114.478387657
642.199892783
116.646423988
664.056856783
121.146752308
679.926312189
134.369927441
694.124497805
)
;

boundaryField
{
    inletfuel
    {
        type            turbulentMixingLengthDissipationRateInlet;
        mixingLength    0.005;
        phi             phi;
        k               k;
        value           nonuniform 0();
    }
    inletair
    {
        type            turbulentMixingLengthDissipationRateInlet;
        mixingLength    0.005;
        phi             phi;
        k               k;
        value           nonuniform 0();
    }
    outlet
    {
        type            inletOutlet;
        inletValue      uniform 200;
        value           nonuniform List<scalar> 
26
(
17.8443535793
17.8223758545
17.7844584462
17.7535630026
17.6930658132
17.5573905324
17.3367487472
17.0147074189
16.5814586485
16.0748677614
15.6386941236
15.6713862658
16.8776150759
19.8210244031
24.44983889
30.3337884534
36.9971667109
43.9216522962
50.5611198649
56.2544586878
60.3786069935
62.22554966
61.6656607953
64.344154947
134.369927441
694.124497805
)
;
    }
    axis
    {
        type            empty;
    }
    leftside
    {
        type            epsilonWallFunction;
        value           nonuniform List<scalar> 
32
(
1.28468113282
1.31489618439
1.36379570051
1.42997816922
1.50233126703
1.57775703002
1.65890436205
1.7599016869
1.90266833161
2.14697609611
2.62730078703
3.6544444641
6.13479828533
67.0861482946
110.131990879
143.821907349
173.690441774
204.391245903
238.259284824
275.568401222
315.837965436
358.224171044
402.162899948
447.04881901
492.265457284
536.256338962
577.39139174
613.165120651
642.199892783
664.056856783
679.926312189
694.124497805
)
;
    }
    burnerwall
    {
        type            epsilonWallFunction;
        value           nonuniform 0();
    }
    front
    {
        type            wedge;
    }
    back
    {
        type            wedge;
    }
    procBoundary1to0
    {
        type            processor;
        value           nonuniform List<scalar> 
27
(
2706.26715861
2699.81372801
2681.61039252
2653.75327391
12.7819746816
4.22643595661
1.69057069664
0.789705135642
0.406103473697
0.276839678609
0.467950958202
2580.08454314
2362.33244031
1967.81569009
1416.45616404
843.875064843
413.119965523
178.790923805
80.5123230807
43.1446677667
28.2375390571
21.9372714898
19.6723720541
17.367248135
17.367248135
1.4008524427
1.27289593542
)
;
    }
}


// ************************************************************************* //
