/*--------------------------------*- C++ -*----------------------------------*\
  =========                 |
  \\      /  F ield         | OpenFOAM: The Open Source CFD Toolbox
   \\    /   O peration     | Website:  https://openfoam.org
    \\  /    A nd           | Version:  7
     \\/     M anipulation  |
\*---------------------------------------------------------------------------*/
FoamFile
{
    version     2.0;
    format      ascii;
    class       volScalarField;
    location    "0.09";
    object      H2;
}
// * * * * * * * * * * * * * * * * * * * * * * * * * * * * * * * * * * * * * //

dimensions      [0 0 0 0 0 0 0];

internalField   nonuniform List<scalar> 
815
(
0.0403269372967
0.0394954772629
0.0377598038976
0.0266805175259
0.0261143607398
0.0249288886009
0.0171603054193
0.016796905082
0.0160358328328
0.01003084132
0.00983683556897
0.0094153689659
0.00454477167538
0.00447880430865
0.00431855572957
0.00162064910158
0.00160589105655
0.00156136455732
0.000484591761147
0.000482183729967
0.000472237806215
0.000143773161453
0.000143042250017
0.000140764607941
4.71760962423e-05
4.69183977805e-05
4.6340624459e-05
1.76831635761e-05
1.76110823748e-05
1.74486518155e-05
7.36380465255e-06
7.34181178063e-06
7.28973754547e-06
3.22845501929e-06
3.22345855996e-06
3.20702595934e-06
1.45765748348e-06
1.45595741461e-06
1.45031017997e-06
6.89946265694e-07
6.89504432277e-07
6.87410358707e-07
3.63373602958e-07
3.6297932187e-07
3.61831779989e-07
2.25973472589e-07
2.25558504983e-07
2.2464857832e-07
1.68106235801e-07
1.67727786319e-07
1.66891771806e-07
1.42777243366e-07
1.42395072047e-07
1.4157672168e-07
1.2938405976e-07
1.2902054026e-07
1.28243243897e-07
1.19028577108e-07
1.18698117746e-07
1.17992313485e-07
1.08070041667e-07
1.07777250104e-07
1.07162754382e-07
9.53410782708e-08
9.51039164766e-08
9.4600867706e-08
8.11090122559e-08
8.09261820386e-08
8.05359067431e-08
6.62623381861e-08
6.61288851301e-08
6.58422808478e-08
5.18624271792e-08
5.17724908957e-08
5.15753192551e-08
3.88812965611e-08
3.88196738945e-08
3.86867454491e-08
2.78469626027e-08
2.78076477346e-08
2.7723363498e-08
1.88602948883e-08
1.88380113064e-08
1.87908843565e-08
1.15847892037e-08
1.15748969195e-08
1.15551562461e-08
5.83592858731e-09
5.83473915897e-09
5.83128673419e-09
2.31180713141e-09
2.31261808063e-09
2.31343021963e-09
0.0354745225138
0.0233617580207
0.0150166753154
0.00884398717625
0.00409564575416
0.00149648734277
0.000457091707285
0.000137304554636
4.54493978206e-05
1.7195789839e-05
7.20810703662e-06
3.18054484394e-06
1.44089887025e-06
6.83867177703e-07
3.60015338958e-07
2.23327807348e-07
1.6571627647e-07
1.40437865845e-07
1.27163582086e-07
1.17010924771e-07
1.06308733476e-07
9.38993924561e-08
7.9989412085e-08
6.54384726859e-08
5.12953804833e-08
3.84976113077e-08
2.76027088339e-08
1.87217795908e-08
1.15235970361e-08
5.82260474151e-09
2.31247733023e-09
1.22031456785e-05
3.20210459777e-06
1.02481049154e-06
4.23968490123e-07
2.09972075951e-07
8.14213838596e-08
1.55460749753e-08
0.0307875329772
0.0227038832141
0.0142589525293
0.007224795058
0.00329529670048
0.00141235296384
0.00059621130254
0.00027077216722
0.000140354924944
8.00315819216e-05
4.86720193633e-05
3.05353317611e-05
1.8500749821e-05
6.2352187295e-06
2.14886805776e-06
9.86563082277e-07
5.61927069353e-07
3.32403074056e-07
1.5169187747e-07
3.38656341327e-08
0.0201128208362
0.0144009588204
0.00852099222578
0.0041081941503
0.00185435249881
0.000779013002502
0.000324808270268
0.000149235489051
7.8874830506e-05
4.55555215878e-05
2.77739143691e-05
1.75194360782e-05
1.09699788889e-05
5.03391572202e-06
2.48819081655e-06
1.4257031898e-06
8.5657725812e-07
5.05436428983e-07
2.49246502324e-07
6.34204243985e-08
0.0128538558747
0.00899873301976
0.00508968163345
0.00251320380577
0.00116894929842
0.00052214249951
0.000241484136973
0.000124970383219
7.17997818244e-05
4.37094222538e-05
2.74532718497e-05
1.757105044e-05
1.12696106877e-05
6.62395101328e-06
3.95342705535e-06
2.40435009655e-06
1.38922919911e-06
7.40487201561e-07
3.59084873644e-07
9.92082432362e-08
0.00761387053878
0.00539547441283
0.00322807883827
0.00177081752021
0.000924452093709
0.000478656765174
0.000258640202581
0.000149339987595
9.06259625108e-05
5.64614839403e-05
3.57180361586e-05
2.28357920242e-05
1.46492241317e-05
9.2711029283e-06
5.86653257582e-06
3.60504161213e-06
2.01657438888e-06
9.83957269e-07
4.45015910557e-07
1.25343661928e-07
0.00360644198894
0.00271165148487
0.00180148489295
0.00110620448119
0.00065262508571
0.000383753500385
0.000230964473864
0.000142871369117
8.9980398979e-05
5.73300631582e-05
3.69578379581e-05
2.41006714778e-05
1.58514896904e-05
1.04467917604e-05
6.83770811586e-06
4.27371579008e-06
2.36588832359e-06
1.08993356886e-06
4.7051121895e-07
1.30058065781e-07
0.0013499574553
0.00106749911053
0.000764348476351
0.000511231763834
0.000330102533618
0.000211251587447
0.000135957560645
8.80542948233e-05
5.72571109568e-05
3.75166291559e-05
2.49651769339e-05
1.69538619068e-05
1.17483732741e-05
8.2523302452e-06
5.76242612573e-06
3.79567938592e-06
2.15298708112e-06
9.8285899656e-07
4.25672714546e-07
1.12349833978e-07
0.00042183516586
0.000348078339633
0.000265105976465
0.000190732040602
0.000133034541328
9.1262903015e-05
6.21738406658e-05
4.22061915915e-05
2.86557407637e-05
1.96157010205e-05
1.3658416934e-05
9.72810183921e-06
7.08799394297e-06
5.24122633002e-06
3.84380343276e-06
2.65550318492e-06
1.57960413342e-06
7.65885696213e-07
3.43720352582e-07
8.50911359403e-08
0.00012928962535
0.000110880013567
8.94586125611e-05
6.87212592785e-05
5.13660533402e-05
3.75923880663e-05
2.71202713661e-05
1.93786258011e-05
1.38274827572e-05
9.94458431015e-06
7.26471441322e-06
5.41141902562e-06
4.10010353015e-06
3.12935171495e-06
2.35594691758e-06
1.68017787041e-06
1.05803333705e-06
5.59030629558e-07
2.53993106428e-07
5.84325453891e-08
4.34427827197e-05
3.86240573439e-05
3.28324591695e-05
2.67899199639e-05
2.12520694757e-05
1.64493415104e-05
1.25178805272e-05
9.43636697624e-06
7.10936798814e-06
5.38930286461e-06
4.1284729197e-06
3.19741549104e-06
2.49147408218e-06
1.93565285823e-06
1.4766191222e-06
1.07599904659e-06
7.11889891418e-07
4.0117963759e-07
1.77681260805e-07
3.8267599467e-08
1.66281790626e-05
1.52495290341e-05
1.34983613757e-05
1.1546086228e-05
9.61080153168e-06
7.81026704008e-06
6.2491126052e-06
4.96718540432e-06
3.9502974264e-06
3.15271152643e-06
2.5255837226e-06
2.02563641149e-06
1.61752096156e-06
1.27623280522e-06
9.85445401664e-07
7.31348833677e-07
4.99237668866e-07
2.88453208797e-07
1.2153968145e-07
2.55815862398e-08
7.02543140312e-06
6.58251241478e-06
5.99694323295e-06
5.31585396588e-06
4.60534382679e-06
3.91485423322e-06
3.29069841933e-06
2.75412839846e-06
2.30475514584e-06
1.92819718095e-06
1.60887688164e-06
1.33354018286e-06
1.09179114648e-06
8.77965719973e-07
6.89167119373e-07
5.19775460092e-07
3.60096634996e-07
2.07903662302e-07
8.40140489936e-08
1.86704379803e-08
3.11942696163e-06
2.96923109061e-06
2.76599705844e-06
2.52434536258e-06
2.26482949797e-06
2.00564443245e-06
1.76381141001e-06
1.54744302573e-06
1.35632147216e-06
1.18471544711e-06
1.02657012595e-06
8.77736710196e-07
7.36475035086e-07
6.04081480589e-07
4.82405425413e-07
3.68998080987e-07
2.57521971226e-07
1.48010059964e-07
5.93779117145e-08
1.47875649894e-08
1.41964830768e-06
1.36799176723e-06
1.29774742972e-06
1.21366266918e-06
1.12230159031e-06
1.02987000263e-06
9.41896724481e-07
8.60615385112e-07
7.84976839299e-07
7.11730167579e-07
6.37695074051e-07
5.61075673313e-07
4.81902092451e-07
4.02572361858e-07
3.25972977117e-07
2.51832123828e-07
1.76557890573e-07
1.01764051703e-07
4.20603354968e-08
1.17704640308e-08
6.75764980494e-07
6.56757121102e-07
6.31352044791e-07
6.01362283908e-07
5.69204990945e-07
5.3707041208e-07
5.06585522531e-07
4.77866922351e-07
4.49556495111e-07
4.19370597176e-07
3.85296232656e-07
3.46317020512e-07
3.02718757491e-07
2.56377449679e-07
2.0942377009e-07
1.62413767902e-07
1.14155581939e-07
6.66237592186e-08
2.91134796249e-08
8.88661443081e-09
3.55850080235e-07
3.46991757175e-07
3.35645280316e-07
3.22823372523e-07
3.09764421198e-07
2.97410990933e-07
2.86147567188e-07
2.75433558354e-07
2.63952739243e-07
2.50066824378e-07
2.32543664178e-07
2.1092553585e-07
1.85634822108e-07
1.57946189185e-07
1.29187546951e-07
9.99698797235e-08
7.02535381656e-08
4.17610391073e-08
1.94182721987e-08
6.2120279554e-09
2.20302235292e-07
2.1435806927e-07
2.06999709879e-07
1.99057001832e-07
1.91408547337e-07
1.84608119168e-07
1.78637313031e-07
1.72804661008e-07
1.65987278881e-07
1.57090191091e-07
1.45490756377e-07
1.31173355553e-07
1.14660118717e-07
9.68398135314e-08
7.8549018467e-08
6.02781480596e-08
4.2299644033e-08
2.56870036121e-08
1.26164323374e-08
4.10344586477e-09
1.63076156475e-07
1.5788646435e-07
1.5147414442e-07
1.44592875651e-07
1.37979336414e-07
1.32043330005e-07
1.26657794959e-07
1.21182780999e-07
1.14769956093e-07
1.06779064308e-07
9.70244309791e-08
8.57589326466e-08
7.35186829744e-08
6.09442911765e-08
4.85709677638e-08
3.67323699595e-08
2.56617450032e-08
1.58574906254e-08
8.08839445541e-09
2.63751275141e-09
1.37936500532e-07
1.32968205687e-07
1.26737747114e-07
1.19908435627e-07
1.13117915754e-07
1.06709647942e-07
1.00566133159e-07
9.41916738972e-08
8.7026937952e-08
7.87856722098e-08
6.95647050384e-08
5.97420574837e-08
4.98039235217e-08
4.0205442718e-08
3.12724214943e-08
2.31825844285e-08
1.60313172334e-08
9.9616496142e-09
5.156315862e-09
1.67191149028e-09
1.24804641682e-07
1.20057284431e-07
1.13986385594e-07
1.071431112e-07
1.00068275944e-07
9.30643609309e-08
8.6065737249e-08
7.87402973225e-08
7.07803948858e-08
6.21596415876e-08
5.31524975536e-08
4.4185066539e-08
3.56724597388e-08
2.79229673079e-08
2.11044845593e-08
1.52620294097e-08
1.03682779673e-08
6.38619058049e-09
3.28666840755e-09
1.05324609388e-09
1.14864197279e-07
1.10489461597e-07
1.04788477055e-07
9.81916317265e-08
9.11367832998e-08
8.38823429609e-08
7.64072681697e-08
6.85131520143e-08
6.00839149675e-08
5.12813731267e-08
4.25024135068e-08
3.41953417485e-08
2.67091748441e-08
2.0236244808e-08
1.48237102888e-08
1.0415697481e-08
6.90215123451e-09
4.16453994787e-09
2.10164175616e-09
6.6319696997e-10
1.04436137044e-07
1.00589962015e-07
9.54985144503e-08
8.94769725986e-08
8.28584957116e-08
7.58439493929e-08
6.84247313818e-08
6.04799110131e-08
5.20144168662e-08
4.33228771142e-08
3.49007892836e-08
2.7221085033e-08
2.0583362383e-08
1.50907286068e-08
1.06998641932e-08
7.28399755795e-09
4.68414217599e-09
2.74775066719e-09
1.34992552314e-09
4.19053793196e-10
9.23496896325e-08
8.91396443441e-08
8.48369500473e-08
7.9660699987e-08
7.38473350712e-08
6.7531701269e-08
6.06844312332e-08
5.32012341085e-08
4.51341040486e-08
3.68593776639e-08
2.8960852365e-08
2.19485466852e-08
1.60907387315e-08
1.14238002009e-08
7.83897613202e-09
5.16354609794e-09
3.21375496185e-09
1.82633023234e-09
8.71531136625e-10
2.66208556394e-10
7.87723120774e-08
7.62331095393e-08
7.27983321331e-08
6.86152645615e-08
6.38400013849e-08
5.85447399497e-08
5.26606522317e-08
4.60541527681e-08
3.87576714982e-08
3.11770653727e-08
2.39717677414e-08
1.76978671856e-08
1.26050481229e-08
8.68043551743e-09
5.77128493158e-09
3.68009609877e-09
2.21617323566e-09
1.21930407678e-09
5.65636375081e-10
1.70296920849e-10
6.45321283358e-08
6.26294692264e-08
6.00418909574e-08
5.68658108531e-08
5.31989074612e-08
4.90633244119e-08
4.43512700148e-08
3.88790794621e-08
3.26142491044e-08
2.59437843021e-08
1.95806370852e-08
1.41204080858e-08
9.79647746749e-09
6.56113448255e-09
4.23721734818e-09
2.62146588587e-09
1.53060469727e-09
8.17132347646e-10
3.69382957961e-10
1.09729237833e-10
5.065920912e-08
4.93110495272e-08
4.74736814264e-08
4.52102849196e-08
4.25801662784e-08
3.95715559767e-08
3.60510148567e-08
3.17889283457e-08
2.66740490437e-08
2.10441798603e-08
1.5632937048e-08
1.10466704134e-08
7.49327530017e-09
4.90025981044e-09
3.08626569418e-09
1.85968718369e-09
1.05641786115e-09
5.48705373336e-10
2.42010300444e-10
7.07741308811e-11
3.80696436113e-08
3.71665207004e-08
3.5938567025e-08
3.44283094003e-08
3.26699127343e-08
3.06338450086e-08
2.81766122798e-08
2.50422198829e-08
2.10576945305e-08
1.65072384549e-08
1.21029156229e-08
8.4127230014e-09
5.60507911439e-09
3.59612318904e-09
2.21891412752e-09
1.30748778255e-09
7.24940393006e-10
3.6706304971e-10
1.57942546488e-10
4.52341264454e-11
2.73317527899e-08
2.67640106754e-08
2.59985276947e-08
2.50637833131e-08
2.3978793461e-08
2.27066898699e-08
2.11071872342e-08
1.89210667497e-08
1.59488600215e-08
1.24350945608e-08
9.02407558327e-09
6.19636485774e-09
4.07391905813e-09
2.57590489129e-09
1.56345564936e-09
9.04007455108e-10
4.90391154953e-10
2.42122285755e-10
1.01279818937e-10
2.80692640553e-11
1.85667112264e-08
1.82421919092e-08
1.78119399853e-08
1.72938505511e-08
1.66981059146e-08
1.59871840671e-08
1.50349616514e-08
1.36003361261e-08
1.14903904749e-08
8.92011232422e-09
6.42735453702e-09
4.37825243719e-09
2.85277325772e-09
1.78438913215e-09
1.06852681351e-09
6.07286643052e-10
3.22218558287e-10
1.54603214963e-10
6.23150984226e-11
1.63820750822e-11
1.145253549e-08
1.13034812271e-08
1.11114169177e-08
1.08855292131e-08
1.06300328148e-08
1.03154275872e-08
9.84724180831e-09
9.03039107332e-09
7.68722311701e-09
5.97305423496e-09
4.29628290923e-09
2.91751922363e-09
1.89111563756e-09
1.17290748811e-09
6.93375145407e-10
3.86739358663e-10
1.99804721977e-10
9.23126962854e-11
3.52552148914e-11
8.53170704144e-12
5.80311930714e-09
5.76116380645e-09
5.71004181513e-09
5.65180343252e-09
5.58738873902e-09
5.50164697568e-09
5.35049656221e-09
5.03215667598e-09
4.41102589495e-09
3.5073407978e-09
2.55753932209e-09
1.74822563151e-09
1.13372075039e-09
6.98944253e-10
4.07707872492e-10
2.22333080508e-10
1.10975918478e-10
4.87203671216e-11
1.72625384295e-11
3.73620815576e-12
2.30987082896e-09
2.30369634109e-09
2.29781721142e-09
2.29182337936e-09
2.28594841456e-09
2.2744554194e-09
2.24406465366e-09
2.1618023076e-09
1.96904254751e-09
1.63657849403e-09
1.23859003928e-09
8.68189422221e-10
5.70647170934e-10
3.52627886387e-10
2.03868984184e-10
1.08823026013e-10
5.23522241494e-11
2.17359592091e-11
7.09359565504e-12
1.37366378886e-12
3.48883375396e-09
8.8362237854e-10
8.08195485008e-09
2.04583862102e-09
1.58248746965e-08
3.98110292337e-09
2.55642999913e-08
6.37274488858e-09
3.22504724064e-08
7.85931690701e-09
3.28489628728e-08
7.72111059842e-09
2.73051568226e-08
6.32152835251e-09
1.96901896216e-08
4.62740762758e-09
1.28121107641e-08
3.23882743106e-09
8.07736722689e-09
2.39088766177e-09
5.4748090864e-09
2.02077371232e-09
4.14748103999e-09
1.84790968614e-09
3.00225760985e-09
1.35646916278e-09
1.86138060869e-09
5.23754740331e-10
1.03709856769e-09
1.80551017199e-10
5.60332793878e-10
6.3916109488e-11
3.1528656067e-10
2.65817296799e-11
1.92269204177e-10
1.37178175233e-11
1.26197772667e-10
8.40432320885e-12
8.65482848095e-11
5.63566215379e-12
5.95446386252e-11
3.85648778876e-12
4.07557783846e-11
2.6463538914e-12
2.77440882962e-11
1.80860438186e-12
1.87234840229e-11
1.22853513076e-12
1.25605654277e-11
8.24283143118e-13
8.2431126229e-12
5.41368775683e-13
5.26067492742e-12
3.41946546292e-13
3.15983852836e-12
2.0265876298e-13
1.73346270732e-12
1.0881718293e-13
8.25234322965e-13
5.10041316869e-14
3.31621444013e-13
2.08402843896e-14
1.24681660399e-13
8.30111454264e-15
)
;

boundaryField
{
    inletfuel
    {
        type            fixedValue;
        value           nonuniform 0();
    }
    inletair
    {
        type            fixedValue;
        value           nonuniform 0();
    }
    outlet
    {
        type            zeroGradient;
    }
    axis
    {
        type            empty;
    }
    leftside
    {
        type            zeroGradient;
    }
    burnerwall
    {
        type            zeroGradient;
    }
    front
    {
        type            wedge;
    }
    back
    {
        type            wedge;
    }
    procBoundary1to0
    {
        type            processor;
        value           nonuniform List<scalar> 
27
(
0.060945587776
0.0597755907661
0.057375251255
0.0542266770011
2.89810132363e-05
6.48529657881e-06
1.63893300957e-06
4.29770761085e-07
1.34610188767e-07
4.03010227998e-08
6.65093965969e-09
0.0477704810898
0.0366912173324
0.0248729256939
0.0143199351586
0.00690328843998
0.00316396481553
0.00142866360124
0.000672124130941
0.000350967151199
0.000201915361502
0.000124209091553
7.69592089969e-05
4.40272275376e-05
4.40272275376e-05
1.39585023417e-09
3.4924520219e-10
)
;
    }
}


// ************************************************************************* //
