/*--------------------------------*- C++ -*----------------------------------*\
  =========                 |
  \\      /  F ield         | OpenFOAM: The Open Source CFD Toolbox
   \\    /   O peration     | Website:  https://openfoam.org
    \\  /    A nd           | Version:  7
     \\/     M anipulation  |
\*---------------------------------------------------------------------------*/
FoamFile
{
    version     2.0;
    format      ascii;
    class       volScalarField;
    location    "0.09";
    object      H2O;
}
// * * * * * * * * * * * * * * * * * * * * * * * * * * * * * * * * * * * * * //

dimensions      [0 0 0 0 0 0 0];

internalField   nonuniform List<scalar> 
815
(
0.237711540535
0.237557708548
0.237182829275
0.239498928672
0.239261816542
0.238713363604
0.239931852838
0.239667418071
0.239065297322
0.235470720394
0.235213974054
0.234627876163
0.209665708825
0.209443829637
0.20883234329
0.156314193879
0.156336242244
0.156111439976
0.112299906862
0.112358998245
0.112290925185
0.0885393573059
0.0885262229569
0.0884547455053
0.0757348644102
0.0757051848443
0.0756414395503
0.0669996009661
0.0669833864446
0.0669461726585
0.0594165485789
0.0594136545844
0.0594036354155
0.0520438924975
0.0520566378401
0.052073045424
0.0450142827308
0.0450312449902
0.0450605577498
0.0388013926042
0.0388225883803
0.0388593463504
0.0337799903181
0.03379886331
0.033836011523
0.0299458308735
0.0299616005174
0.029996131024
0.0270731903379
0.0270882631398
0.0271202195367
0.0249034209532
0.0249155149438
0.0249429231235
0.0232034871217
0.0232131928023
0.0232359829652
0.0218132602129
0.0218208550093
0.0218392202752
0.0206281391179
0.0206333200731
0.0206471827542
0.0195752763603
0.0195795162251
0.0195900615995
0.0186161045528
0.0186192502802
0.018626822207
0.0177248522991
0.0177269121499
0.0177317995914
0.0168858598495
0.0168870486828
0.0168896835637
0.0160938706629
0.0160939101192
0.0160941675742
0.0153441321651
0.0153432493191
0.0153414862585
0.014638661294
0.0146370223989
0.0146336117499
0.0139867322562
0.013984381856
0.0139794509341
0.0134031295747
0.0134002518222
0.0133938706733
0.0129278230779
0.0129243913183
0.0129167319718
0.236562667039
0.237871565036
0.238160424526
0.233754229795
0.207896674603
0.155676117841
0.11212155292
0.0883317721275
0.0755397242185
0.0668848481855
0.0593817942319
0.0520884078951
0.0450953061209
0.0389056226284
0.0338845455098
0.0300426338155
0.0271636569546
0.0249807412646
0.0232678299538
0.021865093819
0.020666982163
0.0196050879875
0.0186375455574
0.0177386433162
0.0168932892838
0.0160944683759
0.0153389497986
0.0146286961079
0.0139722906161
0.0133845771791
0.0129057362852
0.0163238402849
0.00793002553623
0.00419749518961
0.00223763695101
0.00104964057803
0.000431357188294
0.000386843586902
0.234992338436
0.230174919687
0.220112192389
0.201035271071
0.16664437847
0.131225151683
0.10266700625
0.0816639065702
0.0662382193737
0.0542953049229
0.0444854007438
0.0360691509787
0.0279393534939
0.0178200670988
0.0112561131382
0.00736293347981
0.00449036207388
0.0022615808321
0.000910186189499
0.000573819747957
0.235844163877
0.230200885692
0.218974418736
0.196896713088
0.164847658032
0.134089727237
0.109097948884
0.0900592292609
0.0754233798143
0.0635354965593
0.0532368292981
0.0438945467156
0.0349882988915
0.0261110621186
0.0193688643464
0.0140144594368
0.00902600983985
0.00469573550407
0.00184087831001
0.000874778216688
0.235977760768
0.230115819956
0.218712963386
0.196481668995
0.169476256599
0.144159723067
0.122966909028
0.106106187243
0.0924055654549
0.0806693248417
0.0700126553312
0.059936736216
0.0502195065676
0.0409823843221
0.0327853500834
0.0250679927277
0.0168566889828
0.00876120215774
0.00330467635705
0.00130836083427
0.231641346627
0.226034325143
0.214869700241
0.196670868638
0.175838775286
0.155881969696
0.138320833087
0.123369637281
0.110484808951
0.0989673347519
0.0882247458812
0.0778690226252
0.0676426449719
0.0577693165269
0.0482511002729
0.0381571564214
0.0263559838799
0.0136243276667
0.0048289018078
0.00178999552947
0.205633578761
0.199888429614
0.19046726314
0.17750951527
0.162828845303
0.148244403282
0.134833405364
0.122877392915
0.112164068773
0.102352012993
0.0931732596826
0.0844246869472
0.0759119706636
0.0674430070647
0.0584783228472
0.0477142108263
0.0334205862541
0.0167452301481
0.00574023834337
0.00225700157056
0.154520985235
0.150955366979
0.14521032684
0.13756147872
0.128828026718
0.119855867883
0.111227848727
0.103092482934
0.0953858876863
0.0880833010561
0.0812673140823
0.0749750815097
0.0690941052812
0.0633007041491
0.0568196770676
0.047836129864
0.0337077559374
0.0163080513739
0.0057813769269
0.00274154465541
0.111625691688
0.109828105615
0.10694746093
0.103062720218
0.0984734528604
0.0933979873434
0.0880667278835
0.082561503011
0.0769488041078
0.0714043940054
0.0661433162091
0.0612823272698
0.0567563975878
0.0522960750215
0.0472229716426
0.0399378613859
0.0280292968218
0.0137521495927
0.00560440926346
0.00343889897647
0.0880190539131
0.0869938313028
0.0854206491364
0.0832220928674
0.0804921003395
0.0772050056058
0.0733965583241
0.0691116492962
0.0644998727683
0.0597934179246
0.0552029374321
0.0508137513836
0.0465593452486
0.0422374840603
0.0373853618096
0.0310164895821
0.0217952203465
0.0115788042553
0.00586339096613
0.00453922357882
0.0753043500593
0.0746386377777
0.0736347884177
0.0721939839003
0.0702847144105
0.0678309041047
0.0648159299168
0.0612730867829
0.0573336888226
0.0531864301895
0.0489901624145
0.0447937308998
0.0405384223041
0.0360977121582
0.0312112809455
0.0254167891454
0.0182535962033
0.0110661600817
0.00705469213294
0.00618109650883
0.0667424423234
0.066338969318
0.0657012398788
0.0647490919701
0.0634155944418
0.0616127807021
0.0592971316758
0.0564766653248
0.0532342402774
0.0497008904249
0.0459854710167
0.0421180312385
0.0380581886449
0.0337347670122
0.0290208199039
0.0237639287017
0.0179280604111
0.0125216671597
0.00935598662575
0.00841124039715
0.059329674419
0.0591442963737
0.058821018623
0.0582955615327
0.0574967653591
0.0563406699896
0.0547677689176
0.0527545939129
0.0503346526599
0.0475803246776
0.044557307984
0.0412862375287
0.037749492528
0.0339088612141
0.0296990135409
0.0250783778261
0.0201616668925
0.015693412511
0.0126912701865
0.0111594267245
0.0521166918372
0.0521119686928
0.0520545260416
0.0518949215347
0.051569603393
0.0510040259795
0.0501354678806
0.0489244069281
0.0473694214861
0.0454988306762
0.0433426575103
0.0409068615312
0.0381761694741
0.0351227776164
0.0317015717869
0.0278941108201
0.0237983640517
0.0198834350593
0.0166571239399
0.0141778036062
0.0451727176373
0.0452928951938
0.045426670337
0.0455355861022
0.045567394883
0.0454598038553
0.0451557128896
0.0446127462338
0.0438141301304
0.0427640639488
0.0414712826582
0.0399300229658
0.0381192530704
0.0360108191017
0.033554838174
0.0307007557356
0.027466586072
0.0240263238231
0.0205237953762
0.0170778171894
0.039008020805
0.0391971538215
0.0394411058046
0.0397104373977
0.0399639783223
0.0401513459779
0.0402241107847
0.0401437222988
0.0398902088034
0.0394589797077
0.0388505869042
0.0380554369866
0.0370512266236
0.0358063522128
0.0342665106949
0.0323506667284
0.0299709161551
0.0270652784507
0.0235271881073
0.0195418241631
0.0339911225564
0.0342062336208
0.0344969804199
0.0348413717047
0.035207628124
0.0355550279014
0.0358426571477
0.0360364389583
0.036116591958
0.036075870084
0.0359123371454
0.0356177173707
0.0351737977183
0.0345501629541
0.0336917577964
0.0325051772384
0.0308459924612
0.0285149771563
0.0252919565384
0.0214371370652
0.0301431014029
0.0303581905804
0.0306559494733
0.0310214342632
0.0314302659084
0.0318493916977
0.0322429755387
0.0325796205452
0.0328387912135
0.0330111206809
0.0330928721827
0.0330777397448
0.0329520676195
0.0326901607295
0.0322429239297
0.0315222522425
0.0303813453744
0.028608335951
0.0259968557267
0.0228402086318
0.0272563969505
0.0274574820205
0.0277399413686
0.0280951421948
0.0285051754135
0.0289433107391
0.0293775697652
0.0297776338314
0.0301211541343
0.0303958379801
0.0305956775812
0.0307152528463
0.0307443914969
0.0306633484288
0.0304339528191
0.0299874267336
0.0292102601845
0.0279472196508
0.0260737598629
0.0238758657435
0.0250626801028
0.0252424161445
0.0254980375486
0.025825783337
0.0262134950693
0.0266402519283
0.027077877132
0.0274969252642
0.0278731326844
0.0281911788942
0.0284429976467
0.0286236590514
0.0287264260332
0.0287385813726
0.0286355204542
0.0283733800553
0.0278825276281
0.0270775159714
0.0259168311098
0.0246575626257
0.0233375835071
0.0234922158767
0.0237148600385
0.0240054531705
0.0243569951059
0.0247543065118
0.0251737501131
0.0255876738341
0.0259707438802
0.0263053024599
0.0265819286669
0.0267965906016
0.0269465999494
0.0270270621501
0.0270272003842
0.0269266503202
0.0266940252093
0.0262992042616
0.0257572139017
0.0252875298138
0.0219223338578
0.0220506268043
0.022237674948
0.0224860250317
0.0227931417155
0.0231495529712
0.0235372726778
0.0239322144422
0.0243096943188
0.0246509430334
0.0249459146728
0.0251919607831
0.0253906976529
0.0255448602433
0.0256558512314
0.0257220091979
0.0257394335912
0.0257131464279
0.0256860280235
0.0258351860253
0.0207118218992
0.0208141715388
0.0209654115945
0.0211696550428
0.0214279135876
0.0217361332908
0.0220829262049
0.0224499145567
0.0228154930213
0.023161503768
0.0234779319582
0.0237635724368
0.024023801083
0.0242677347713
0.024506169781
0.0247504517487
0.0250137824487
0.0253191818662
0.0257167666822
0.0263408518568
0.0196389329395
0.019716938797
0.0198337575782
0.0199943131556
0.0202021355393
0.0204579422812
0.0207573615029
0.0210897626234
0.0214395949207
0.0217916032422
0.0221364946377
0.0224739306338
0.0228116762749
0.0231632025168
0.0235454217952
0.0239773461747
0.0244809520404
0.025085272913
0.0258359489195
0.0268305447862
0.0186615162371
0.018717321979
0.0188021512964
0.018921098807
0.0190792265833
0.0192810969197
0.0195291765578
0.0198221887221
0.020153857925
0.0205146688985
0.0208967596212
0.0212994890781
0.0217309792877
0.0222064958443
0.0227457790223
0.0233711202957
0.0241073497788
0.0249825554265
0.0260320704222
0.0273253847821
0.0177538516598
0.0177897868644
0.0178456501291
0.0179261496557
0.0180371847585
0.0181861538531
0.0183818182444
0.0186332450029
0.0189465109462
0.0193208905992
0.0197504905537
0.020232599477
0.0207733056793
0.0213868632763
0.0220929671699
0.0229138165154
0.0238729024695
0.0249933544583
0.0263011253016
0.027847080352
0.0169009359053
0.0169193830515
0.0169494980104
0.0169953906538
0.0170633671467
0.0171629534931
0.0173086887366
0.01752060223
0.0178196038681
0.0182161251813
0.0187058869065
0.0192816616071
0.0199447667265
0.0207062553139
0.0215835025748
0.0225965412626
0.0237658092839
0.0251098062933
0.0266477538314
0.0284200709526
0.0160950579518
0.0160981336142
0.016105638992
0.0161211351319
0.0161511574146
0.0162072214429
0.0163095497088
0.0164898410712
0.0167852700083
0.0172175479374
0.0177817398845
0.0184635643333
0.0192577969329
0.0201709993683
0.021217296933
0.0224142094812
0.0237794781215
0.0253285470088
0.0270780750565
0.0290648217015
0.0153334034239
0.0153230221167
0.0153108980399
0.0153002082082
0.0152980035522
0.0153181691867
0.015387390377
0.0155502039059
0.0158599761252
0.0163461001701
0.0169986680108
0.0177946382936
0.0187222388402
0.0197837801841
0.0209904662194
0.0223577524084
0.0239021865352
0.0256405481492
0.0275923546617
0.0297967834143
0.0146178255601
0.0145954688659
0.0145661084409
0.0145328370124
0.0145037677077
0.0144959175544
0.0145440219459
0.014707463226
0.0150543834713
0.0156142877795
0.0163661510793
0.0172779187038
0.0183331489476
0.0195315393039
0.0208827359581
0.0224020241025
0.0241081966228
0.0260234959619
0.0281771000372
0.0306156758169
0.0139563558852
0.0139226854612
0.0138772055097
0.0138232245372
0.0137700259725
0.0137380982784
0.0137714040442
0.0139476722056
0.0143512770118
0.0150025613034
0.0158600864956
0.0168829907789
0.0180536258838
0.0193720065045
0.020848647521
0.0225011505936
0.0243532216546
0.0264373677555
0.0287992984346
0.0314951717212
0.0133638185454
0.0133195186963
0.013258790892
0.0131850213807
0.0131081793108
0.0130510999647
0.0130648281433
0.0132448067047
0.013698969452
0.0144437391446
0.015409314243
0.0165395378646
0.0178155450368
0.0192401338786
0.0208270376724
0.0225981440198
0.0245839594099
0.0268282135831
0.0293949335256
0.0323463887946
0.0128810702621
0.0128282658657
0.0127551275257
0.0126649742143
0.0125681290427
0.0124888066921
0.0124818389745
0.0126520730826
0.0131256472588
0.013930111483
0.014982284538
0.0162076661874
0.0175799888536
0.0191009036422
0.0207868143671
0.0226617482153
0.0247625740526
0.0271369588296
0.0298616438485
0.0329956327485
0.00106617576263
0.00151385112242
0.00128127384447
0.00178266707454
0.00154706264942
0.00209652507754
0.00188596050073
0.00248089845925
0.00232375745724
0.00298361709862
0.00290077580116
0.00365715707481
0.00368931754556
0.00456387021903
0.00476988304447
0.00575316141681
0.00621269492795
0.00725143604746
0.0080296735559
0.00903951707043
0.0101607470937
0.0110544651361
0.0125061188015
0.0132117593027
0.0149171938845
0.0154250375533
0.0172172464104
0.017616673752
0.0193330239698
0.0196811205413
0.0212247227179
0.0215615576142
0.0228744994797
0.0232289713443
0.0242679606771
0.0246603624196
0.0254127590852
0.0258561547265
0.0263501163418
0.0268528821139
0.0271387018851
0.0277059465024
0.0278338458432
0.0284684326852
0.0284827230211
0.029186541431
0.0291251279034
0.0298987953437
0.0297929409383
0.0306373433704
0.0305171896521
0.0314276048453
0.0313175721749
0.0322857737013
0.0322067196786
0.0332113084602
0.0331694780732
0.0341749180536
0.0341485556907
0.0351030234386
0.0350137715959
0.0358716875628
0.0355837551597
0.0363532886918
)
;

boundaryField
{
    inletfuel
    {
        type            fixedValue;
        value           nonuniform 0();
    }
    inletair
    {
        type            fixedValue;
        value           nonuniform 0();
    }
    outlet
    {
        type            zeroGradient;
    }
    axis
    {
        type            empty;
    }
    leftside
    {
        type            zeroGradient;
    }
    burnerwall
    {
        type            zeroGradient;
    }
    front
    {
        type            wedge;
    }
    back
    {
        type            wedge;
    }
    procBoundary1to0
    {
        type            processor;
        value           nonuniform List<scalar> 
27
(
0.234470401691
0.234484994258
0.234462259622
0.234327141973
0.0216103154391
0.00816915962615
0.00322943680807
0.00129969362286
0.000509434121804
0.000211823362478
0.000273045829192
0.233792797692
0.231104869607
0.224193693348
0.20979242271
0.182745630351
0.144856383971
0.111828780978
0.0872022387772
0.0695018994809
0.056504433503
0.0466777568061
0.039020350664
0.0309158480516
0.0309158480516
0.000883257327726
0.00127414546208
)
;
    }
}


// ************************************************************************* //
