/*--------------------------------*- C++ -*----------------------------------*\
  =========                 |
  \\      /  F ield         | OpenFOAM: The Open Source CFD Toolbox
   \\    /   O peration     | Website:  https://openfoam.org
    \\  /    A nd           | Version:  7
     \\/     M anipulation  |
\*---------------------------------------------------------------------------*/
FoamFile
{
    version     2.0;
    format      ascii;
    class       volScalarField;
    location    "0.09";
    object      HE;
}
// * * * * * * * * * * * * * * * * * * * * * * * * * * * * * * * * * * * * * //

dimensions      [0 0 0 0 0 0 0];

internalField   nonuniform List<scalar> 
815
(
1.46244006506e-05
1.46374399472e-05
1.46604395306e-05
1.90043042989e-05
1.90057990246e-05
1.90042349578e-05
2.61531987216e-05
2.61608286198e-05
2.61687518816e-05
4.09205810784e-05
4.09129483234e-05
4.09179136752e-05
7.12583649848e-05
7.11710656095e-05
7.11092060608e-05
0.000108918317128
0.000108764063123
0.000108614764606
0.000132997019263
0.000132887925131
0.000132756809851
0.000142916953471
0.000142868097162
0.000142780039507
0.000146528893641
0.000146501922636
0.000146442356622
0.00014777911891
0.00014776541312
0.000147734755235
0.000147842579059
0.000147844056353
0.000147846381284
0.000146960372571
0.000146977749429
0.000147013260125
0.000145238407008
0.000145268367956
0.000145330880729
0.000142877497037
0.000142917274715
0.000142999122586
0.000140129186156
0.000140172191054
0.000140262370442
0.000137136712234
0.000137177915768
0.000137266278754
0.00013390937077
0.000133947730281
0.000134028381727
0.000130394596321
0.000130425449539
0.000130492564821
0.000126491412296
0.000126514807999
0.000126567691871
0.000122110622937
0.000122127444741
0.00012216798884
0.000117184774866
0.000117194100822
0.000117223502259
0.00011163804721
0.000111647047139
0.00011167179615
0.000105467507796
0.000105476231785
0.000105498338425
9.87011170322e-05
9.87093903645e-05
9.87291894393e-05
9.14125997113e-05
9.14210882693e-05
9.14389313599e-05
8.37573301583e-05
8.37616445228e-05
8.37719499664e-05
7.58907705435e-05
7.58909619344e-05
7.5892480941e-05
6.80169634475e-05
6.80131347506e-05
6.8006116291e-05
6.03903179533e-05
6.03821085265e-05
6.0366077102e-05
5.33468787104e-05
5.33354379707e-05
5.33088587311e-05
4.7560430035e-05
4.75434251881e-05
4.75039532528e-05
1.46834333206e-05
1.89983923395e-05
2.61842600365e-05
4.09456160254e-05
7.10818315882e-05
0.0001084818491
0.000132610750571
0.000142664984357
0.000146360429937
0.00014769083425
0.000147847479066
0.000147059757981
0.000145414447432
0.00014310862122
0.000140382788169
0.000137383946089
0.000134134774011
0.000130580602663
0.000126636663025
0.000122220567449
0.000117262061354
0.000111703898409
0.000105526627961
9.87539883507e-05
9.14607117542e-05
8.37837975432e-05
7.58922018754e-05
6.79932122847e-05
6.03392357728e-05
5.32660371385e-05
4.74442837304e-05
1.79073982424e-06
1.50158068196e-06
1.24187471291e-06
1.01569244924e-06
7.79631415448e-07
5.07623705951e-07
2.57100642646e-07
1.47298027055e-05
1.47539543272e-05
1.46766570643e-05
1.44379312364e-05
1.39464962266e-05
1.31431010066e-05
1.20692963449e-05
1.08330153973e-05
9.52900357863e-06
8.2064136615e-06
6.91378901688e-06
5.73362344862e-06
4.72675845045e-06
3.97190166219e-06
3.30579376764e-06
2.64396007603e-06
2.05136678872e-06
1.53048638428e-06
1.02017987307e-06
5.40654932655e-07
1.89965687728e-05
1.90101454423e-05
1.90320605128e-05
1.9068816857e-05
1.89885832914e-05
1.875317225e-05
1.8290587946e-05
1.75650000823e-05
1.657846678e-05
1.53296486435e-05
1.38254040838e-05
1.21557670232e-05
1.04473886399e-05
8.9402963098e-06
7.38649155458e-06
5.72098549072e-06
4.13618289102e-06
2.90282708784e-06
1.92131063905e-06
1.05087592655e-06
2.62454961744e-05
2.65052421426e-05
2.70184567863e-05
2.78387899835e-05
2.88331197241e-05
2.98685292711e-05
3.0635218966e-05
3.09000102159e-05
3.05568252116e-05
2.95333684118e-05
2.77636142073e-05
2.52987777466e-05
2.23263588159e-05
1.91861639888e-05
1.56888253349e-05
1.19123451477e-05
8.18361319586e-06
5.252137803e-06
3.35150071568e-06
1.87138607479e-06
4.10472574843e-05
4.16751385122e-05
4.29073018594e-05
4.48402727203e-05
4.74264793801e-05
5.04320212867e-05
5.31334099888e-05
5.49159199932e-05
5.53966005786e-05
5.44285452414e-05
5.19380764213e-05
4.79314559232e-05
4.24569095102e-05
3.60893821829e-05
2.90737846097e-05
2.15807100387e-05
1.42701187764e-05
8.60615664014e-06
5.29216533562e-06
3.03779494744e-06
7.11053638774e-05
7.19362158462e-05
7.36236685916e-05
7.61901719731e-05
7.94337596584e-05
8.28399666357e-05
8.5555230735e-05
8.68315555606e-05
8.62511021249e-05
8.37002445275e-05
7.91918632757e-05
7.27832751038e-05
6.45775452979e-05
5.4877773553e-05
4.39080821099e-05
3.21862521025e-05
2.08348088943e-05
1.2273476752e-05
7.64335841808e-06
4.62761183002e-06
0.000108277103412
0.000108684914311
0.000109661974768
0.000111081887951
0.000112597740723
0.000113675273426
0.000113662954847
0.000112071813217
0.000108628270317
0.000103238651987
9.59198905762e-05
8.68557308501e-05
7.63108767171e-05
6.45857091207e-05
5.18760117484e-05
3.84503728093e-05
2.52921396726e-05
1.55938960252e-05
1.04763972431e-05
6.89825296378e-06
0.000132332428647
0.000132173575183
0.000132055801487
0.000131833671382
0.000131214477314
0.000129852334492
0.000127314020156
0.000123267412884
0.000117536746504
0.000110088421939
0.000101020051558
9.05314744788e-05
7.88828501845e-05
6.63798695167e-05
5.33575625693e-05
4.02402478851e-05
2.79946020268e-05
1.93901322308e-05
1.44324412624e-05
1.04028742479e-05
0.000142415901772
0.000142012010717
0.000141379339131
0.000140393444835
0.000138805522256
0.000136361837328
0.000132756091368
0.000127721718804
0.000121086742898
0.00011284092835
0.000103121927455
9.21563195332e-05
8.02319001657e-05
6.77263223003e-05
5.51227878759e-05
4.30581296566e-05
3.25363964253e-05
2.53155613828e-05
2.04185501535e-05
1.58139990289e-05
0.000146172672575
0.000145773904874
0.000145101614092
0.000144027822458
0.000142350181353
0.000139838142678
0.000136225823748
0.000131273257254
0.000124820106602
0.000116847817637
0.000107477990793
9.69141092788e-05
8.54326762925e-05
7.34645613487e-05
6.15537737607e-05
5.0456455351e-05
4.11677246594e-05
3.45841301699e-05
2.94594736223e-05
2.37388263866e-05
0.000147586607082
0.000147331477334
0.000146863542612
0.000146056855711
0.000144733156971
0.000142682061538
0.00013966430862
0.000135454972694
0.000129901775988
0.000122972570887
0.00011474240425
0.00010535232599
9.50185282102e-05
8.41559604791e-05
7.32688637895e-05
6.30853145697e-05
5.44621514773e-05
4.79261622994e-05
4.21083126042e-05
3.43475957178e-05
0.000147843898191
0.000147792622277
0.000147618060373
0.000147202841447
0.000146387120112
0.000144982509151
0.000142785488826
0.000139610551652
0.000135324094555
0.000129874530395
0.000123285101238
0.000115640773416
0.0001071261737
9.80402139119e-05
8.87263500171e-05
7.97210778279e-05
7.16855933401e-05
6.49200650706e-05
5.78728328974e-05
4.70314436719e-05
0.000147157459133
0.000147311153138
0.000147425911231
0.000147389214863
0.000147052272148
0.000146246844847
0.000144806590016
0.00014259368783
0.000139519303829
0.000135554374351
0.000130720865672
0.000125079499227
0.000118747673721
0.00011187851227
0.000104624182704
9.72851784284e-05
9.02073860424e-05
8.33476047801e-05
7.47505769433e-05
6.00436050379e-05
0.000145596052066
0.00014591756849
0.000146258028949
0.000146496214779
0.000146478565321
0.000146044361974
0.000145057779382
0.000143435142423
0.000141155931951
0.0001382523464
0.000134786809861
0.000130829347753
0.000126458876619
0.000121748637304
0.000116710105761
0.000111367247057
0.000105718022771
9.9167794531e-05
8.9209799424e-05
7.07091844527e-05
0.000143346354129
0.000143775617709
0.000144244563707
0.000144607904108
0.000144688142562
0.000144313450907
0.00014336515718
0.000141811178646
0.000139708696535
0.000137172139895
0.000134331206789
0.00013129374992
0.000128136941017
0.000124902927825
0.000121566417274
0.000118001932361
0.000113843815168
0.000107965222296
9.73403064901e-05
7.65009334165e-05
0.000140641796863
0.000141109974197
0.000141603891236
0.000141943518215
0.000141912381567
0.000141310613762
0.000140022415326
0.00013805958291
0.000135554412269
0.000132704061713
0.000129707096704
0.000126718313886
0.000123839525436
0.000121119422503
0.000118529625756
0.00011589016161
0.000112650891265
0.000107378929305
9.68820061165e-05
7.59678323519e-05
0.000137632685982
0.00013807745689
0.000138509826548
0.000138713426949
0.00013842658027
0.000137411384094
0.000135542693977
0.000132865370997
0.00012957628798
0.000125943761426
0.000122223224044
0.000118610085812
0.000115232465889
0.00011215505314
0.000109356246299
0.000106643749352
0.000103433836823
9.83298136311e-05
8.84893776733e-05
6.95139068322e-05
0.000134353942098
0.000134731008663
0.000135046561091
0.000135054813032
0.000134452879549
0.000132961724137
0.000130435273769
0.0001269344495
0.00012270375937
0.000118068674478
0.000113331525075
0.000108720921404
0.00010438419845
0.000100395158261
9.67366075373e-05
9.32290822824e-05
8.93556075954e-05
8.39758386741e-05
7.49321545499e-05
5.88730432023e-05
0.000130759025465
0.000131048858227
0.000131231032341
0.000131041008868
0.000130144423158
0.000128222213794
0.000125094291873
0.000120814411429
0.000115653556805
0.000109983831704
0.000104154062554
9.8427717953e-05
9.29711050515e-05
8.78639091735e-05
8.3093062737e-05
7.85059127352e-05
7.36957793296e-05
6.78384224946e-05
5.94853318917e-05
4.63474042929e-05
0.000126774131637
0.000126981464888
0.000127049586509
0.000126707425305
0.000125600029352
0.000123368906767
0.000119783581431
0.000114862721627
0.000108881898086
0.000102255666485
9.53891081044e-05
8.85917268241e-05
8.20572482973e-05
7.58768964904e-05
7.00475433933e-05
6.44513577683e-05
5.87947003632e-05
5.25352134467e-05
4.47956290231e-05
3.41861724539e-05
0.00012232404779
0.000122467870532
0.000122459137032
0.000122031531805
0.000120821344383
0.000118434226741
0.000114575951243
0.000109201645499
0.000102567248644
9.51266242925e-05
8.73556672469e-05
7.96273481827e-05
7.21758226746e-05
6.51130569214e-05
5.84528434994e-05
5.21153156515e-05
4.59058225512e-05
3.95004332511e-05
3.24209374122e-05
2.39384386784e-05
0.000117339681391
0.000117442628683
0.000117396568386
0.000116948900819
0.000115739091783
0.000113345396534
0.000109404179752
0.000103782314723
9.66885973118e-05
8.86099093038e-05
8.01077346257e-05
7.16381626349e-05
6.34888846111e-05
5.57999014871e-05
4.86058160177e-05
4.18625624702e-05
3.54539133246e-05
2.92069897623e-05
2.28921550993e-05
1.61918821091e-05
0.000111766766744
0.000111848224538
0.000111795429173
0.000111376819852
0.000110246330325
0.000107968163115
0.000104113881232
9.84456106037e-05
9.10958386028e-05
8.25721612933e-05
7.3534467092e-05
6.45392443422e-05
5.59359833429e-05
4.78947832011e-05
4.04691187716e-05
3.36421165447e-05
2.73511921692e-05
2.15137567608e-05
1.6032175218e-05
1.07908674446e-05
0.000105580656975
0.000105651859484
0.000105608712452
0.000105245101923
0.000104238604238
0.000102155105194
9.8515671014e-05
9.29744248827e-05
8.55633819435e-05
7.67945585708e-05
6.74323937452e-05
5.81433870712e-05
4.93385011798e-05
4.12122567625e-05
3.3828778007e-05
2.71849496349e-05
2.12454629752e-05
1.59687621718e-05
1.13131053915e-05
7.22976250639e-06
9.88006828085e-05
9.88630582618e-05
9.88305642048e-05
9.85230669594e-05
9.76484591887e-05
9.57885945899e-05
9.24350292813e-05
8.71456172981e-05
7.98421783138e-05
7.10268851238e-05
6.15658502504e-05
5.22288700742e-05
4.34746524997e-05
3.55108007585e-05
2.8399802671e-05
2.21387370552e-05
1.66988479575e-05
1.20469590074e-05
8.14532539912e-06
4.9492012444e-06
9.14989455965e-05
9.1545687834e-05
9.15109488469e-05
9.12392618649e-05
9.04715021674e-05
8.88152763867e-05
8.57542689096e-05
8.07752342601e-05
7.37040730338e-05
6.50320648768e-05
5.57114557353e-05
4.65867630141e-05
3.81375605512e-05
3.05622367217e-05
2.39104280032e-05
1.81687431935e-05
1.33012227562e-05
9.26563620084e-06
6.0122773086e-06
3.48482586568e-06
8.38039062903e-05
8.38210297629e-05
8.37611226596e-05
8.34903005131e-05
8.27800003448e-05
8.12689700312e-05
7.84513219418e-05
7.37781477607e-05
6.70205331569e-05
5.8674424814e-05
4.97448147257e-05
4.10948650907e-05
3.31848584622e-05
2.61855864427e-05
2.0126551613e-05
1.4980624947e-05
1.07025733848e-05
7.24026418111e-06
4.53317294165e-06
2.5136068837e-06
7.58882739553e-05
7.58596496304e-05
7.57484136939e-05
7.54378102025e-05
7.47267007183e-05
7.32857950933e-05
7.06330543134e-05
6.62215222576e-05
5.98264082846e-05
5.19731793337e-05
4.36679520624e-05
3.5722091903e-05
2.85375593074e-05
2.22471499734e-05
1.68613750439e-05
1.23440548209e-05
8.64354986392e-06
5.70164956168e-06
3.45411831072e-06
1.83050499931e-06
6.79617022491e-05
6.78736699865e-05
6.76886059725e-05
6.73033392919e-05
6.65418461325e-05
6.51051815528e-05
6.25429413377e-05
5.83403511866e-05
5.23329055391e-05
4.51003512403e-05
3.75973318066e-05
3.05190367817e-05
2.4181116854e-05
1.86751439838e-05
1.39970946862e-05
1.01066683624e-05
6.95242674376e-06
4.47767288094e-06
2.62166958125e-06
1.31945566707e-06
6.02765252788e-05
6.01199784519e-05
5.98465346559e-05
5.93672465633e-05
5.85307572079e-05
5.70709963758e-05
5.45730534259e-05
5.05588311979e-05
4.49416681149e-05
3.83817715313e-05
3.17611133898e-05
2.56186509242e-05
2.01673182276e-05
1.54570458127e-05
1.14740174151e-05
8.17957345453e-06
5.52847996649e-06
3.47038667442e-06
1.95332669176e-06
9.23022274351e-07
5.31674950122e-05
5.29343156072e-05
5.25612400057e-05
5.19752034989e-05
5.10529088084e-05
4.95708219113e-05
4.71670635107e-05
4.34046449026e-05
3.8220600435e-05
3.23080837158e-05
2.65085584682e-05
2.12386525801e-05
1.66152014651e-05
1.26435650023e-05
9.29884006156e-06
6.54402998762e-06
4.3415394323e-06
2.64994030825e-06
1.4267055455e-06
6.27665531923e-07
4.73074005517e-05
4.6994983282e-05
4.65164256925e-05
4.58121394954e-05
4.47846304724e-05
4.32550206874e-05
4.0930887882e-05
3.7451117623e-05
3.27613809169e-05
2.74775270432e-05
2.23678585897e-05
1.77940979574e-05
1.38280500261e-05
1.04481720991e-05
7.61729177065e-06
5.29891320214e-06
3.45740763756e-06
2.05999888899e-06
1.06785837913e-06
4.42695096346e-07
2.53470611344e-07
3.00448285586e-07
5.02929998844e-07
5.68011701663e-07
9.37429849593e-07
1.02162525745e-06
1.64112264344e-06
1.75670691452e-06
2.71397095182e-06
2.9228026509e-06
4.34205343066e-06
4.76034212544e-06
6.87292286544e-06
7.64363144783e-06
1.0779484323e-05
1.19706371927e-05
1.6480477402e-05
1.79877857892e-05
2.40970915382e-05
2.55778717504e-05
3.32038170582e-05
3.41100495474e-05
4.26189749181e-05
4.23571901678e-05
5.03929623345e-05
4.84684553163e-05
5.46747647647e-05
5.04956429772e-05
5.43352676859e-05
4.80890407888e-05
4.96722927535e-05
4.20989671632e-05
4.2090049499e-05
3.4157363985e-05
3.33983667756e-05
2.59765250241e-05
2.5085444799e-05
1.87728724631e-05
1.8014275786e-05
1.30576590316e-05
1.24804103747e-05
8.83478945922e-06
8.4432703808e-06
5.88109975202e-06
5.65792703522e-06
3.89932630284e-06
3.80953293657e-06
2.60651843055e-06
2.60856589547e-06
1.77217895066e-06
1.82238550211e-06
1.2279424145e-06
1.29216112406e-06
8.61000727892e-07
9.15087087169e-07
6.02252598166e-07
6.3490076507e-07
4.13388005014e-07
4.25098901853e-07
2.76337381344e-07
2.79235229785e-07
1.84509838642e-07
1.96995526508e-07
1.3402315252e-07
)
;

boundaryField
{
    inletfuel
    {
        type            fixedValue;
        value           nonuniform 0();
    }
    inletair
    {
        type            fixedValue;
        value           nonuniform 0();
    }
    outlet
    {
        type            zeroGradient;
    }
    axis
    {
        type            empty;
    }
    leftside
    {
        type            zeroGradient;
    }
    burnerwall
    {
        type            zeroGradient;
    }
    front
    {
        type            wedge;
    }
    back
    {
        type            wedge;
    }
    procBoundary1to0
    {
        type            processor;
        value           nonuniform List<scalar> 
27
(
1.09979614705e-05
1.1036996613e-05
1.11091225976e-05
1.11968617134e-05
8.45358158835e-07
6.91346506407e-07
5.86710189217e-07
4.94437083824e-07
3.80398730949e-07
2.37801814134e-07
1.14730104184e-07
1.136898393e-05
1.15891146538e-05
1.16877240605e-05
1.15368543323e-05
1.10285864725e-05
1.01019620427e-05
8.84210492247e-06
7.45444087693e-06
6.09890836541e-06
4.8542830059e-06
3.77365562616e-06
2.90344322307e-06
2.23564361052e-06
2.23564361052e-06
1.20452989613e-07
1.50250862607e-07
)
;
    }
}


// ************************************************************************* //
