/*--------------------------------*- C++ -*----------------------------------*\
  =========                 |
  \\      /  F ield         | OpenFOAM: The Open Source CFD Toolbox
   \\    /   O peration     | Website:  https://openfoam.org
    \\  /    A nd           | Version:  7
     \\/     M anipulation  |
\*---------------------------------------------------------------------------*/
FoamFile
{
    version     2.0;
    format      ascii;
    class       volScalarField;
    location    "0.09";
    object      k;
}
// * * * * * * * * * * * * * * * * * * * * * * * * * * * * * * * * * * * * * //

dimensions      [0 2 -2 0 0 0 0];

internalField   nonuniform List<scalar> 
815
(
6.51486862855
6.52155006693
6.52426608357
5.59599149876
5.60641515077
5.61986731514
5.29639218218
5.30189919955
5.31221133276
6.18401202074
6.17490364737
6.16379550568
5.82888031583
5.82312837296
5.806002104
3.28263595272
3.29424089266
3.29710788129
1.59846137245
1.60542999182
1.60900021515
1.02892439966
1.02970979193
1.02954051224
0.843958064042
0.843051490515
0.841281933981
0.731748986984
0.730954744932
0.729308368499
0.616844229284
0.61622194801
0.614952765295
0.489841684186
0.489772513541
0.489225767666
0.369368040952
0.369341935666
0.36902021575
0.274855428005
0.274887191307
0.274687768442
0.213325506594
0.213296721106
0.213106303301
0.178290576872
0.178211213465
0.177993546434
0.16023632
0.160145750046
0.159902002776
0.15149695701
0.15139297226
0.151136985985
0.147032996651
0.146922144091
0.14666198865
0.144154920499
0.144026431541
0.143752692234
0.141398376931
0.141297220267
0.141058736534
0.13857903776
0.138474341089
0.138238480159
0.135513737106
0.135406346714
0.135173627511
0.132219798709
0.132112473225
0.131888042084
0.128690812947
0.128584713522
0.128367093404
0.124814424284
0.124714028872
0.124514438922
0.120432984482
0.120339840093
0.120161883017
0.115362600812
0.115280450799
0.115128856171
0.110668899199
0.110600836306
0.110479968216
0.116687903216
0.116623267004
0.116519975211
0.180513138294
0.18038746885
0.180181039207
6.52545401821
5.64322891193
5.33671179461
6.16433653823
5.79376369686
3.29982472512
1.612304261
1.02907197649
0.838840969301
0.726923306862
0.613114109956
0.488309396404
0.368494328071
0.274384543179
0.21286603545
0.177751293491
0.159647351175
0.150867000084
0.146384031375
0.143462429576
0.140785887305
0.137971135352
0.134918344191
0.131650239638
0.128150578144
0.124329720071
0.12001785808
0.115039845532
0.110466392566
0.116540049763
0.180057351605
0.106436840785
0.0762442908529
0.0602155906881
0.0475655668217
0.0372233876678
0.0299014652505
0.0300327912906
6.50473243401
6.3100142728
5.73491067199
4.67926601062
3.2909695988
1.93234455572
1.0239162781
0.578100554608
0.381305073298
0.286407370456
0.231036245683
0.191698468731
0.157630030538
0.115731686634
0.0890075825886
0.0683880502941
0.0511652940383
0.038497153307
0.0307205432711
0.0301302873362
5.69014148339
5.71562020779
5.52176654526
4.89493487958
3.75861696789
2.40240788839
1.39500936498
0.855056412994
0.591700774572
0.449719873495
0.357441157246
0.284779399905
0.223055597853
0.171928392452
0.133318537923
0.0996299637306
0.0684643644946
0.045427019678
0.0330203138962
0.0308536897849
5.40356037943
5.5385700561
5.56102702596
5.19312038161
4.25556773533
3.01037921295
1.99109270595
1.37422591161
1.02123716707
0.795997924461
0.630452123523
0.495419303741
0.383189368371
0.295032275032
0.22666793224
0.169442236459
0.113034407235
0.0636444569421
0.0379248835905
0.0324624806972
6.17932267347
6.2323747134
6.19198313235
5.81106813932
4.923935307
3.75749092454
2.73031710325
2.01818344626
1.54891232493
1.21415895189
0.952135638294
0.737585634016
0.563282399172
0.430651859248
0.33437114599
0.25883541342
0.177889912894
0.0903766060785
0.0436203731257
0.0346383737667
5.77240705804
5.69324894393
5.48626696824
5.01844569456
4.24204518526
3.32931373795
2.52953464018
1.94158928071
1.52225001879
1.20442190624
0.950505521475
0.746003852106
0.585174883662
0.464550132562
0.37890849339
0.312624109548
0.225552789672
0.108249775732
0.0469505438335
0.036822042859
3.29996113866
3.22318371948
3.05580154331
2.7669175288
2.37115041861
1.94499317316
1.56738305413
1.26035822605
1.01003493928
0.8034318163
0.638008308801
0.512263178421
0.421061150546
0.358714170033
0.320288280804
0.289378025385
0.215870153902
0.100819954226
0.0457741371212
0.038556660267
1.61671337705
1.58741366116
1.52256374245
1.41387453982
1.26747773811
1.09852833526
0.924696620284
0.756327320865
0.602979661031
0.475150581088
0.378540980295
0.311334881343
0.267628010634
0.242322791968
0.230971669528
0.219057822284
0.164743325184
0.0809835927922
0.0431141407304
0.0399262692536
1.02749360855
1.01194273151
0.981332188273
0.928653664777
0.852630617156
0.75297906307
0.636131925875
0.513934466874
0.402322469723
0.313814063535
0.251431198186
0.210748803771
0.185765368744
0.172012272936
0.165215353183
0.155035708901
0.117323687829
0.0652380597477
0.0415112002604
0.0413026154616
0.833553728043
0.819073858686
0.794025861127
0.752524871165
0.691256576007
0.609463787957
0.51260207529
0.412130047754
0.322337856597
0.25303336693
0.205201461063
0.173987535704
0.153944963084
0.141048210711
0.131391919253
0.118478368287
0.0910005749131
0.0584717196506
0.0428082608237
0.0435764231588
0.721608623366
0.708754397242
0.687084265805
0.652104803456
0.600895248136
0.533053446609
0.453008384733
0.370039595761
0.295559261558
0.237341517862
0.196157015047
0.168155473943
0.148812110597
0.134595940381
0.122071629152
0.10709183068
0.0847960408047
0.0619210686389
0.0489430787736
0.048326475363
0.609118528565
0.599659789017
0.583599527932
0.557547575345
0.519172402409
0.468066329913
0.407210331008
0.343111050474
0.284013051182
0.236007034106
0.200452240074
0.175097265692
0.156706747226
0.142321985161
0.129068980113
0.114079952733
0.0949311974148
0.0760778907454
0.0621649738559
0.0577195034782
0.486194640277
0.480701678963
0.470859377673
0.454275527924
0.429212479372
0.39519405032
0.353915573016
0.309408333364
0.267048248583
0.231264077656
0.203688759375
0.183347524304
0.168235109947
0.156220274467
0.145045477077
0.132505267571
0.116882064727
0.100211990712
0.0837003610629
0.0732941234146
0.36748981013
0.364919616966
0.359858992924
0.350699401364
0.336299654354
0.316303137412
0.291648679319
0.264657627762
0.23852227641
0.216063626601
0.198609567262
0.185847091717
0.176655143549
0.169683821094
0.163238688064
0.155581476759
0.145047888189
0.131129635226
0.11218523717
0.09484968842
0.273907060332
0.272856569227
0.270455375156
0.265702321388
0.258003896321
0.247302950621
0.234290496394
0.22035820897
0.207282952833
0.196587012388
0.188997324478
0.184332944875
0.181917252436
0.180882620273
0.18007861202
0.17821203106
0.17349491498
0.163535100759
0.144232431394
0.122173029665
0.212517038566
0.212038142294
0.210809654978
0.208248122898
0.20419365279
0.198939844985
0.193227817433
0.188037225447
0.184310430857
0.182648262399
0.183162059159
0.185500397482
0.189075105873
0.193209484519
0.197136005883
0.199926060448
0.20006068261
0.194149878656
0.176848620898
0.156520324518
0.177402162295
0.177093793303
0.17634380633
0.174837508524
0.172727568497
0.17062663745
0.169439159933
0.170007040714
0.172814620609
0.177854669161
0.184731222709
0.192827774352
0.201445682366
0.209885558422
0.217510797118
0.223604345903
0.226958454837
0.224526435425
0.211390660668
0.200652304112
0.159293936296
0.159041055299
0.158517446739
0.157564233317
0.156538983277
0.156301257288
0.157953077173
0.162363624043
0.169825856134
0.179983647239
0.192079540481
0.205241704545
0.218581099344
0.23125354285
0.242563888137
0.251877225896
0.258266808861
0.259594099922
0.252602858497
0.256144991201
0.150502416509
0.150276552081
0.149880778238
0.149223951485
0.148768380562
0.149540509781
0.152848192509
0.159731284201
0.170527966287
0.18478081708
0.201541499661
0.219738121543
0.238268544784
0.256086490889
0.272331680091
0.286298200506
0.297182032971
0.303589981548
0.303964225524
0.32102590843
0.146008104942
0.145804598956
0.145481815402
0.14494087803
0.144653740933
0.145735115869
0.149706234022
0.15793050064
0.171039882213
0.188738119755
0.210089084686
0.233896877633
0.258838824364
0.283622635874
0.307113173651
0.32831845952
0.346197858318
0.359337220488
0.366589155046
0.391032952638
0.143067073162
0.142881811196
0.142591100385
0.14203013742
0.14160205938
0.142431482508
0.146242537796
0.154848853853
0.169438489131
0.190178759901
0.216380218234
0.246817863161
0.279945052985
0.314149695797
0.347856630093
0.379476085975
0.407146061783
0.428282170394
0.44015843654
0.462610869516
0.140406089165
0.140253889208
0.139978555808
0.139321896596
0.138561201679
0.138754859172
0.141787859389
0.149997268992
0.165383596322
0.188927031546
0.220461746807
0.258848098839
0.302294363094
0.34873012398
0.395884319123
0.4411271365
0.480994886585
0.510453758097
0.52321619665
0.533916716117
0.137600712711
0.137495339934
0.137246418107
0.136482978338
0.135321729704
0.134687628978
0.136554129677
0.143793795437
0.159444020525
0.185688493626
0.223208464432
0.271071101421
0.327163965126
0.388713828113
0.452376516281
0.513911348646
0.567374279411
0.604213785625
0.613183134693
0.603957904589
0.134575605246
0.134548469643
0.134359075989
0.133526273868
0.131995593419
0.13051423528
0.13106151367
0.137011113227
0.152611011527
0.181652909279
0.226021314543
0.285072067555
0.356177262052
0.435479663655
0.518063698205
0.597415881826
0.664386019641
0.706152531986
0.70644658898
0.671875269508
0.131350082953
0.131428804247
0.131339170051
0.130501782981
0.12870033964
0.126490314777
0.125797510599
0.130452650635
0.14604923079
0.178355566869
0.230763907685
0.302874779468
0.391196975506
0.490259234594
0.593006080675
0.690024201518
0.768566675837
0.811345288465
0.798431351276
0.735993660258
0.127906731402
0.128115441345
0.12816141568
0.127388339293
0.125447687865
0.122725151089
0.121094042627
0.124852088732
0.141078154811
0.177782466388
0.23993649041
0.32703912799
0.434151160487
0.553694224898
0.676007162382
0.7885544642
0.874975711048
0.914210105087
0.884059343114
0.792791451552
0.1241622654
0.124518401876
0.1247228327
0.124072657865
0.122130323292
0.119177503757
0.11712076986
0.120844346659
0.139076482447
0.182092482909
0.25603999915
0.359629539237
0.485909091604
0.624859374592
0.764106566172
0.888098767559
0.977281274278
1.00794494197
0.956646551108
0.836345895184
0.119948023194
0.120462516322
0.120837426668
0.120356526957
0.118549516737
0.115691213267
0.113884455005
0.11884583204
0.141124168817
0.192892142408
0.280501039249
0.400988134657
0.545043644007
0.700179996082
0.851525617184
0.980912591133
1.06657776925
1.08300055286
1.00672022488
0.857826538273
0.115103494624
0.115784160394
0.116325046985
0.116034790831
0.11446851192
0.11199893124
0.111122937889
0.118709562643
0.147238399406
0.209949794959
0.311933593882
0.447711530689
0.605611818668
0.771020966903
0.927149678319
1.05405271512
1.12872225892
1.12485923481
1.02088272161
0.846193573372
0.110692156605
0.111472783028
0.112072649997
0.111862142556
0.110455637811
0.108368296849
0.10855461131
0.119198547309
0.154777075762
0.228634673229
0.342986116336
0.489249506326
0.653792773844
0.820541618728
0.97170090032
1.08652216195
1.14223587313
1.11386229881
0.98441583431
0.79426378847
0.116755157155
0.117255896491
0.117443178448
0.116775636929
0.114940342799
0.112534687091
0.11267361441
0.124178966342
0.162971557613
0.242574706287
0.362072239992
0.509378943718
0.669220377784
0.824842105148
0.958876971526
1.05139638139
1.0828945519
1.03310894722
0.893913681683
0.715186728021
0.179883336295
0.179456742177
0.178408263011
0.176348198239
0.173062140342
0.169160326856
0.167438553241
0.17584226819
0.209067265269
0.279738830958
0.385882092174
0.514148851453
0.648968762689
0.774723741728
0.87657792508
0.939255133672
0.949752203083
0.897885529875
0.784914169299
0.662503508821
0.0410583091708
0.0230513167066
0.0405994043142
0.0235987114618
0.0407455221379
0.0244815707628
0.0418986685192
0.0256744094854
0.0442242225831
0.0269770041838
0.0474811571879
0.0283334196185
0.0513981986215
0.0297871809828
0.055504176402
0.0315909739173
0.0596606456152
0.0341357243961
0.0643302260408
0.0384899309778
0.0708062450165
0.0470561758098
0.0816912096584
0.065381205665
0.0992004083484
0.109626573762
0.119316364153
0.249940739658
0.14037498612
0.34798422154
0.164094040941
0.415826006695
0.190682712937
0.471588257237
0.219015181439
0.525629118453
0.249303089528
0.582180890255
0.282211784961
0.641455296081
0.317370514364
0.702501073838
0.354550350817
0.764011800378
0.393360477511
0.825261264173
0.432613385888
0.885565590356
0.470969980952
0.944303188772
0.504960654065
0.999744085295
0.531423396814
1.05022902454
0.545202587843
1.09316593321
0.544263325049
1.12740173658
0.533498200163
1.15283227622
0.536032070863
1.17111493459
0.590766059938
1.18737291631
)
;

boundaryField
{
    inletfuel
    {
        type            turbulentIntensityKineticEnergyInlet;
        intensity       0.05;
        value           nonuniform 0();
    }
    inletair
    {
        type            turbulentIntensityKineticEnergyInlet;
        intensity       0.05;
        value           nonuniform 0();
    }
    outlet
    {
        type            inletOutlet;
        inletValue      uniform 1;
        value           nonuniform List<scalar> 
26
(
0.180513138294
0.18038746885
0.180181039207
0.180057351605
0.179883336295
0.179456742177
0.178408263011
0.176348198239
0.173062140342
0.169160326856
0.167438553241
0.17584226819
0.209067265269
0.279738830958
0.385882092174
0.514148851453
0.648968762689
0.774723741728
0.87657792508
0.939255133672
0.949752203083
0.897885529875
0.784914169299
0.662503508821
0.590766059938
1.18737291631
)
;
    }
    axis
    {
        type            empty;
    }
    leftside
    {
        type            kqRWallFunction;
        value           nonuniform List<scalar> 
32
(
0.0230513167066
0.0235987114618
0.0244815707628
0.0256744094854
0.0269770041838
0.0283334196185
0.0297871809828
0.0315909739173
0.0341357243961
0.0384899309778
0.0470561758098
0.065381205665
0.109626573762
0.249940739658
0.34798422154
0.415826006695
0.471588257237
0.525629118453
0.582180890255
0.641455296081
0.702501073838
0.764011800378
0.825261264173
0.885565590356
0.944303188772
0.999744085295
1.05022902454
1.09316593321
1.12740173658
1.15283227622
1.17111493459
1.18737291631
)
;
    }
    burnerwall
    {
        type            kqRWallFunction;
        value           nonuniform 0();
    }
    front
    {
        type            wedge;
    }
    back
    {
        type            wedge;
    }
    procBoundary1to0
    {
        type            processor;
        value           nonuniform List<scalar> 
27
(
7.66166413785
7.66606547984
7.66492005061
7.65425813671
0.13188769527
0.0768198352994
0.0597319232999
0.0487235695883
0.0380746464378
0.0297261817134
0.0303142325999
7.5968486486
7.26629867169
6.44203103064
5.06285310351
3.41362244962
1.96850021236
1.03071761566
0.561721561338
0.354406214882
0.260843817254
0.215337367911
0.193516595768
0.171623225356
0.171623225356
0.0416924673253
0.0228348613691
)
;
    }
}


// ************************************************************************* //
