/*--------------------------------*- C++ -*----------------------------------*\
  =========                 |
  \\      /  F ield         | OpenFOAM: The Open Source CFD Toolbox
   \\    /   O peration     | Website:  https://openfoam.org
    \\  /    A nd           | Version:  7
     \\/     M anipulation  |
\*---------------------------------------------------------------------------*/
FoamFile
{
    version     2.0;
    format      ascii;
    class       volScalarField;
    location    "0.09";
    object      N2;
}
// * * * * * * * * * * * * * * * * * * * * * * * * * * * * * * * * * * * * * //

dimensions      [0 0 0 0 0 0 0];

internalField   nonuniform List<scalar> 
815
(
0.71659149005
0.71724131055
0.718602366301
0.726896865871
0.72735074292
0.72830561025
0.734143374842
0.734444529965
0.735079450929
0.739953946179
0.740124830974
0.740498458
0.746285666439
0.746355988951
0.746532282697
0.752988020887
0.752999103252
0.753054603735
0.757560247611
0.757558357142
0.75757348992
0.759824452176
0.759826832185
0.759835757362
0.760975858551
0.760979017031
0.760985667471
0.761730448874
0.761732191257
0.761736064754
0.762372597789
0.762373070713
0.762374357943
0.762993580032
0.762992627302
0.762991460913
0.763586567827
0.763585172363
0.763582735075
0.764113036057
0.764111215293
0.764108014118
0.764541276694
0.764539608428
0.764536288892
0.764871080482
0.764869653181
0.764866512886
0.765121082043
0.765119703467
0.765116767048
0.765312930271
0.765311810635
0.765309270421
0.765466357599
0.76546545265
0.765463327445
0.765595004925
0.765594293924
0.765592572808
0.765707820698
0.765707335577
0.765706030345
0.765811120671
0.765810720834
0.765809719644
0.765908156073
0.765907855337
0.765907126059
0.766001034715
0.766000832697
0.76600034964
0.766090908053
0.766090783836
0.766090507247
0.766177848698
0.766177835795
0.766177787471
0.766261891943
0.766261969485
0.766262119016
0.766342371771
0.76634252434
0.766342836995
0.766417864663
0.766418089328
0.766418555142
0.766486232951
0.766486510839
0.766487127854
0.766542215258
0.766542554046
0.76654331274
0.720405051975
0.729577854259
0.735938141762
0.741011730399
0.746784532608
0.753144062441
0.75760167013
0.759850316249
0.760996062467
0.761742270975
0.762376819123
0.762990470591
0.76357985706
0.764103976827
0.764531943097
0.764862279931
0.765112774309
0.76530576685
0.765460360869
0.765590151556
0.76570416884
0.765808295692
0.7659060961
0.765999676381
0.766090131791
0.766177728675
0.766262337956
0.766343292542
0.766419238813
0.766488035643
0.766544408535
0.766568728666
0.767309184742
0.767635308237
0.767805061571
0.767907198812
0.767959243575
0.767957980452
0.724127443107
0.730724675199
0.738039731404
0.745039996632
0.750986229595
0.755504970261
0.758622713427
0.760704266807
0.762146686889
0.76322890083
0.764100838354
0.764840342339
0.765553635923
0.76645127737
0.767023131757
0.767360697747
0.767608929982
0.76780088705
0.767916004605
0.767938998362
0.732239496953
0.737095471723
0.742554982716
0.747819696638
0.75229787914
0.755784777153
0.758300665983
0.760085124541
0.76140581383
0.762459280163
0.763362970335
0.764178281591
0.764954463374
0.76573127478
0.766317132905
0.766782043091
0.767214362213
0.767588335345
0.767833097249
0.767909393779
0.737782897236
0.741239499418
0.745211200964
0.749090277959
0.752440303489
0.755117113606
0.757158512803
0.758700416236
0.759922080938
0.760956572198
0.761890671385
0.762771548318
0.763620308802
0.764427570993
0.765143381742
0.765817141242
0.766532041003
0.767233527304
0.767703210377
0.767867248161
0.742136563485
0.744317870278
0.746935424621
0.74961069874
0.752043866436
0.754095055719
0.755767772049
0.757133446798
0.758286352894
0.759307041805
0.760255035335
0.761167712642
0.762069303385
0.762940301352
0.763779960714
0.76466840527
0.765701304373
0.766807768721
0.767566711548
0.767819227685
0.74735562016
0.748534196516
0.750037650537
0.751677595632
0.753278747018
0.754730053487
0.755993946932
0.757087905273
0.758053954158
0.758932942666
0.759753539922
0.760536264841
0.761299392865
0.762059614412
0.762863096763
0.763820767913
0.765078330704
0.766530295684
0.767480745078
0.767769728332
0.753359611688
0.75388339453
0.754608299244
0.755457312721
0.75634452267
0.757206442811
0.758009340353
0.75875419239
0.759454860357
0.760117903622
0.760738630229
0.761314918977
0.761856700691
0.762391521641
0.762985699122
0.763794489275
0.765041960045
0.766557851536
0.767466506616
0.767714793923
0.757674928192
0.75788860348
0.758202523031
0.758597033598
0.759041202237
0.75951789206
0.760010991419
0.760516891821
0.761032015733
0.761542340497
0.76202980776
0.762484334266
0.7629110863
0.763332463971
0.763805776559
0.764467135435
0.765520697883
0.766764441438
0.767466452252
0.76763654948
0.75988596632
0.759991685882
0.760148184741
0.760359763834
0.760617057653
0.760922731673
0.761274619825
0.761669744151
0.762095762482
0.762532772356
0.762962354369
0.763376598179
0.763780361938
0.764189775598
0.764642989173
0.765222740716
0.76604066243
0.766931468518
0.767422676827
0.76751765685
0.76101986995
0.761084326147
0.761180294135
0.76131608081
0.761494368926
0.761722010645
0.762000886494
0.762328551302
0.762693959452
0.763080804724
0.763475014183
0.763871728757
0.764275013738
0.764694153009
0.765149558617
0.765678401637
0.766317043906
0.766946359224
0.767290786606
0.767345668391
0.761756547966
0.761795325658
0.76185602292
0.76194573369
0.762070491507
0.762238197979
0.76245303738
0.762714750484
0.763016483398
0.763346964726
0.763696581409
0.764062275406
0.764446690284
0.764854304701
0.765294118701
0.765776563766
0.766301611225
0.766779649839
0.767053845223
0.767116539197
0.762382578898
0.76240105487
0.762432613685
0.762483035154
0.76255875208
0.762667328802
0.762814298191
0.763002082341
0.763228148689
0.763486472605
0.763771436187
0.764081045727
0.764416086159
0.764778676277
0.765173110741
0.765600773576
0.766048933591
0.766450838588
0.766717213097
0.76683682017
0.762988755088
0.762990537135
0.762997583221
0.763014368899
0.763046631533
0.763101082832
0.763183464853
0.76329753032
0.763443749173
0.763619978774
0.763823826751
0.764054781146
0.76431380418
0.764602870053
0.76492541733
0.765281702337
0.765661239118
0.766021483413
0.766316689065
0.766529049024
0.7635734353
0.763563521846
0.76355275734
0.763544628595
0.763543847368
0.763556007087
0.763586273118
0.763638547118
0.763714543423
0.763814180158
0.763936970671
0.764083589202
0.76425583855
0.764456281416
0.764689644334
0.764960388834
0.765266027385
0.765590668592
0.765919823067
0.766228465894
0.764095032469
0.764078455748
0.764057170994
0.764033857915
0.764012234984
0.763996812119
0.763991917015
0.764001011544
0.764025977428
0.764067418269
0.764125551628
0.764201486786
0.764297423855
0.764416610297
0.764564602934
0.764749472877
0.764979510775
0.765260362374
0.765599162345
0.765963724922
0.764522388271
0.764503084283
0.764477076173
0.764446388721
0.764413910918
0.764383280154
0.764358103466
0.764341360758
0.764334816972
0.764339228078
0.764354993862
0.764383152221
0.764425710172
0.764485989431
0.764569791707
0.764686613207
0.764850491528
0.765079899763
0.765391763619
0.765746950982
0.764853118649
0.764833547355
0.764806554421
0.76477355565
0.764736795077
0.764699224995
0.764663960626
0.764633673716
0.764610111454
0.764594146859
0.764586295072
0.764587422547
0.764599181116
0.764624492981
0.764668613295
0.764740531732
0.764854526822
0.76503009673
0.765282906058
0.765572401572
0.765104235238
0.765085777469
0.765059969205
0.765027682574
0.764990601764
0.764951118359
0.764911974472
0.764875684395
0.764844078581
0.764818218575
0.764798766612
0.76478647655
0.76478265776
0.764789621885
0.764811492102
0.76485527481
0.764931933382
0.765055485815
0.765234444839
0.765431514935
0.765298173398
0.765281582419
0.765258120043
0.765228237598
0.765193121781
0.765154651919
0.765115209912
0.765077174444
0.765042463234
0.765012321756
0.764987522317
0.764968711508
0.764956814782
0.764953387253
0.764961126788
0.764984490506
0.765030104576
0.765105363546
0.765211672238
0.765317166984
0.765453867268
0.765439537252
0.765419045681
0.765392522429
0.765360708101
0.765324980523
0.765287304511
0.765249842654
0.765214511558
0.765182656646
0.765155076551
0.765132256924
0.765114670786
0.765103042215
0.76509863448
0.765103527037
0.765120603054
0.765152084934
0.765194707952
0.765222479161
0.765584801527
0.765572870023
0.765555616693
0.765532942902
0.765505203583
0.765473283795
0.765438643304
0.765403075444
0.765368329085
0.765335714982
0.765305973272
0.765279380097
0.765255942206
0.765235595079
0.765218363072
0.765204460601
0.765194115775
0.76518633444
0.76517576387
0.765142198772
0.765699958541
0.765690397748
0.765676408301
0.765657753398
0.765634482378
0.765607017964
0.765576242531
0.765543398847
0.765509841999
0.765476668422
0.765444483196
0.765413350995
0.765382883322
0.765352375333
0.765320916244
0.765287444743
0.765250564886
0.765207698486
0.76515322174
0.765072228915
0.765805094532
0.765797759062
0.765786905196
0.765772221493
0.765753540342
0.765730880777
0.765704520455
0.765674982599
0.765642958265
0.765609099792
0.765573799046
0.76553697153
0.765497985063
0.765455713138
0.765408649788
0.765354994701
0.765292538737
0.765218242183
0.765127200299
0.765008766753
0.765903800962
0.765898496311
0.765890556608
0.76587964907
0.765865472353
0.765847720115
0.765826084157
0.765800234064
0.765769906962
0.76573503602
0.765695726852
0.765651870228
0.76560280478
0.765547244543
0.765483416639
0.765409210274
0.765322166198
0.765219416375
0.765097252696
0.76494813989
0.765998187761
0.765994708487
0.765989415987
0.765982003982
0.765972091423
0.765959127008
0.765942256439
0.765920205091
0.765891475069
0.765854995191
0.765810545347
0.765758184659
0.76569746882
0.765627231707
0.765545711558
0.765450810922
0.765340221173
0.765211615067
0.765062294435
0.764886728233
0.766089343244
0.766087485621
0.766084566737
0.766080322628
0.766074321623
0.766065815394
0.766053426146
0.766034855849
0.76600713144
0.7659679724
0.7659169128
0.765854459074
0.765780667873
0.765694701053
0.765595022087
0.76547973889
0.765346844642
0.765194482102
0.765020649266
0.76482092088
0.766177611396
0.766177204307
0.766176402558
0.766174976429
0.766172451107
0.766167870621
0.766159303434
0.766143314163
0.766115298222
0.766071802856
0.766012426117
0.765938423343
0.765850530579
0.765748349993
0.765630644931
0.765495745013
0.765341890518
0.765167514604
0.764970858236
0.764747864954
0.766262817433
0.766263710342
0.766264786636
0.766265833231
0.766266294105
0.766264944355
0.766259175948
0.766244239847
0.766213881798
0.766163906963
0.766094517087
0.766007932297
0.765905559095
0.765787395089
0.765652453884
0.765499230878
0.76532604551
0.765131140553
0.764912406916
0.76466549603
0.766344300574
0.766346380925
0.766349148841
0.766352377788
0.766355367377
0.766356527511
0.766352370544
0.766336568919
0.766301336217
0.766242579212
0.766161828396
0.766062325132
0.76594594205
0.765812888489
0.76566227694
0.765492560942
0.765301763726
0.765087484781
0.764846513842
0.764573653698
0.7664207615
0.766423993205
0.76642838797
0.766433675521
0.766438998388
0.766442355333
0.7664392309
0.76642131049
0.766379090587
0.766309581967
0.766216678972
0.766104643266
0.765975446488
0.765829196771
0.765664845987
0.76548053801
0.765273709645
0.765040787391
0.764776696939
0.764475172581
0.766490065299
0.766494415047
0.766500401976
0.766507727878
0.766515430327
0.76652121281
0.766519749236
0.76650078905
0.766452317145
0.766371871162
0.766266547997
0.766142334918
0.766001321554
0.765843263778
0.765666709124
0.765469284793
0.765247639011
0.764996923873
0.76471000474
0.764379927186
0.766546870056
0.766552155363
0.766559494993
0.766568580736
0.766578383694
0.766586417049
0.76658689168
0.766568501261
0.766517296613
0.76642972028
0.766314409772
0.766179378524
0.766027513358
0.765858669231
0.765671068915
0.765462077029
0.765227613205
0.764962376321
0.764657803103
0.764307302509
0.767881002957
0.767830672419
0.767857396862
0.767800657296
0.767828756088
0.767765906911
0.767792582538
0.767723560162
0.767745309765
0.767668204649
0.767682113327
0.767594208838
0.767595483405
0.767495357672
0.767478122861
0.767367224335
0.767323846054
0.76720784399
0.767132354679
0.767019728575
0.766910094165
0.766809146164
0.766665836419
0.766583151043
0.766411477422
0.766347113541
0.766162391562
0.766105242925
0.765924419672
0.765869329117
0.765703273611
0.765647980328
0.765504319056
0.765447793715
0.765332832969
0.765274374574
0.765190581086
0.7651295202
0.765074232004
0.765009688897
0.764977465756
0.76490843826
0.76489380321
0.764819309649
0.764817401366
0.764736580246
0.764743200998
0.764655468577
0.764667127868
0.764572023888
0.764585337201
0.764483160323
0.764495381483
0.76438691213
0.764395697266
0.764283247036
0.764287891299
0.764175387644
0.764178320381
0.76407153401
0.764081516164
0.763985533459
0.764017750552
0.763931653967
)
;

boundaryField
{
    inletfuel
    {
        type            fixedValue;
        value           nonuniform 0();
    }
    inletair
    {
        type            fixedValue;
        value           nonuniform 0();
    }
    outlet
    {
        type            zeroGradient;
    }
    axis
    {
        type            empty;
    }
    leftside
    {
        type            zeroGradient;
    }
    burnerwall
    {
        type            zeroGradient;
    }
    front
    {
        type            wedge;
    }
    back
    {
        type            wedge;
    }
    procBoundary1to0
    {
        type            processor;
        value           nonuniform List<scalar> 
27
(
0.701022894074
0.701919515994
0.703763836354
0.706192318793
0.76611891228
0.767291526612
0.767719875693
0.767886672219
0.767954665217
0.767979402604
0.767969909047
0.711194523427
0.719932330484
0.72960094332
0.738942338574
0.746964520254
0.753096386379
0.757271599621
0.75997282483
0.761744032736
0.762978474397
0.763885160495
0.764581496114
0.765304566646
0.765304566646
0.767901189059
0.767857317693
)
;
    }
}


// ************************************************************************* //
