/*--------------------------------*- C++ -*----------------------------------*\
  =========                 |
  \\      /  F ield         | OpenFOAM: The Open Source CFD Toolbox
   \\    /   O peration     | Website:  https://openfoam.org
    \\  /    A nd           | Version:  7
     \\/     M anipulation  |
\*---------------------------------------------------------------------------*/
FoamFile
{
    version     2.0;
    format      ascii;
    class       volScalarField;
    location    "0.09";
    object      nut;
}
// * * * * * * * * * * * * * * * * * * * * * * * * * * * * * * * * * * * * * //

dimensions      [0 2 -1 0 0 0 0];

internalField   nonuniform List<scalar> 
815
(
0.00194963208201
0.00195498013601
0.00196446180539
0.00194014533582
0.0019451168841
0.0019542999205
0.00207628326603
0.00207960964465
0.00208602472146
0.0024649232705
0.00246426565681
0.00246397134673
0.00240551522716
0.00240422903439
0.00240110063027
0.00159873637001
0.00160119403871
0.0016027216246
0.00107648008609
0.00107645730526
0.0010765820661
0.00102475082502
0.00102252357336
0.00101956174363
0.00106056221745
0.00105863763403
0.00105498889977
0.00101263631044
0.0010112717908
0.00100844316776
0.000901771727371
0.000900816629179
0.000898866428546
0.000758542997316
0.000758186220243
0.00075725870946
0.000616700345812
0.00061648827272
0.000615970679962
0.000506426333725
0.000506324091688
0.000506007072448
0.000442496306054
0.000442355575881
0.000442040583397
0.000420907219975
0.000420717832759
0.000420333780774
0.000429742073198
0.00042950003709
0.000429026414314
0.000455973801403
0.000455722115629
0.000455196954767
0.000489093934219
0.000488835595181
0.000488272062153
0.000522050092595
0.000521761580235
0.000521138128294
0.000550326588511
0.000550096015338
0.000549510555772
0.00057279229061
0.00057250841471
0.000571875863883
0.000588615513885
0.000588303446466
0.000587639188078
0.000597978939814
0.000597661970861
0.000596998330526
0.000601097568275
0.000600787364121
0.000600137701721
0.000596988392309
0.000596715298111
0.00059613639005
0.000579944806351
0.000579737276548
0.00057929916352
0.000525578525176
0.000525515542521
0.000525408400215
0.000379688817076
0.000379777530278
0.000380085374859
0.000203964757902
0.000204024973647
0.000204214789741
0.00016434606979
0.000164319702745
0.000164293370468
0.00197569624993
0.00196676046255
0.00209597189754
0.00246526110915
0.00239758430651
0.00160343955709
0.00107638457443
0.00101592227729
0.00105023141142
0.00100444763239
0.000896013182622
0.00075573293949
0.000615104180166
0.000505476533513
0.000441568891092
0.00041979798508
0.000428381796942
0.000454462016906
0.00048745148546
0.000520212394011
0.000548550234809
0.000570826540967
0.000586529550925
0.000595868569759
0.000599018107908
0.000595103070516
0.000578466615892
0.00052507563733
0.000380512915732
0.000204640271236
0.000164353402616
0.000127557634659
0.00014724557618
0.000183733690517
0.000214270840849
0.000243013819565
0.000247079429685
0.000176247924157
0.00199433980237
0.00198878773934
0.00189115002456
0.00166126942089
0.00131370892577
0.000921539571359
0.000606258115676
0.000418943002811
0.000321091484427
0.000266031817347
0.000227938765575
0.000196372711035
0.000169629265666
0.000156065380056
0.000159522990552
0.000159451116026
0.000156843943826
0.000168335030954
0.000194898280719
0.000173566732973
0.00199225672867
0.00202152670372
0.00199269257485
0.0018471256857
0.00155729917171
0.00117106446116
0.000826815205796
0.000602470149365
0.000472600374539
0.000392316783651
0.00033371114374
0.000283538528397
0.000240061511205
0.000210898484454
0.0001902720962
0.000165788177679
0.000139273998886
0.000127189760295
0.000147683545267
0.000167391532513
0.00211947165189
0.00216107385173
0.0021658679008
0.00206765123109
0.0018247575422
0.00147473210767
0.00113611055831
0.000892175174259
0.000731403962164
0.000617408647767
0.00052565307141
0.000444219057167
0.0003720212803
0.00031506266189
0.000268923965417
0.000223807234701
0.000171735513944
0.00012522643876
0.000120761352766
0.000159308005916
0.00246937219742
0.0024787224704
0.00245616880623
0.00234841797258
0.00211889295843
0.00179873091884
0.00147884685654
0.00122418096909
0.00103218761781
0.000877820527334
0.000743860596208
0.000623544839643
0.000517524120849
0.000432643424612
0.000367525184082
0.000309418105859
0.000235435907252
0.000147450314902
0.000112909297479
0.000155593574316
0.00238923772441
0.00236050899471
0.00229218782951
0.00215768786992
0.00194754537934
0.00169042135571
0.00144047531208
0.00122906500764
0.00105236170546
0.000898306383204
0.0007619940282
0.000643858108179
0.000545867868523
0.000470415678764
0.000415911536895
0.000367510408057
0.000286564333387
0.000165663074782
0.000112621493005
0.000157265899383
0.001601940835
0.00157597448911
0.00152131567229
0.0014347931803
0.00132256877895
0.00119640386709
0.00106616440175
0.000933861709451
0.000801813836199
0.000678095549275
0.000572624524963
0.000490684072438
0.000432087655377
0.000394897133622
0.000375183799359
0.000354152821496
0.000281320580847
0.000158740457766
0.00011438446981
0.000162650977777
0.00107492347337
0.00106520257633
0.00104506269418
0.00101346368764
0.000968956916869
0.000904457936757
0.000814108004219
0.000702721952043
0.000586681176434
0.000484297545975
0.000406052566028
0.000352812519358
0.000320616883769
0.000305303693456
0.000301148654494
0.000290270951403
0.000230976446708
0.000140101792512
0.000120128407121
0.0001677337749
0.00100806728748
0.000996182286269
0.00097698113659
0.000946485454236
0.000897340152029
0.000822267286385
0.000720905951774
0.000604639822801
0.000492484350017
0.00040105975109
0.000336076595288
0.000293792536011
0.000268031820577
0.00025358598095
0.000244546350641
0.000228677046977
0.000183863584445
0.000130226095825
0.000131717863928
0.000171006033521
0.00103966824989
0.00101998989324
0.000989999777244
0.000945779136725
0.000882339447861
0.000797144528227
0.000693324511775
0.000581714623535
0.00047783040287
0.00039422783179
0.000333943343539
0.000292264311084
0.000262974665563
0.00024121735422
0.000222275468524
0.000199494401347
0.00016539679238
0.000137494256452
0.000147814877934
0.000174121684579
0.000995320034439
0.000975762603413
0.000946231471578
0.000903606269742
0.000844889048414
0.000769055152283
0.00067918280969
0.00058357413409
0.00049398529951
0.000419943200932
0.000363750243606
0.000321734961392
0.000288807663727
0.000261163445169
0.000235423680444
0.000208659334046
0.000180957142841
0.000165175686418
0.000169683010759
0.000180759834954
0.000889480680117
0.00087490838255
0.000852807058723
0.000820762475654
0.000776648223904
0.000719717554556
0.000652076061416
0.000579402927043
0.000509867673401
0.000450405364807
0.000403169832051
0.000365879498657
0.000334948097067
0.000307380952902
0.000280844696542
0.0002545748792
0.000230769727616
0.000215307089328
0.000204262552691
0.000195061980556
0.000752049653922
0.000743316250877
0.000729811801255
0.000709849437276
0.000681971768938
0.000645632992826
0.000602127558132
0.000555014602235
0.00050949027001
0.000470171448247
0.000438748315695
0.000413770919338
0.00039266978724
0.000373029296896
0.000352898908031
0.000331958575539
0.000311173506795
0.000289302299622
0.00025787530532
0.000217396922887
0.000613142933614
0.000608695542464
0.000601791086773
0.000591405610798
0.000576822099697
0.000557978670431
0.000535955374566
0.000513092043131
0.000492512869618
0.000476784671983
0.000466534771578
0.000460294288113
0.000455859407949
0.000451039315415
0.000443543346193
0.000431781415672
0.000413903929281
0.000382808416402
0.000327751083207
0.000243870174271
0.000504337474093
0.000502148186222
0.000498980586501
0.000494485129087
0.000488780996618
0.000482599033515
0.000477399104858
0.000475145072101
0.000477707882876
0.000485913321524
0.000498858828399
0.000514174436336
0.000529090101323
0.000540842136257
0.000546580089922
0.000543165285137
0.000525523037784
0.000483402120408
0.000403452485238
0.000272785367741
0.000440615366867
0.000439239989924
0.000437750838318
0.000436462003614
0.000436378537037
0.00043923228114
0.000447264501923
0.000462566713924
0.000486160197071
0.000517172989189
0.00055273250076
0.000588804225376
0.000621268995091
0.00064627409494
0.000660225766662
0.000658990206986
0.000636413660647
0.000581027068316
0.000477142335807
0.000309163401034
0.000418775123575
0.00041752443605
0.000416713273654
0.000417285216345
0.000421130798221
0.000431062910747
0.000450255573267
0.000481050838124
0.00052362358756
0.000575245500404
0.000630866239628
0.00068461977134
0.000730985998452
0.000765095699683
0.000782633354718
0.000778967061052
0.000747997856537
0.000679224682072
0.000555892852591
0.000367235471459
0.000427206145516
0.000425836313627
0.000425298310745
0.000427058491206
0.000433784265983
0.000449271365783
0.000477573440267
0.000521249238858
0.000579644510927
0.000648363343262
0.000720588450756
0.000789113570778
0.000847465960584
0.00089004548815
0.000911890602094
0.000907926312828
0.000871921879224
0.000794027420664
0.000657435271571
0.000457591998665
0.000453096619827
0.000451490407858
0.000450938847238
0.000453237948904
0.000461587850512
0.000480524675272
0.000514876068191
0.000567594180149
0.000637708991765
0.000719964886032
0.000806605950091
0.000889661831205
0.000961997910064
0.00101736450124
0.00105004606838
0.00105407003396
0.00102200392215
0.00094251167431
0.000796603915161
0.000579070977744
0.000485862758342
0.000483894882354
0.000482967157757
0.000484951184259
0.000493261118924
0.000512906095097
0.000549511027191
0.000606981624899
0.000685044801332
0.000778683592052
0.00087997394006
0.000980446745362
0.00107224789647
0.00114830176776
0.00120180331058
0.00122516266649
0.0012082805632
0.00113515333998
0.000979138118571
0.000722834811456
0.00051834726247
0.000515886046777
0.000514222581948
0.000515064078817
0.000521736992118
0.000539474585009
0.000574779733401
0.000633206454416
0.000716389532187
0.000820703807179
0.000938654015217
0.00106127522021
0.00117971817518
0.00128571214942
0.00137085308448
0.00142507234821
0.00143394859016
0.00137339484937
0.00120226983997
0.000879177066553
0.000546475092514
0.000543477425995
0.000540858490085
0.000540012115981
0.00054394308273
0.000557872552272
0.000589185420392
0.000645658010535
0.000732027878199
0.000847249338559
0.000984777246655
0.0011349851843
0.00128757239359
0.00143249992639
0.0015590491195
0.00165362905255
0.00169577299198
0.0016504402989
0.0014563455535
0.00104023961449
0.000568511536965
0.000564992756132
0.000561398939957
0.000558707361849
0.000559444588542
0.000568596468525
0.000594296484835
0.00064687949632
0.000735260879512
0.000862219642094
0.00102263902485
0.00120590228329
0.00139959598221
0.00159109628872
0.00176641849837
0.00190724691407
0.00198550854716
0.00195359173754
0.00172734826207
0.00119820204833
0.000584041950618
0.000580134372012
0.000575730854004
0.000571377309707
0.000569054436878
0.000573345566037
0.000592917637303
0.000640780900929
0.000730913618302
0.000871104787106
0.00105801684713
0.0012794809585
0.00152006624242
0.00176352657059
0.001991487414
0.00217968071586
0.00229146293071
0.00226626225738
0.0019983822502
0.00134688927457
0.000593289733348
0.000589172998275
0.000584242850632
0.000578650752307
0.00057384139196
0.000573930266551
0.000587954391243
0.000631632713413
0.000724679812392
0.000880703787807
0.00109804177192
0.00136215452676
0.00165356349244
0.00195117619203
0.0022310985326
0.00246214038932
0.00259902569373
0.00256973503981
0.00225216757994
0.00148016534292
0.00059644659298
0.000592351247535
0.000587257351845
0.000580996196987
0.00057457132139
0.00057171158787
0.000581885793191
0.000623714038971
0.000723085815972
0.00089927943558
0.00115126783863
0.0014610167716
0.00180386832824
0.00215304337959
0.00247842961058
0.00274195054489
0.00289065990495
0.00284410592999
0.00247018241603
0.00158794623101
0.000592697211088
0.000588933859091
0.000584136196659
0.000577915875457
0.000570994112784
0.000566975496919
0.000576159613806
0.00062057724399
0.000732230653036
0.000934255406952
0.00122423836534
0.00157959408867
0.00196976648277
0.00236194148132
0.00271997511291
0.00299967695939
0.00314211168926
0.00306248189447
0.00262646555616
0.00165391900782
0.000576518313046
0.000573694876884
0.000570023402487
0.000564956855328
0.000559098061123
0.000556290207882
0.000568333595115
0.00062141051067
0.000752726341559
0.000985865565728
0.00131457832433
0.0017106436213
0.00213744639194
0.00255661295107
0.00292684718615
0.00319920596853
0.00331163612302
0.00317979933497
0.00267834856427
0.00165050083921
0.000524339705921
0.000524013764456
0.000523428661481
0.00052173469711
0.000519372460399
0.00052054874758
0.000539009985803
0.000605672084686
0.000762036339772
0.00102884247893
0.00139227314334
0.00181670147857
0.00226022783522
0.00268051002092
0.0030329455454
0.00326637283393
0.00331937702121
0.00311506483704
0.00255435271715
0.00153780145406
0.000381799537484
0.000385544468889
0.000389912661449
0.000393444995247
0.000395884004947
0.000400756908394
0.000421967341399
0.000494184954867
0.000667441243501
0.000961886504308
0.00134839273221
0.0017798035539
0.00221047368983
0.00259698903172
0.002894938959
0.00305534601574
0.0030243124621
0.00274409658007
0.00216401897061
0.00127870615017
0.000205946640774
0.000209011449945
0.000212381714262
0.000214849279577
0.000215789047161
0.00021686053758
0.000226640724448
0.000270526832291
0.000397779631155
0.000647551377395
0.000997099233109
0.00138730676932
0.00176400112522
0.0020822569014
0.00230208766875
0.00238375922541
0.00229214408215
0.00200144313289
0.0015174827586
0.00091407549827
0.000164596760768
0.000165082903566
0.000165236042221
0.000164497793768
0.000162563828365
0.000160210926436
0.0001613440483
0.000177574928484
0.000233079194481
0.000355321858038
0.000548120135915
0.000784320552876
0.00102452280309
0.00122986536288
0.00136775050614
0.00141140845372
0.00134455954345
0.00116604607954
0.000899173414666
0.000613917160938
0.000111497082201
3.72253370507e-05
0.000111986862188
3.81177822512e-05
0.000113773950575
3.95523006937e-05
0.000117141188505
4.148719085e-05
0.000121424368881
4.35977665937e-05
0.000125087503002
4.57931346083e-05
0.000127860622577
4.81371050723e-05
0.000130375414524
5.10364116599e-05
0.000133516509873
5.5118535092e-05
0.000138546142852
6.21025688374e-05
0.000146160268396
7.5851814284e-05
0.000154272045993
0.000105275422477
0.000143404837878
0.000176308765247
0.000107142010407
8.38076673591e-05
9.70764113682e-05
9.89573653638e-05
9.81049295899e-05
0.000108203363401
0.00010514019068
0.000115237162094
0.00011631080583
0.000121657545582
0.000130125713377
0.000128029063088
0.000145505282004
0.000134383479942
0.000161596485945
0.00014062811678
0.000178245286785
0.000146651920912
0.000194943647413
0.000152413496822
0.000210862743203
0.000157880692964
0.000225387318933
0.000163029448688
0.000236430491984
0.000167744294495
0.00024276743482
0.000171925476859
0.000241703998074
0.000175403092177
0.0002328826565
0.000178126969647
0.000219602357158
0.000180123135418
0.00021345792435
0.000181543080315
0.000233760700627
0.000182801356553
)
;

boundaryField
{
    inletfuel
    {
        type            calculated;
        value           nonuniform 0();
    }
    inletair
    {
        type            calculated;
        value           nonuniform 0();
    }
    outlet
    {
        type            calculated;
        value           nonuniform List<scalar> 
26
(
0.00016434606979
0.000164319702745
0.000164293370468
0.000164353402616
0.000164596760768
0.000165082903566
0.000165236042221
0.000164497793768
0.000162563828365
0.000160210926436
0.0001613440483
0.000177574928484
0.000233079194481
0.000355321858038
0.000548120135915
0.000784320552876
0.00102452280309
0.00122986536288
0.00136775050614
0.00141140845372
0.00134455954345
0.00116604607954
0.000899173414666
0.000613917160938
0.000233760700627
0.000182801356553
)
;
    }
    axis
    {
        type            empty;
    }
    leftside
    {
        type            nutkWallFunction;
        Cmu             0.09;
        kappa           0.41;
        E               9.8;
        value           nonuniform List<scalar> 
32
(
0
0
0
0
0
0
0
0
0
0
0
0
0
1.66817146638e-06
4.09580226856e-06
5.54973754908e-06
6.64622984798e-06
7.64183492553e-06
8.62485326656e-06
9.59985769409e-06
1.05527316025e-05
1.14668892217e-05
1.23366847647e-05
1.31578477563e-05
1.39273936989e-05
1.46288845677e-05
1.52484121142e-05
1.576210026e-05
1.61637937763e-05
1.6458559521e-05
1.66699243885e-05
1.68587770134e-05
)
;
    }
    burnerwall
    {
        type            nutkWallFunction;
        Cmu             0.09;
        kappa           0.41;
        E               9.8;
        value           nonuniform 0();
    }
    front
    {
        type            wedge;
    }
    back
    {
        type            wedge;
    }
    procBoundary1to0
    {
        type            processor;
        value           nonuniform List<scalar> 
27
(
0.00195217192275
0.00195908715473
0.00197179648436
0.00198695565935
0.000122476598001
0.000125665180791
0.000189942508845
0.000270555111478
0.000321275466902
0.000287271425587
0.00017674019335
0.00201314715012
0.00201153681576
0.00189803280907
0.0016286584773
0.00124278306619
0.000844184272968
0.000534781577588
0.000352713709354
0.000262010103413
0.00021685865463
0.000190238625785
0.000171325580164
0.000152638334682
0.000152638334682
0.000111677404473
3.68677274641e-05
)
;
    }
}


// ************************************************************************* //
