/*--------------------------------*- C++ -*----------------------------------*\
  =========                 |
  \\      /  F ield         | OpenFOAM: The Open Source CFD Toolbox
   \\    /   O peration     | Website:  https://openfoam.org
    \\  /    A nd           | Version:  7
     \\/     M anipulation  |
\*---------------------------------------------------------------------------*/
FoamFile
{
    version     2.0;
    format      ascii;
    class       volScalarField;
    location    "0.09";
    object      O2;
}
// * * * * * * * * * * * * * * * * * * * * * * * * * * * * * * * * * * * * * //

dimensions      [0 0 0 0 0 0 0];

internalField   nonuniform List<scalar> 
815
(
0.00535540771713
0.00569086619881
0.00644034008717
0.00690468362714
0.00725407399913
0.00803313331016
0.00873831370164
0.00906498605357
0.00979325016424
0.0145035715257
0.0147834464551
0.0154173789569
0.0394325946953
0.0396502060374
0.0402457090771
0.0889682178158
0.0889499993847
0.089163976967
0.129522256746
0.129467572958
0.129530590279
0.151349500403
0.151361034511
0.151425952485
0.163095572048
0.163122377804
0.163180109997
0.171104487878
0.171119045803
0.17115257918
0.178055647248
0.178058088834
0.178066870522
0.184812338642
0.18480053365
0.184785273377
0.191252453378
0.191236858322
0.191209925984
0.196942003896
0.196922589547
0.196888952998
0.201538240428
0.201520993092
0.201487075382
0.205045725959
0.205031342827
0.204999865163
0.207671650142
0.207657917935
0.207628818142
0.209653111403
0.209642106577
0.209617172314
0.211203534483
0.211194710719
0.211173993655
0.212469505211
0.212462604924
0.212445920936
0.213546747339
0.213542042471
0.213529456236
0.214501869581
0.21449802079
0.214488452359
0.215370190757
0.215367337225
0.21536047286
0.216175345606
0.216173479634
0.216169055737
0.216931767635
0.21693069462
0.216928318683
0.217644484428
0.217644453622
0.217644234318
0.218318057274
0.218318862426
0.218320474521
0.218950931111
0.218952421289
0.218955526348
0.219535001178
0.219537135132
0.219541616292
0.22005728476
0.220059896066
0.220065686783
0.220482398923
0.220485508898
0.220492449021
0.00754307503864
0.00916982429235
0.0108585741366
0.0163491070136
0.0411520652029
0.0895748505266
0.129687074492
0.151537942085
0.163272403487
0.171207994215
0.178086331059
0.184770881212
0.191177981473
0.196846608056
0.20144276859
0.20495747898
0.207589268246
0.209582770845
0.21114504535
0.212422417047
0.213511480627
0.214474818522
0.215350751726
0.216162860876
0.216925066918
0.217643980654
0.218322792441
0.218959999416
0.219548119811
0.220074115318
0.220502408584
0.217093437163
0.224756086037
0.228164929888
0.229955861817
0.231042171006
0.231608810192
0.231654903315
0.0100779556765
0.0163817679454
0.02757444702
0.0466854993069
0.0790601487388
0.111844381991
0.138101999724
0.15735022144
0.171465209809
0.182387556252
0.191358175094
0.199054237727
0.206483783075
0.215718448411
0.221715300443
0.22527273825
0.227898094651
0.229935669229
0.231172637334
0.23148660737
0.0117845217649
0.0182836736192
0.0299305742623
0.0511563273065
0.080981121746
0.109327729435
0.132258286274
0.149688845709
0.163075353059
0.173944338108
0.183358601048
0.19189749649
0.200035820367
0.208143688889
0.214304128066
0.219196350783
0.223754635187
0.227712520888
0.230323853884
0.231214713708
0.013359240625
0.0196194423647
0.0309591355605
0.0518870104506
0.0768856574942
0.100171152298
0.119602458813
0.135037526128
0.147569997
0.15830086017
0.168041456398
0.177248845637
0.186126588661
0.19456423457
0.202051625923
0.209100549335
0.216601697171
0.223999277914
0.22898840268
0.23082242041
0.0185671720919
0.0242106550273
0.0349238889977
0.0519027748286
0.0711454797051
0.0894938857992
0.105599621252
0.119292660014
0.131082815592
0.141614733414
0.151432562671
0.160892497485
0.170230945509
0.179245021636
0.187933998696
0.197149252557
0.207926425054
0.219558313498
0.227598649463
0.230387613647
0.0433332537271
0.0487937861688
0.0576199777622
0.0696304944447
0.0831603488339
0.0965589497644
0.108856127999
0.119804998888
0.129605745568
0.138574014033
0.146957050694
0.154942164265
0.162708207436
0.170432053958
0.178607834599
0.188428561293
0.201477882344
0.216711110758
0.226770902709
0.229968512427
0.0906611685188
0.0939850544653
0.0993073634651
0.106358894908
0.114384750338
0.122612762444
0.130513190404
0.137953198568
0.144993366576
0.151658040041
0.157873170621
0.163606189921
0.168961134778
0.17423493617
0.180136985373
0.188327134809
0.201222838891
0.217117520335
0.226741214388
0.229536650818
0.130145212525
0.13180303899
0.134452854261
0.138017680473
0.142221095884
0.146863005359
0.151732792836
0.156756131564
0.161872987672
0.166923561375
0.171712197562
0.176133078888
0.180246545268
0.184299839912
0.188914050432
0.195552107428
0.206420431089
0.219463252951
0.226914362323
0.228914063578
0.15182327424
0.152761590791
0.154200328171
0.156209028595
0.158700670432
0.161698308496
0.165168945488
0.169071506208
0.173269450524
0.177551024207
0.181724321557
0.185712082699
0.189575960809
0.193501884668
0.197914170282
0.203716031394
0.212130522793
0.221463852635
0.226693259664
0.227927247139
0.163486164535
0.164092638113
0.165006983374
0.166319117548
0.168057314413
0.170290797766
0.173034439885
0.176257652291
0.179840422251
0.183610527966
0.187423216939
0.191234428818
0.195098639807
0.199132734618
0.203576130045
0.208853276764
0.215387480276
0.221952495384
0.225624884106
0.226449458006
0.171336794925
0.171703124018
0.172282375298
0.173147571398
0.174359570093
0.17599852899
0.178103917523
0.180668162033
0.183615424251
0.186826019567
0.190200679586
0.193712315393
0.197398485022
0.201325496093
0.205610807085
0.210395690869
0.215715366974
0.220650468385
0.223547938299
0.224437847228
0.178132877354
0.178300273622
0.178592752688
0.179068884618
0.179793490097
0.180843103845
0.182271856704
0.184100959066
0.186299569802
0.18880139999
0.191546361851
0.194515742431
0.197726203348
0.201213544329
0.205038460201
0.209240607744
0.213717353826
0.217790620933
0.220533559869
0.221956702992
0.184744276189
0.184747213788
0.18479769883
0.184940796006
0.185234447973
0.1857466387
0.186534496865
0.187633921621
0.189045953716
0.19074445146
0.192701768303
0.194912400087
0.197390542197
0.200161869736
0.203267904295
0.206726532667
0.210449931922
0.214011585913
0.216951377041
0.219233088977
0.191106831362
0.1909962974
0.190873016547
0.190772075425
0.190741156883
0.190837114826
0.191112014316
0.19160441089
0.192329385538
0.193282791816
0.194456322166
0.195854997409
0.197497967601
0.199410748273
0.201638481413
0.204227236352
0.207161491962
0.210283738026
0.213467129697
0.216622995962
0.196752924607
0.196579958056
0.196356847286
0.196110495421
0.195878529346
0.195706991381
0.195640100458
0.195712977112
0.195943655516
0.196336010513
0.196889144965
0.197611436161
0.198522909862
0.199651878185
0.201047110531
0.202781696048
0.204935615099
0.207566327329
0.210776280128
0.214417941095
0.201345491525
0.20114922513
0.200884003871
0.200569973233
0.200236238812
0.19992008392
0.199658930823
0.199483865267
0.199412772705
0.199451947709
0.199602729352
0.199872201169
0.20027646695
0.200842570246
0.201619791684
0.202692219423
0.204190794866
0.206297702391
0.209219378418
0.212739937909
0.20486592696
0.204669970249
0.204398779279
0.204066097603
0.203694321026
0.203313787315
0.202957342504
0.202653667564
0.202421355057
0.202268631609
0.20219846403
0.202216096449
0.202333404139
0.202573094397
0.20297902798
0.203630511998
0.204660651667
0.206263211819
0.208631736221
0.211517871785
0.207504850793
0.207321851615
0.207064891391
0.206741975825
0.206369631964
0.205972477134
0.205579893832
0.205219626141
0.204911948755
0.204667767992
0.204492127257
0.204389463923
0.204368493026
0.204446573584
0.204657769901
0.205064032641
0.205768425164
0.206913302838
0.208616855055
0.210633743641
0.209508249537
0.20934481961
0.209112484638
0.208814818148
0.208463125608
0.20807676723
0.207681718098
0.207304991689
0.206968663497
0.206686436733
0.20646525641
0.20630914198
0.206223738276
0.20622012726
0.206320228422
0.206563600344
0.207013655985
0.207749272098
0.208812006164
0.209978921315
0.211081650289
0.210941145349
0.210738930708
0.210475209832
0.210156596695
0.209797250995
0.209419075729
0.20904754205
0.208705791884
0.208409723067
0.208167552522
0.207982516563
0.207856636344
0.207793990815
0.207804096488
0.207905356023
0.208126566668
0.208496169205
0.209003279231
0.2094558038
0.212370425703
0.212253924813
0.212084144434
0.211858902343
0.21158074222
0.211258645124
0.21090943166
0.210555439955
0.210219349263
0.209918164079
0.209660713886
0.209448997576
0.20928115761
0.209154411384
0.209067318029
0.209021404469
0.20902053791
0.209061014534
0.209105785068
0.2089986761
0.213470775442
0.213377887495
0.213240688038
0.213055553182
0.212821782085
0.212543427505
0.21223135866
0.211902843802
0.211577924368
0.211273174578
0.21099744221
0.210751411184
0.210529806127
0.210324074903
0.210124297459
0.209920233662
0.209700194068
0.20944390991
0.209107118073
0.208570726927
0.214444113412
0.214373364777
0.214267456959
0.214122008871
0.213934003941
0.213703141247
0.213433943476
0.213136755966
0.212826305842
0.212516687945
0.212216142888
0.211924536643
0.211634386588
0.211333178138
0.211005451459
0.210634011844
0.210199154817
0.209674969321
0.209020817735
0.208149897327
0.215329023371
0.215278453617
0.215201610585
0.215093938406
0.21495099862
0.214768969315
0.214546170954
0.214284556735
0.213990632974
0.213673469346
0.213340057161
0.212990479609
0.212616864826
0.212205038676
0.211736969789
0.2111924808
0.210549236344
0.209782058217
0.208859363211
0.207719245395
0.216149095364
0.216116578961
0.216066043278
0.21599326643
0.215893022161
0.215758881481
0.215583445936
0.215359365409
0.215082139192
0.214753061381
0.214377378669
0.213956972874
0.213485741052
0.212950387655
0.212332917232
0.211613231204
0.210770175979
0.209782982699
0.208628434569
0.207261242104
0.216918171246
0.216901536328
0.21687437683
0.216833002246
0.216771797148
0.216682376265
0.216552094797
0.216363734898
0.216099533945
0.21575084931
0.215321473205
0.21481728151
0.214236420347
0.213568476496
0.212797561824
0.211905549244
0.210874043795
0.209686445419
0.208325584384
0.20675552327
0.217643488676
0.217640803882
0.217634161388
0.217620363711
0.217593578808
0.217543608333
0.217452667358
0.217293041576
0.217032390179
0.216651958275
0.216156077081
0.215556909046
0.214858482024
0.214054461456
0.213131929365
0.212075063573
0.210867928062
0.209496697756
0.207946533377
0.206184799693
0.218327863537
0.218337381127
0.218348540912
0.218358495687
0.218360951663
0.218343577957
0.218282779513
0.218139315804
0.21786629972
0.217438007252
0.216863137926
0.216161701121
0.215343660432
0.214406575001
0.213340216959
0.212130671754
0.210763123915
0.209222609406
0.207491784202
0.205535890023
0.218969893597
0.218990258297
0.2190170363
0.219047464567
0.219074306371
0.219082433766
0.219041049534
0.218897613903
0.218591935916
0.218098023738
0.217434416766
0.21662923275
0.215696725033
0.214636895278
0.213440988938
0.212095307679
0.210583086902
0.20888454143
0.206973764389
0.204809351013
0.219562594637
0.219593190052
0.219634548874
0.21968372181
0.219732434252
0.219762465077
0.219734782155
0.219580449443
0.219224683046
0.218649468985
0.217891469123
0.216986744386
0.215950758419
0.214783338506
0.213475031781
0.212010131436
0.210367540021
0.208518374374
0.206422051265
0.204028732667
0.220092942857
0.22013312618
0.220188240182
0.220255269886
0.220325331866
0.220378110902
0.220368250207
0.220210994569
0.219810488392
0.219152078102
0.218297626644
0.217296886817
0.216166517074
0.214903958079
0.213496953956
0.211926026934
0.210164059929
0.208172212555
0.205893635011
0.20327305635
0.220524749972
0.220572581484
0.220638858757
0.220720630618
0.220808700347
0.220881518964
0.220890336213
0.220741972377
0.220324292779
0.219612689074
0.218680936593
0.217595160323
0.216378669168
0.215029978602
0.213534499222
0.211870875733
0.210006355283
0.207898604829
0.205479485183
0.202696622046
0.231052564321
0.230655175127
0.230860818281
0.230416105572
0.230623228008
0.230136542405
0.230319790274
0.229793778299
0.229928186556
0.22934524759
0.229412735969
0.228743866024
0.228708298822
0.227933122156
0.22774119492
0.226867638984
0.226446965729
0.225522728938
0.224813866596
0.223915174092
0.22289594945
0.22210227663
0.220785421657
0.220162730616
0.218620932729
0.218179379094
0.216565685401
0.216227587156
0.214688220053
0.214401461121
0.213022330818
0.212748363027
0.211579091099
0.21128907755
0.210365807795
0.210039286468
0.209371574258
0.208995552193
0.208557637292
0.208124371324
0.207871351889
0.207376780444
0.207263907635
0.206706376563
0.206694217658
0.206072978994
0.206127861546
0.20544312956
0.205537322616
0.204788860562
0.204895650753
0.204088006889
0.204185754176
0.203326453168
0.203396667965
0.202504842251
0.202541995725
0.201649280914
0.201672698829
0.200825166214
0.200904433004
0.200142594469
0.200398297293
0.199714923318
)
;

boundaryField
{
    inletfuel
    {
        type            fixedValue;
        value           nonuniform 0();
    }
    inletair
    {
        type            fixedValue;
        value           nonuniform 0();
    }
    outlet
    {
        type            zeroGradient;
    }
    axis
    {
        type            empty;
    }
    leftside
    {
        type            zeroGradient;
    }
    burnerwall
    {
        type            zeroGradient;
    }
    front
    {
        type            wedge;
    }
    back
    {
        type            wedge;
    }
    procBoundary1to0
    {
        type            processor;
        value           nonuniform List<scalar> 
27
(
0.00355011849798
0.00380886198502
0.00438754364697
0.00524266537155
0.212240945909
0.224532137119
0.229048461856
0.23081270995
0.231535385652
0.231808495931
0.231756923743
0.00723082880708
0.0122599934615
0.0213207499139
0.0369337667031
0.0633755323678
0.0988731628717
0.129462113695
0.15214535782
0.168397001723
0.180310322455
0.189309099952
0.19631829057
0.203733322431
0.203733322431
0.231215431765
0.230868386244
)
;
    }
}


// ************************************************************************* //
