/*--------------------------------*- C++ -*----------------------------------*\
  =========                 |
  \\      /  F ield         | OpenFOAM: The Open Source CFD Toolbox
   \\    /   O peration     | Website:  https://openfoam.org
    \\  /    A nd           | Version:  7
     \\/     M anipulation  |
\*---------------------------------------------------------------------------*/
FoamFile
{
    version     2.0;
    format      ascii;
    class       volScalarField;
    location    "0.09";
    object      one_over_tauStar;
}
// * * * * * * * * * * * * * * * * * * * * * * * * * * * * * * * * * * * * * //

dimensions      [0 0 -1 0 0 0 0];

internalField   nonuniform List<scalar> 
815
(
300.364914281
299.855607946
298.545315365
259.256937368
259.080039429
258.491515388
229.383018142
229.252672633
228.994175005
225.800670045
225.525813195
225.144397601
217.945272707
217.849599048
217.491763382
184.470633663
184.844524883
184.831209336
133.238756281
133.826806317
134.111666909
90.1430117543
90.4080248671
90.6555260474
71.5530548422
71.6060310088
71.7022732408
65.0220039193
65.0391871393
65.07443547
61.5604555348
61.5637315043
61.5700147281
58.1151947876
58.13455097
58.1405710542
53.8974880871
53.9123572453
53.9104360919
48.8360766629
48.8516472032
48.8465687684
43.37751157
43.3854729961
43.3774219959
38.1124557441
38.1126657492
38.1007087048
33.5494232485
33.5493897836
33.5351395438
29.895746431
29.8917577582
29.8754902439
27.0509485457
27.044868289
27.0279974349
24.8479933781
24.8396000612
24.8219157567
23.1212666231
23.1144264074
23.0998662321
21.7721500796
21.7664996006
21.7533275944
20.718802855
20.7133688234
20.7010126662
19.8991505592
19.8935398977
19.881690433
19.2679584473
19.2620045802
19.250092861
18.8166161472
18.8100709042
18.7980772211
18.6904547852
18.6826638562
18.6690152896
19.758444631
19.7467100554
19.7246232707
26.2495482545
26.2272412413
26.1772309088
51.5475041475
51.5037496788
51.4103332066
98.9440595871
98.8910445901
98.7938353797
296.91801873
257.934533511
228.96201403
225.044819813
217.351642759
184.902121937
134.414181188
90.9385704563
71.8173515293
65.1192520061
61.5811611273
58.1486611272
53.9092957342
48.8437299568
43.3746974047
38.0973307133
33.5320426278
29.870282098
27.0221232307
24.8158166028
23.0954854891
21.7511046248
20.7009443213
19.8834063145
19.2534829395
18.8027254742
18.6734203171
19.7218035136
26.1445516192
51.3123030547
98.6901149966
75.0175542384
46.5757212237
29.5002227067
19.9900672422
13.7941895037
10.895648349
15.3363092435
293.240616692
285.31898224
272.781150133
253.439941245
225.431443169
188.66703724
151.938028753
124.141807211
106.850369304
96.8803135898
91.2114724243
87.8305047804
83.5840358414
66.7222467602
50.2340850859
38.6311001951
29.3881822739
20.6014916477
14.1944084423
15.6245818347
256.776765419
254.250121337
249.271942378
238.479207495
217.225384987
184.635811621
151.873675121
127.783005866
112.741190699
103.227220326
96.4509116025
90.4325971346
83.64981229
73.4059465367
63.1064281289
54.1328818702
44.2849017881
32.1760048861
20.1381652481
16.5914814737
229.26995431
230.50941032
230.998523595
226.02587422
209.887935139
183.724171965
157.771956821
138.694857023
125.736557255
116.100855585
108.002313594
100.422772336
92.7432684209
84.3188169699
75.9000597124
68.1790595788
59.2762117763
45.7757414771
28.2847393539
18.3440681091
225.21202145
226.281524076
226.879000411
222.684671056
209.114521635
187.984477081
166.163271218
148.396377398
135.089147413
124.520152472
115.233094077
106.489725626
97.9834690528
89.6093181053
81.9040466854
75.3104848859
68.025529574
55.1854486282
34.7855444008
20.0405536751
217.305670901
216.921088322
215.246557826
209.139388497
195.835809611
177.076933875
157.907817075
142.088658736
130.135177914
120.639225824
112.245889765
104.265262183
96.4731479349
88.8756677732
81.996249209
76.5672420869
70.8484178614
58.8163396249
37.5227075567
21.0738429454
185.084959751
183.748621975
180.450758156
173.227826272
161.042383381
146.052372441
132.120784106
121.338669013
113.285700979
106.572015134
100.226362184
93.9170977164
87.6703618292
81.7291020911
76.816579603
73.5334751194
69.0581024928
57.1543563071
36.0075747516
21.3340902524
134.969257727
133.734577279
130.747494343
125.21230038
117.433714484
109.084840783
102.062908801
96.745895667
92.4057108191
88.2201996575
83.8328933442
79.3605610434
75.0780593752
71.3988824753
69.0047273707
67.9071613149
64.1800348967
52.0056374082
32.2865730647
21.422636539
91.5062671024
91.2035019245
90.1966329952
88.1272070124
85.3705784929
82.3015893102
79.3239700803
76.4181054667
73.448834262
70.3522109141
67.269686152
64.5069924144
62.3336400617
61.0169746069
60.7815155068
60.9996766049
57.4099063666
45.0639514157
28.3511719175
21.7384960175
72.0883503046
72.2054155197
72.1222364807
71.5550954404
70.4616102486
68.7683658177
66.5011950149
63.7233422009
60.6727116545
57.7267070477
55.2666521066
53.545779447
52.6591086873
52.604323637
53.1821394499
53.4306150084
49.4947425143
38.2543323563
26.0584573828
22.5265241651
65.2353751013
65.3578629251
65.3374080937
64.9368873154
63.9961302007
62.3684139515
60.0152510233
57.0532581863
53.8325875077
50.84982351
48.518285715
47.0241720384
46.3601334266
46.3701399964
46.6524378309
46.1739505528
42.1549210247
33.7283506897
25.9598515632
24.066438831
61.6289309651
61.6824019264
61.5859671367
61.1335867739
60.1587900158
58.5264613518
56.1980850227
53.2904029275
50.1268775603
47.1527344679
44.7407874628
43.0641097867
42.0993179568
41.6626144093
41.3512180079
40.3183298094
37.0120735412
31.7978784267
27.3947235829
26.6382367164
58.1803006386
58.1988065937
58.0618879819
57.5919564222
56.6385242466
55.0842681383
52.8945545127
50.1677588358
47.1681148463
44.2632778803
41.7771150562
39.8744224344
38.5529795902
37.6834111265
36.9825368549
35.9159751433
33.7997556756
31.1753929838
29.2171525097
30.3517626074
53.9342429051
53.948336356
53.8104386546
53.3614488855
52.4638148799
51.0102910872
48.9665195688
46.4143944142
43.5783388672
40.7769353035
38.3060446364
36.3301411101
34.8688685125
33.8505435356
33.115222512
32.4226233332
31.5360357679
30.8302512883
30.8111325701
35.0140793994
48.8687801378
48.8935859048
48.7708283957
48.3490392941
47.4956457781
46.108310379
44.1573054149
41.7277652981
39.0406349323
36.4005231811
34.0869874726
32.2555994647
30.9358314534
30.0921103509
29.6448493439
29.5237357687
29.7100956641
30.4483481186
32.1799218154
40.3197673379
43.3972173671
43.4349754261
43.3300802131
42.9296739328
42.1014209548
40.7510120736
38.8694065957
36.5733579082
34.108458804
31.7740690872
29.8140189692
28.3455452136
27.38288908
26.9000176804
26.8679531758
27.3009845251
28.2908424906
30.0750372092
33.3631434781
45.575506303
38.1153424078
38.1630309842
38.0752562483
37.6980336632
36.9026215991
35.613366154
33.8576062508
31.7962114611
29.6937049713
27.8179537072
26.3469782443
25.3433934848
24.7976634285
24.685714652
25.0103093528
25.8331702028
27.307780987
29.7524839826
34.2293264853
49.1817449921
33.5498776134
33.6043487666
33.5360111917
33.1968309789
32.4692931405
31.3022722055
29.7584352618
28.0265627161
26.3620210075
24.9784860708
23.9862579648
23.4051729138
23.2108806323
23.3825034528
23.939229525
24.9675801527
26.6588499916
29.4256101757
34.5837095291
50.38132049
29.8878991467
29.9492221888
29.9068805868
29.6247842514
29.0001190782
28.0019659582
26.7120548038
25.3226886151
24.0626200991
23.0956498159
22.4855270149
22.2277128447
22.290468217
22.6540876785
23.3417683467
24.4454770253
26.1711987862
28.9907740575
34.3436332636
49.8936284838
27.0408780437
27.1130400701
27.1050352192
26.893867684
26.3885665781
25.5678084209
24.5152759299
23.4138244771
22.4683519322
21.8124182611
21.4858029503
21.4699072071
21.7257171184
22.2296545082
22.9994926664
24.1188915962
25.7876863791
28.4906398846
33.6967595562
48.6856875634
24.8365023938
24.9227370067
24.9525696347
24.8139314186
24.4229314771
23.7585359553
22.8961776766
22.0069880255
21.2847876922
20.8541229045
20.7462292207
20.9308309084
21.3570899016
21.9911601272
22.8386103172
23.9667821512
25.5550826058
28.0666369232
32.9499751768
47.3547771352
23.1206801654
23.2230800417
23.2898148528
23.2170292311
22.9235854752
22.3826762823
21.6566224147
20.9068931882
20.3319645373
20.0680512888
20.1477972288
20.5257052208
21.130608098
21.9107284447
22.8547268542
24.0101800753
25.5294028937
27.836731071
32.3345817951
46.1919461928
21.7810768219
21.9000298056
22.0004201801
21.9835689998
21.7679629067
21.3174101975
20.6783460067
20.0047605667
19.5158036333
19.3817502193
19.6437504462
20.2310929246
21.0388732667
21.9888410429
23.0505483977
24.252614497
25.7201470556
27.8372166201
31.9496811498
45.363658868
20.7363451298
20.8719009784
21.0020350811
21.0310042212
20.8749088403
20.4862733675
19.893165872
19.242844161
18.7907121114
18.7672525965
19.2263527229
20.0527854767
21.0896787069
22.226008325
23.4146159787
24.6699110368
26.0969457736
28.0455479973
31.8173092367
44.89456745
19.924346556
20.0756870102
20.2313855133
20.2967669901
20.1844497365
19.8348475915
19.2556952712
18.5873212336
18.1376032328
18.2259022445
18.9144883284
20.0123241654
21.2935436912
22.6157642112
23.9236469937
25.2255220707
26.6169257313
28.4183023235
31.908458605
44.7512682762
19.2997485205
19.4649917057
19.6409680031
19.7329639272
19.6497133369
19.3194527617
18.7293234086
18.0153835462
17.5590397716
17.792318615
18.757458446
20.1471716348
21.6629150382
23.1475455899
24.5508221772
25.8859583391
27.2451601741
28.9324581304
32.2126675999
44.933430271
18.8536755234
19.028669966
19.2165289906
19.3221697009
19.2502810724
18.9179861115
18.2950552799
17.525431103
17.0939903373
17.5418442226
18.823805033
20.4922142236
22.203827356
23.8125359028
25.2862252147
26.6490919327
27.9957694574
29.6247066641
32.7839742673
45.5118778028
18.7256725032
18.8986055131
19.07955101
19.174044975
19.0840479545
18.717849213
18.0349398597
17.2129310745
16.8739326073
17.6101192418
19.2056051333
21.0989893728
22.9525734012
24.6515002855
26.1877577232
27.5987813185
28.9902660965
30.657042802
33.8327340767
46.7788122458
19.7604248737
19.8895698227
20.0046810109
20.0193850219
19.8388017982
19.3667419969
18.5569175609
17.6417509357
17.391573675
18.3681759933
20.1670586602
22.1831262836
24.1186108839
25.8917151876
27.5169015005
29.047829476
30.6091524663
32.5054307415
35.9766132367
49.5294502825
26.1095991709
26.0379002969
25.8842003234
25.6030914145
25.1249741673
24.3501351387
23.1655934373
21.7190018719
20.8795496939
21.3999578039
22.8998315253
24.746735821
26.626154854
28.4434757994
30.2167212823
32.0138187092
34.0014358187
36.5437170008
40.9552741627
55.9181098029
51.0808263588
50.5473191999
49.8242882164
48.9718805556
47.9923476837
46.7561190654
44.7941598709
41.3587191135
36.9109786662
33.7431891089
32.7044592
33.065458308
34.1625335394
35.6699700324
37.5062104752
39.7164145816
42.5423684434
46.4834917304
53.0501510371
70.4538417672
98.4492747688
97.9271921079
97.2656611981
96.5749486627
95.9039130203
95.119697925
93.4926551638
89.2153309036
80.8188358882
70.9375677748
63.4324968779
59.0611738944
57.0667039683
56.7478619578
57.7339134514
59.9477134825
63.6315916427
69.3666885614
78.6355680272
97.1932973029
33.1418819197
55.7239346688
32.6278806528
55.7116429709
32.2311625643
55.6997849254
32.1916416158
55.6894715164
32.7816804775
55.6822699073
34.1678214047
55.6783969073
36.1860973945
55.6850257419
38.3237524548
55.7022661761
40.2238221509
55.7317590667
41.7960904986
55.7738346437
43.6065148288
55.8271566808
47.6687050433
55.8885462191
62.2970688794
55.9552469999
100.262758442
268.442709489
130.157719707
316.451514699
150.540911262
345.801948278
163.212474421
368.229224203
169.447316516
388.769445408
172.400798169
409.173709188
174.531192599
429.521102051
176.728532704
449.514296465
178.988900356
468.796861952
181.569439167
487.241020494
184.612042566
504.743537966
188.028196248
521.227567524
192.182099562
536.321913896
196.975029204
549.705472441
202.973240264
560.836876062
210.301027802
569.558192069
218.609799551
575.953078857
225.966444465
580.513796206
227.398474728
584.518844976
)
;

boundaryField
{
    inletfuel
    {
        type            calculated;
        value           nonuniform 0();
    }
    inletair
    {
        type            calculated;
        value           nonuniform 0();
    }
    outlet
    {
        type            calculated;
        value           nonuniform List<scalar> 
26
(
98.9440595871
98.8910445901
98.7938353797
98.6901149966
98.4492747688
97.9271921079
97.2656611981
96.5749486627
95.9039130203
95.119697925
93.4926551638
89.2153309036
80.8188358882
70.9375677748
63.4324968779
59.0611738944
57.0667039683
56.7478619578
57.7339134514
59.9477134825
63.6315916427
69.3666885614
78.6355680272
97.1932973029
227.398474728
584.518844976
)
;
    }
    axis
    {
        type            empty;
    }
    leftside
    {
        type            calculated;
        value           nonuniform List<scalar> 
32
(
55.7239346688
55.7116429709
55.6997849254
55.6894715164
55.6822699073
55.6783969073
55.6850257419
55.7022661761
55.7317590667
55.7738346437
55.8271566808
55.8885462191
55.9552469999
268.442709489
316.451514699
345.801948278
368.229224203
388.769445408
409.173709188
429.521102051
449.514296465
468.796861952
487.241020494
504.743537966
521.227567524
536.321913896
549.705472441
560.836876062
569.558192069
575.953078857
580.513796206
584.518844976
)
;
    }
    burnerwall
    {
        type            calculated;
        value           nonuniform 0();
    }
    front
    {
        type            wedge;
    }
    back
    {
        type            wedge;
    }
    procBoundary1to0
    {
        type            processor;
        value           nonuniform List<scalar> 
27
(
352.721435064
351.681853244
349.374722423
346.242360828
96.8174708443
54.9510816009
28.2835784834
16.2069233759
10.6686013055
9.31470332834
15.4367027796
339.211290305
324.786014751
305.243316548
279.630242919
247.095616616
209.732593283
173.305167501
143.17907193
121.612648399
108.157531131
101.79230492
101.57172159
101.098929882
101.098929882
33.5997523737
55.7360663781
)
;
    }
}


// ************************************************************************* //
