/*--------------------------------*- C++ -*----------------------------------*\
  =========                 |
  \\      /  F ield         | OpenFOAM: The Open Source CFD Toolbox
   \\    /   O peration     | Website:  https://openfoam.org
    \\  /    A nd           | Version:  7
     \\/     M anipulation  |
\*---------------------------------------------------------------------------*/
FoamFile
{
    version     2.0;
    format      ascii;
    class       volScalarField;
    location    "0.09";
    object      p;
}
// * * * * * * * * * * * * * * * * * * * * * * * * * * * * * * * * * * * * * //

dimensions      [1 -1 -2 0 0 0 0];

internalField   nonuniform List<scalar> 
815
(
99077.6819003
99077.6855423
99077.6817674
99121.251819
99121.2767817
99121.2835134
99169.5351243
99169.5211916
99169.5567672
99209.5804493
99209.5457094
99209.5766258
99248.6711549
99248.6339665
99248.6455333
99290.8916269
99290.8841173
99290.9205063
99336.398532
99336.3972731
99336.4216349
99389.992064
99390.0058216
99390.0303897
99455.1020711
99455.1055511
99455.1262471
99521.5014614
99521.5106268
99521.5357494
99591.9491867
99591.9535869
99591.9810758
99663.5927052
99663.604602
99663.6358412
99736.2135803
99736.2223239
99736.2519722
99810.331392
99810.3426349
99810.3694071
99885.1921538
99885.2026378
99885.2255889
99963.0310529
99963.0359243
99963.0516539
100045.411129
100045.417173
100045.425532
100129.698688
100129.702458
100129.707
100216.142144
100216.145445
100216.14791
100304.109602
100304.114785
100304.115843
100393.179506
100393.178409
100393.179221
100482.769202
100482.77014
100482.772108
100572.301529
100572.302724
100572.304363
100661.2048
100661.204238
100661.205375
100749.209762
100749.211821
100749.213203
100836.548479
100836.548535
100836.548604
100923.926534
100923.926841
100923.927101
101012.135645
101012.136021
101012.137181
101100.721057
101100.720192
101100.721945
101189.517393
101189.517627
101189.518113
101280.516012
101280.516048
101280.516867
99077.6690237
99121.3006635
99169.6004787
99209.6238756
99248.6573727
99290.9649356
99336.4513464
99390.0658284
99455.1553328
99521.5713138
99592.0179533
99663.6799085
99736.2929682
99810.4062133
99885.2574319
99963.073127
100045.43822
100129.714174
100216.152127
100304.118866
100393.180757
100482.774685
100572.306788
100661.206627
100749.21568
100836.54952
100923.929002
101012.13916
101100.723615
101189.518764
101280.517656
99036.6853762
99040.0740161
99042.8182055
99042.1149441
99039.411514
99036.4156302
99033.979999
99077.6265997
99077.5873225
99077.481358
99077.4182385
99077.3128953
99077.4334374
99077.6149011
99077.9148097
99078.2340201
99078.7077247
99079.3222077
99080.5749997
99082.1217451
99087.6754829
99090.6527129
99092.8143253
99090.086843
99085.9636062
99081.4031165
99078.0825399
99121.3334419
99121.4032009
99121.5380347
99121.7195918
99122.0604201
99122.5076051
99123.3120224
99124.9274387
99126.779889
99128.9928003
99131.5444164
99134.3718913
99136.6827992
99138.842629
99141.1555827
99141.6911352
99138.7814287
99132.9360433
99128.0684304
99124.2000908
99169.6684078
99170.0022836
99170.489067
99171.3011847
99172.3624748
99173.5313877
99174.7093611
99175.9681382
99177.2186441
99178.3821373
99179.6779207
99180.9893783
99182.6329766
99185.3250412
99187.2136116
99187.9861339
99186.9462189
99181.0263866
99176.2318151
99171.6583335
99209.7173232
99209.9046452
99210.2587975
99210.7975876
99211.6313934
99212.9185831
99214.6629582
99216.7340926
99219.1433799
99221.8097456
99224.3817395
99226.6829954
99228.3350315
99229.1124524
99229.3361167
99229.5222136
99228.1473597
99224.9467057
99221.5060133
99218.3945608
99248.701765
99248.7699551
99248.9252636
99249.205569
99249.6373287
99250.2003041
99250.867617
99251.6647495
99252.693109
99254.0375915
99255.91188
99258.4043799
99261.3137247
99264.5171879
99268.0348312
99269.375946
99269.8408312
99269.1830112
99267.9126742
99266.9327416
99291.0695072
99291.2805561
99291.6132316
99292.1091375
99292.7864088
99293.7003851
99294.9560192
99296.4704589
99298.0669544
99299.822173
99301.6592282
99303.5017639
99305.2136642
99306.7193317
99308.2142109
99309.8739412
99311.3625209
99311.6872849
99314.3125352
99315.6731299
99336.5315299
99336.7195418
99336.9957531
99337.4206461
99337.8299482
99338.2583485
99338.7051149
99339.2422515
99340.0168065
99341.0688137
99342.4083146
99344.0820084
99346.1389748
99348.5683044
99351.296637
99354.1579387
99357.1755973
99360.4976515
99365.293976
99369.0523309
99390.1432138
99390.3343204
99390.5924428
99390.9319805
99391.4845979
99392.2519085
99393.1947846
99394.2593029
99395.4504491
99396.7683227
99398.2088368
99399.7616545
99401.4271407
99403.3289508
99405.4266728
99407.8920298
99412.3035986
99417.5513304
99423.8159807
99427.8391058
99455.2262415
99455.3680272
99455.6134759
99455.9606046
99456.42209
99456.9819731
99457.6159915
99458.3169696
99459.1320439
99460.1962532
99461.4762159
99462.9329095
99464.7798856
99466.9131163
99469.417645
99471.409545
99477.3325672
99482.123418
99488.674454
99492.0932531
99521.6525095
99521.8284413
99522.0945385
99522.4553721
99522.9353147
99523.5417327
99524.3379176
99525.3116107
99526.441023
99527.7187017
99528.9965703
99530.8376747
99532.9836648
99535.1174643
99538.3899282
99542.1093569
99547.9067772
99552.9125468
99558.0115506
99560.4270046
99592.1053181
99592.3051312
99592.6116078
99593.0413465
99593.6182215
99594.3595142
99595.2784954
99596.3779375
99597.674165
99599.2176959
99601.041698
99603.1888211
99605.7413982
99608.7536864
99612.35328
99616.2813228
99620.8710995
99625.2423742
99629.0380353
99630.4277255
99663.7791201
99663.9997649
99664.3352158
99664.807353
99665.4412061
99666.2626446
99667.2994047
99668.5773636
99670.1201508
99671.9435382
99674.0625822
99676.5052177
99679.3162441
99682.5267543
99685.9661364
99689.735564
99693.6887379
99697.2106818
99699.9611642
99700.8747939
99736.387338
99736.6034259
99736.9308135
99737.3898506
99738.0055537
99738.8071715
99739.8211964
99741.0725717
99742.58637
99744.3855819
99746.4887018
99748.9041089
99751.6158987
99754.6543357
99757.9387588
99761.2935671
99764.650602
99767.702512
99769.8430175
99770.6248702
99810.4905487
99810.6808257
99810.968992
99811.3768272
99811.9269278
99812.6431476
99813.5466916
99814.669416
99816.03723
99817.6706143
99819.5859845
99821.7916366
99824.2542187
99826.9393246
99829.7563461
99832.6596155
99835.2991168
99837.4142424
99839.2575268
99840.1280603
99885.3310452
99885.4880057
99885.725087
99886.05772
99886.5055246
99887.0895685
99887.8344798
99888.7636106
99889.8994053
99891.2690098
99892.8942846
99894.7870066
99896.9388009
99899.3153958
99901.8604577
99904.4417417
99906.9736152
99909.2583566
99910.7763401
99911.3016427
99963.1230829
99963.2378648
99963.4151025
99963.6677619
99964.0114728
99964.4627905
99965.0399429
99965.7610273
99966.6429756
99967.7022569
99968.9524401
99970.400728
99972.0419544
99973.8503541
99975.7881872
99977.7772969
99979.7327516
99981.5895
99982.7835518
99984.6197523
100045.467091
100045.53225
100045.632856
100045.77669
100045.973575
100046.234129
100046.570954
100046.996972
100047.527388
100048.176112
100048.957915
100049.885837
100050.967076
100052.197632
100053.562101
100055.02919
100056.551104
100058.082207
100059.438849
100060.659032
100129.730913
100129.768888
100129.82825
100129.913583
100130.031251
100130.187897
100130.391686
100130.650724
100130.975298
100131.374967
100131.86367
100132.452718
100133.155642
100133.980775
100134.932724
100135.999138
100137.191512
100138.450626
100139.736612
100140.901282
100216.161852
100216.183381
100216.21721
100216.266375
100216.334969
100216.427763
100216.550183
100216.708622
100216.909968
100217.163754
100217.480069
100217.870337
100218.348542
100218.928987
100219.622509
100220.437501
100221.401525
100222.474007
100223.657496
100224.705894
100304.12528
100304.139091
100304.16134
100304.194241
100304.24093
100304.305531
100304.39239
100304.507712
100304.657223
100304.851821
100305.098867
100305.412024
100305.804671
100306.294524
100306.890389
100307.610608
100308.468125
100309.413897
100310.464193
100311.332119
100393.185239
100393.195892
100393.212875
100393.238403
100393.275406
100393.327959
100393.400507
100393.499617
100393.631941
100393.808137
100394.036652
100394.33142
100394.705133
100395.173847
100395.744912
100396.437503
100397.255287
100398.153301
100399.106709
100399.775492
100482.780472
100482.792115
100482.809637
100482.835297
100482.87217
100482.924267
100482.996377
100483.094973
100483.227571
100483.403171
100483.631446
100483.924831
100484.295186
100484.753265
100485.308895
100485.971139
100486.730705
100487.55326
100488.380622
100488.953337
100572.312219
100572.3243
100572.34259
100572.369488
100572.407558
100572.460623
100572.533092
100572.630891
100572.761296
100572.93215
100573.15421
100573.439045
100573.797217
100574.238129
100574.76983
100575.393645
100576.094619
100576.842316
100577.524806
100578.070904
100661.210153
100661.219161
100661.233061
100661.25386
100661.284048
100661.327251
100661.388236
100661.473412
100661.590681
100661.750095
100661.962823
100662.238107
100662.582717
100663.000814
100663.496982
100664.075859
100664.720073
100665.348849
100665.927904
100666.347792
100749.219805
100749.227824
100749.240267
100749.258751
100749.285763
100749.324619
100749.379794
100749.45735
100749.564684
100749.710558
100749.903609
100750.15131
100750.46056
100750.845479
100751.303294
100751.797969
100752.334171
100752.863331
100753.383666
100753.732942
100836.550584
100836.556129
100836.56543
100836.580475
100836.60314
100836.636915
100836.68598
100836.758546
100836.865747
100837.00908
100837.203779
100837.448453
100837.749224
100838.105739
100838.508674
100838.941572
100839.403192
100839.841308
100840.225334
100840.477662
100923.929335
100923.939627
100923.953225
100923.975654
100924.007598
100924.066247
100924.133368
100924.227613
100924.351979
100924.509686
100924.705405
100924.941911
100925.218148
100925.534678
100925.88607
100926.258382
100926.634512
100926.965103
100927.26616
100927.47434
101012.143185
101012.155871
101012.17677
101012.205288
101012.246188
101012.298508
101012.366367
101012.452397
101012.55896
101012.693415
101012.854667
101013.048536
101013.268945
101013.517277
101013.786742
101014.063915
101014.350273
101014.608861
101014.848426
101014.989142
101100.72807
101100.736537
101100.748718
101100.765554
101100.789213
101100.821381
101100.86596
101100.926702
101101.008382
101101.117669
101101.251727
101101.419843
101101.607782
101101.82766
101102.059568
101102.3084
101102.560545
101102.804128
101103.003292
101103.145121
101189.520851
101189.524462
101189.529618
101189.538143
101189.550136
101189.568884
101189.595816
101189.635817
101189.689912
101189.76794
101189.85705
101189.981528
101190.101528
101190.26389
101190.411309
101190.576439
101190.75975
101190.896141
101191.075512
101191.123452
101280.519823
101280.522676
101280.527774
101280.534229
101280.543504
101280.556253
101280.57183
101280.596159
101280.618745
101280.667321
101280.692203
101280.781535
101280.802889
101280.939135
101280.960519
101281.114619
101281.130929
101281.267843
101281.225177
101281.28816
99033.5939749
99033.5379875
99077.5043952
99077.4176888
99123.4764079
99123.3714381
99170.8190255
99170.7072632
99217.8879105
99217.8030616
99266.878034
99266.8816434
99316.4407577
99316.5236088
99370.2331007
99370.3688509
99429.1348403
99429.250507
99493.1147752
99493.1889807
99561.0449911
99561.0670663
99630.7128415
99630.6787457
99700.9084619
99700.923099
99770.5258761
99770.5522228
99840.2721261
99840.2686793
99911.5142573
99911.4875883
99984.5855411
99984.624082
100060.844855
100060.878946
100141.077559
100141.122433
100224.8094
100224.869697
100311.46021
100311.528609
100399.932627
100399.991704
100489.18846
100489.235421
100578.294112
100578.289597
100666.44935
100666.45912
100753.820434
100753.82796
100840.527416
100840.533667
100927.540252
100927.544861
101015.021842
101015.023048
101103.153282
101103.156494
101191.173859
101191.166533
101281.209915
101281.223884
)
;

boundaryField
{
    inletfuel
    {
        type            zeroGradient;
    }
    inletair
    {
        type            zeroGradient;
    }
    outlet
    {
        type            fixedValue;
        value           uniform 101325;
    }
    axis
    {
        type            empty;
    }
    leftside
    {
        type            zeroGradient;
    }
    burnerwall
    {
        type            zeroGradient;
    }
    front
    {
        type            wedge;
    }
    back
    {
        type            wedge;
    }
    procBoundary1to0
    {
        type            processor;
        value           nonuniform List<scalar> 
27
(
99036.5696365
99036.562079
99036.5281826
99036.4766066
98993.0559804
98995.5816236
98999.4071725
98999.316657
98997.5621784
98994.9999468
98992.7055839
99036.3632176
99036.132026
99035.7269653
99035.2485774
99034.5810541
99033.6458282
99033.0450541
99032.4989462
99031.9524575
99031.4983904
99030.9543341
99030.9361408
99031.9678266
99031.9678266
98992.3904383
98992.3401037
)
;
    }
}


// ************************************************************************* //
