/*--------------------------------*- C++ -*----------------------------------*\
  =========                 |
  \\      /  F ield         | OpenFOAM: The Open Source CFD Toolbox
   \\    /   O peration     | Website:  https://openfoam.org
    \\  /    A nd           | Version:  7
     \\/     M anipulation  |
\*---------------------------------------------------------------------------*/
FoamFile
{
    version     2.0;
    format      ascii;
    class       volScalarField;
    location    "0.09";
    object      PaSR<psiReactionThermo>:kappa;
}
// * * * * * * * * * * * * * * * * * * * * * * * * * * * * * * * * * * * * * //

dimensions      [0 0 0 0 0 0 0];

internalField   nonuniform List<scalar> 
815
(
1.91031897952e-12
1.90634403038e-12
1.89933470865e-12
1.64070362439e-12
1.64035426095e-12
1.63793577825e-12
1.46355661443e-12
1.46268928041e-12
1.4619875469e-12
1.47241617058e-12
1.47092321039e-12
1.46875558347e-12
1.43831829568e-12
1.43743731959e-12
1.43529612586e-12
1.20799252327e-12
1.21052951862e-12
1.21069774656e-12
8.7176019985e-13
8.75313610407e-13
8.77248134395e-13
6.03024005926e-13
6.0471127905e-13
6.06269578728e-13
4.87336876358e-13
4.87623729051e-13
4.88203304219e-13
4.45806643527e-13
4.45924902528e-13
4.46114637074e-13
4.22713639474e-13
4.2271421243e-13
4.22713970569e-13
3.98366727908e-13
3.98488846999e-13
3.98498417556e-13
3.68202523485e-13
3.6830407003e-13
3.68259703407e-13
3.32759305228e-13
3.32838080238e-13
3.32769499994e-13
2.95799027765e-13
2.95843495653e-13
2.95754208413e-13
2.61319138964e-13
2.61295218926e-13
2.6117893058e-13
2.31903054762e-13
2.31885739908e-13
2.31757386336e-13
2.08383011915e-13
2.08343800866e-13
2.08207226543e-13
1.89915663662e-13
1.89865377686e-13
1.89729482367e-13
1.75444637245e-13
1.75379938574e-13
1.75241322328e-13
1.63954608927e-13
1.63904656524e-13
1.63791733364e-13
1.54897977606e-13
1.54853109323e-13
1.54751210874e-13
1.47764023618e-13
1.47723082022e-13
1.47628226519e-13
1.42183545449e-13
1.42139762669e-13
1.4204940049e-13
1.37859749978e-13
1.37814873757e-13
1.37725011823e-13
1.34749282573e-13
1.34700975711e-13
1.34611676958e-13
1.33863235231e-13
1.33806716498e-13
1.33706917416e-13
1.41202538001e-13
1.41119118705e-13
1.40962020203e-13
1.8544250129e-13
1.85289123704e-13
1.84946186795e-13
3.516842357e-13
3.51399800273e-13
3.5080173897e-13
6.64539825759e-13
6.64192357027e-13
6.63567513745e-13
1.89010533294e-12
1.63659908999e-12
1.46310474718e-12
1.46893395323e-12
1.43467379382e-12
1.21161414741e-12
8.79312552338e-13
6.08112624514e-13
4.88897052056e-13
4.46372000863e-13
4.2273112188e-13
3.98511428543e-13
3.68211650184e-13
3.32701803675e-13
2.95690375279e-13
2.6110784657e-13
2.316949863e-13
2.08138498682e-13
1.89663054961e-13
1.75178229111e-13
1.63745654633e-13
1.54721903871e-13
1.47616781911e-13
1.42051887356e-13
1.37741168185e-13
1.34638580873e-13
1.33734066677e-13
1.4094140487e-13
1.84730094923e-13
3.50208720582e-13
6.62946029363e-13
4.83188541574e-13
3.17266525188e-13
2.06836437039e-13
1.4202602831e-13
9.87682475512e-14
7.81764558238e-14
1.0874416102e-13
1.86998999263e-12
1.82414244849e-12
1.7456503054e-12
1.62030526121e-12
1.44291049585e-12
1.19860298929e-12
9.47941626498e-13
7.61194509362e-13
6.50796216953e-13
5.91964472032e-13
5.61726275038e-13
5.45862241785e-13
5.26706631486e-13
4.36121832203e-13
3.38910475453e-13
2.65063891464e-13
2.03920817315e-13
1.44797970957e-13
1.00884237718e-13
1.10651715683e-13
1.63373097645e-12
1.62654542451e-12
1.60461199695e-12
1.54744197505e-12
1.41940177338e-12
1.20283530614e-12
9.77318570838e-13
8.11755820209e-13
7.11347504749e-13
6.51026796709e-13
6.10349237535e-13
5.7510580386e-13
5.36064034463e-13
4.78263646724e-13
4.1739145429e-13
3.61461013876e-13
2.98190557534e-13
2.19933168307e-13
1.40837598606e-13
1.17196265745e-13
1.46869896031e-12
1.48541672411e-12
1.50029971748e-12
1.4837714231e-12
1.38761614481e-12
1.21336649228e-12
1.03417523721e-12
9.01754071683e-13
8.1327103306e-13
7.49184647983e-13
6.96439658934e-13
6.47567452189e-13
5.98739949276e-13
5.46825365479e-13
4.95283940388e-13
4.47806458146e-13
3.91884054412e-13
3.05765836321e-13
1.94038167212e-13
1.29079204414e-13
1.47177094074e-12
1.48380566201e-12
1.49610988472e-12
1.47883377167e-12
1.39426651736e-12
1.25183887463e-12
1.10100839385e-12
9.77871593088e-13
8.86186587702e-13
8.13710586602e-13
7.50087018996e-13
6.90274127101e-13
6.32741425942e-13
5.77818612754e-13
5.29458383184e-13
4.90373074497e-13
4.46911453874e-13
3.65035388319e-13
2.35487670099e-13
1.40600522491e-13
1.43543152909e-12
1.43577397672e-12
1.42882544397e-12
1.39221583108e-12
1.30460475001e-12
1.17696575956e-12
1.04512318576e-12
9.36058451945e-13
8.53223432119e-13
7.86686956243e-13
7.27350794344e-13
6.71089343145e-13
6.17247025849e-13
5.66981928493e-13
5.24719501826e-13
4.9511594141e-13
4.64048324587e-13
3.87874914274e-13
2.52693750141e-13
1.47672521051e-13
1.21367179701e-12
1.20640275267e-12
1.1863908327e-12
1.14021567787e-12
1.06034727113e-12
9.60872246842e-13
8.67333036033e-13
7.93337235207e-13
7.35955309944e-13
6.86428626141e-13
6.3941673209e-13
5.94038065936e-13
5.5148841044e-13
5.14103138342e-13
4.86973318067e-13
4.7321517989e-13
4.51084076072e-13
3.76149523832e-13
2.42803931159e-13
1.49487338054e-13
8.83303090181e-13
8.7640037592e-13
8.58312438861e-13
8.2362547175e-13
7.73738787099e-13
7.18797637402e-13
6.7046155993e-13
6.3096479885e-13
5.95995964823e-13
5.61498411885e-13
5.26982748658e-13
4.94621288611e-13
4.66720357408e-13
4.45898090748e-13
4.36131836167e-13
4.36467907709e-13
4.18426740464e-13
3.42275908794e-13
2.18841608086e-13
1.49957821537e-13
6.11775147974e-13
6.10067396329e-13
6.03717487773e-13
5.90162059624e-13
5.71349665666e-13
5.49238190456e-13
5.26020726402e-13
5.01469428668e-13
4.75257842516e-13
4.48406561908e-13
4.23469723363e-13
4.03210764028e-13
3.89324728594e-13
3.83203652686e-13
3.85927652961e-13
3.92842417783e-13
3.74323416163e-13
2.97846025956e-13
1.93296583293e-13
1.5169420172e-13
4.90561656986e-13
4.91188175028e-13
4.90302059039e-13
4.85850198626e-13
4.77258694633e-13
4.63759763624e-13
4.45303131909e-13
4.22372957285e-13
3.97107550661e-13
3.730421209e-13
3.53595248286e-13
3.4065834985e-13
3.34658785851e-13
3.35385194425e-13
3.41429010476e-13
3.46338510582e-13
3.24274062639e-13
2.54879854876e-13
1.78148097891e-13
1.5636471978e-13
4.47018322163e-13
4.47581794045e-13
4.46989875323e-13
4.43521619488e-13
4.35926327723e-13
4.23068271386e-13
4.0461767277e-13
3.81504387395e-13
3.5654045991e-13
3.33697637794e-13
3.16164919577e-13
3.05197810884e-13
3.00564941196e-13
3.01130496843e-13
3.04214801855e-13
3.03023921432e-13
2.79271407282e-13
2.26875650283e-13
1.7742446148e-13
1.66001026933e-13
4.22923138913e-13
4.23017315549e-13
4.2192945587e-13
4.18173883801e-13
4.10520896378e-13
3.97983330633e-13
3.80306432242e-13
3.58443810318e-13
3.34927061331e-13
3.13160737968e-13
2.95871989455e-13
2.84182200047e-13
2.77795438361e-13
2.75389188142e-13
2.74252311621e-13
2.68805147233e-13
2.48712017469e-13
2.15839298487e-13
1.87264845085e-13
1.82774898187e-13
3.98616894596e-13
3.9850640723e-13
3.97206448126e-13
3.93453394351e-13
3.86172226807e-13
3.74546580814e-13
3.58389550279e-13
3.38522851415e-13
3.16986652066e-13
2.96512500652e-13
2.79388475416e-13
2.66659796408e-13
2.58195104908e-13
2.53033652878e-13
2.49222358091e-13
2.43170866487e-13
2.30185948432e-13
2.13468196933e-13
2.0036649989e-13
2.07650767032e-13
3.68279595572e-13
3.68172293066e-13
3.669344393e-13
3.63456819898e-13
3.56795042823e-13
3.46246992671e-13
3.31659014517e-13
3.13723932831e-13
2.94122173055e-13
2.75115207959e-13
2.58693272645e-13
2.4586980723e-13
2.36680204067e-13
2.30572455349e-13
2.26416781061e-13
2.22559401989e-13
2.17312886955e-13
2.12947200928e-13
2.12503803989e-13
2.3941616554e-13
3.32771757047e-13
3.32757976139e-13
3.31676506893e-13
3.28502344862e-13
3.223705822e-13
3.12659285826e-13
2.99267937711e-13
2.82871842157e-13
2.65012894568e-13
2.47713032547e-13
2.32760146643e-13
2.21104155047e-13
2.12887536921e-13
2.07847542763e-13
2.0543775808e-13
2.05177084695e-13
2.06896105511e-13
2.12109232017e-13
2.23461447647e-13
2.76270030923e-13
2.95744881368e-13
2.95831008893e-13
2.94908660999e-13
2.91973956246e-13
2.86204137819e-13
2.77067055888e-13
2.64598600367e-13
2.49614351397e-13
2.33697535992e-13
2.18733101913e-13
2.0625073824e-13
1.96990935638e-13
1.91051860126e-13
1.8828042252e-13
1.88506723305e-13
1.91848271723e-13
1.98928085503e-13
2.1127426661e-13
2.33397579799e-13
3.14081969945e-13
2.61139574241e-13
2.61311048278e-13
2.60539629662e-13
2.57829201338e-13
2.52400711253e-13
2.43856272252e-13
2.32449193122e-13
2.19221911364e-13
2.05818152757e-13
1.93901203188e-13
1.84602914169e-13
1.78348722624e-13
1.75107702089e-13
1.74753472228e-13
1.77338835281e-13
1.83313358974e-13
1.9374382542e-13
2.10768927376e-13
2.41429946591e-13
3.42381412823e-13
2.31739765148e-13
2.31985636352e-13
2.31381847974e-13
2.28968625477e-13
2.24037383113e-13
2.16343348872e-13
2.06355015651e-13
1.95280947178e-13
1.84710171135e-13
1.75978621385e-13
1.69799806541e-13
1.66327773735e-13
1.65430935059e-13
1.6699877994e-13
1.71193251118e-13
1.78639214652e-13
1.90682304394e-13
2.10171288123e-13
2.46084816352e-13
3.55006921945e-13
2.08197710805e-13
2.0852039519e-13
2.08124262991e-13
2.06115843798e-13
2.01867918646e-13
1.95256588427e-13
1.86876739981e-13
1.77980436993e-13
1.70013298371e-13
1.64005997899e-13
1.60368096752e-13
1.59082696667e-13
1.59956471916e-13
1.62877954972e-13
1.68033073854e-13
1.76088609269e-13
1.88509388216e-13
2.08611169156e-13
2.464177556e-13
3.55383239714e-13
1.89743693961e-13
1.90166339674e-13
1.90028390272e-13
1.88508610682e-13
1.85040162984e-13
1.79552564925e-13
1.72665414458e-13
1.65602178466e-13
1.59682810571e-13
1.55749128297e-13
1.54044172354e-13
1.54442420048e-13
1.56687960655e-13
1.60634324097e-13
1.66425875598e-13
1.74672907411e-13
1.86808415276e-13
2.06277081072e-13
2.4344529742e-13
3.49609586895e-13
1.75282302237e-13
1.758220043e-13
1.75961947226e-13
1.74940616708e-13
1.7222139431e-13
1.67726322312e-13
1.62033349447e-13
1.56323489982e-13
1.51873953456e-13
1.49474110802e-13
1.49299750108e-13
1.51130337665e-13
1.54615581286e-13
1.59529420004e-13
1.65925917887e-13
1.74299041447e-13
1.85942014965e-13
2.04168272637e-13
2.39286872905e-13
3.42002230984e-13
1.63890058036e-13
1.64557937892e-13
1.64967422218e-13
1.64401622228e-13
1.62327192627e-13
1.58616972436e-13
1.53771060883e-13
1.48939842395e-13
1.45465746055e-13
1.442266134e-13
1.45396795986e-13
1.48633731967e-13
1.53432273429e-13
1.59432149234e-13
1.66562795692e-13
1.75175066367e-13
1.86369931692e-13
2.03196132442e-13
2.35690655202e-13
3.34930892994e-13
1.54905735678e-13
1.55701916349e-13
1.56357958837e-13
1.56183243246e-13
1.54628437806e-13
1.51491056457e-13
1.47168960741e-13
1.42793544469e-13
1.3988629329e-13
1.39571567159e-13
1.42069761926e-13
1.46843388835e-13
1.53136302584e-13
1.60392680578e-13
1.68401371293e-13
1.7737518146e-13
1.88219650445e-13
2.03702172232e-13
2.33492149033e-13
3.29833108832e-13
1.47844037147e-13
1.4876773978e-13
1.49643317995e-13
1.49793321317e-13
1.48640692115e-13
1.45893640475e-13
1.41825021748e-13
1.37548023684e-13
1.34875037654e-13
1.35363932305e-13
1.3930959785e-13
1.45840477565e-13
1.53818272445e-13
1.6244633534e-13
1.71390683087e-13
1.80760551384e-13
1.91317251746e-13
2.05586550782e-13
2.32946537796e-13
3.27054474704e-13
1.42322521891e-13
1.43367213826e-13
1.44433407447e-13
1.44845814777e-13
1.43994079396e-13
1.41491652085e-13
1.37468399224e-13
1.33012850123e-13
1.30342926344e-13
1.31654479594e-13
1.37285945704e-13
1.45807869971e-13
1.55577214282e-13
1.65566955544e-13
1.75382892869e-13
1.85090192971e-13
1.95382507799e-13
2.08576443811e-13
2.33906339888e-13
3.26450743391e-13
1.3805353319e-13
1.39205521479e-13
1.40425542492e-13
1.41034288123e-13
1.40387634231e-13
1.38005362426e-13
1.33871021503e-13
1.29062396426e-13
1.26347144394e-13
1.28725786521e-13
1.3638051368e-13
1.47035907551e-13
1.58517734871e-13
1.69689899117e-13
1.80195326277e-13
1.90135518004e-13
2.00181016614e-13
2.12531701699e-13
2.36333412121e-13
3.28066351404e-13
1.34988258358e-13
1.362181199e-13
1.37533114098e-13
1.38249058262e-13
1.37689292661e-13
1.35290503192e-13
1.30914403409e-13
1.25709799941e-13
1.23194137304e-13
1.27141445713e-13
1.37102589125e-13
1.49785816804e-13
1.62689140651e-13
1.74756127644e-13
1.85762477882e-13
1.95890361747e-13
2.05828219657e-13
2.17735824123e-13
2.40640056941e-13
3.3242464277e-13
1.34097562371e-13
1.35322585793e-13
1.36601076794e-13
1.37252088539e-13
1.36578041764e-13
1.33952940334e-13
1.29171749832e-13
1.23633742776e-13
1.21827045589e-13
1.27878416179e-13
1.40116841639e-13
1.54429256976e-13
1.68353901315e-13
1.81063253473e-13
1.92509709339e-13
2.02971865444e-13
2.13217894529e-13
2.25377394848e-13
2.48360894079e-13
3.41612383568e-13
1.41216337216e-13
1.42148342916e-13
1.42982502213e-13
1.43093441425e-13
1.41806113076e-13
1.3846927471e-13
1.32856104388e-13
1.26771263043e-13
1.25722949058e-13
1.33579674949e-13
1.47317045728e-13
1.62520354173e-13
1.77030024132e-13
1.90265503464e-13
2.02345070764e-13
2.13664898949e-13
2.25127810356e-13
2.38922711952e-13
2.63968262829e-13
3.6127155259e-13
1.84522960449e-13
1.8412103006e-13
1.83159044644e-13
1.81283895571e-13
1.77995589123e-13
1.72647240234e-13
1.64636603187e-13
1.55272259398e-13
1.50592381223e-13
1.55539416115e-13
1.67276856452e-13
1.81311754637e-13
1.95432088268e-13
2.0899131432e-13
2.22142611777e-13
2.35385528793e-13
2.49919810265e-13
2.68336796915e-13
2.99987893751e-13
4.06570240612e-13
3.48841523692e-13
3.45672846272e-13
3.41257139066e-13
3.35859598697e-13
3.29431025317e-13
3.21255098257e-13
3.08874625252e-13
2.88392498153e-13
2.62141798693e-13
2.43350473877e-13
2.37921039762e-13
2.41641478275e-13
2.50266204821e-13
2.61646631888e-13
2.75270953563e-13
2.91481811729e-13
3.11998783821e-13
3.40293647044e-13
3.86801691031e-13
5.08527419207e-13
6.6153393512e-13
6.58449196341e-13
6.54404518298e-13
6.49947608804e-13
6.45290201864e-13
6.39770733616e-13
6.29748868247e-13
6.06039771015e-13
5.59595576191e-13
5.01862044468e-13
4.55495238412e-13
4.27681102905e-13
4.15115594934e-13
4.13764191665e-13
4.2135496818e-13
4.37437183658e-13
4.63668432826e-13
5.03835080393e-13
5.67444709294e-13
6.93005833575e-13
2.28535202239e-13
3.3876098643e-13
2.24802778525e-13
3.38715725392e-13
2.22008213324e-13
3.39274167563e-13
2.21801243703e-13
3.40194675309e-13
2.25924342408e-13
3.40785575717e-13
2.35273853915e-13
3.40766033995e-13
2.48570375312e-13
3.40135037783e-13
2.62232112169e-13
3.39313111918e-13
2.73828235513e-13
3.38963466217e-13
2.82983022354e-13
3.40666772702e-13
2.93813004815e-13
3.46678950905e-13
3.19691838256e-13
3.58716123162e-13
4.11252981718e-13
3.76404137301e-13
6.34648611297e-13
1.64383072343e-12
8.08362171211e-13
1.98368121448e-12
9.34979075816e-13
2.19730291565e-12
1.02474728529e-12
2.36468777114e-12
1.08037151389e-12
2.51931611173e-12
1.11626239806e-12
2.67220053336e-12
1.14549927659e-12
2.82330288552e-12
1.1729877246e-12
2.97049120839e-12
1.19906047109e-12
3.11139345214e-12
1.22554349209e-12
3.24537802591e-12
1.25354433651e-12
3.37194923686e-12
1.282602599e-12
3.49078708281e-12
1.3148076174e-12
3.59935977353e-12
1.34932704727e-12
3.69553715356e-12
1.38913671899e-12
3.7755359041e-12
1.43456141493e-12
3.83837039701e-12
1.48389483078e-12
3.88462508068e-12
1.53009259998e-12
3.91748964375e-12
1.55078736576e-12
3.9457851632e-12
)
;

boundaryField
{
    inletfuel
    {
        type            calculated;
        value           nonuniform 0();
    }
    inletair
    {
        type            calculated;
        value           nonuniform 0();
    }
    outlet
    {
        type            calculated;
        value           uniform 0;
    }
    axis
    {
        type            empty;
    }
    leftside
    {
        type            calculated;
        value           uniform 0;
    }
    burnerwall
    {
        type            calculated;
        value           nonuniform 0();
    }
    front
    {
        type            wedge;
    }
    back
    {
        type            wedge;
    }
    procBoundary1to0
    {
        type            processor;
        value           uniform 0;
    }
}


// ************************************************************************* //
