/*--------------------------------*- C++ -*----------------------------------*\
  =========                 |
  \\      /  F ield         | OpenFOAM: The Open Source CFD Toolbox
   \\    /   O peration     | Website:  https://openfoam.org
    \\  /    A nd           | Version:  7
     \\/     M anipulation  |
\*---------------------------------------------------------------------------*/
FoamFile
{
    version     2.0;
    format      ascii;
    class       surfaceScalarField;
    location    "0.09";
    object      phi;
}
// * * * * * * * * * * * * * * * * * * * * * * * * * * * * * * * * * * * * * //

dimensions      [1 0 -1 0 0 0 0];

internalField   nonuniform List<scalar> 
1572
(
-2.74692562209e-09
4.11881403521e-08
-1.14438233748e-08
1.22723738053e-07
2.03350018162e-07
-2.62745803402e-08
-2.67703763112e-09
4.51853134781e-08
-9.95214398505e-09
1.33937803145e-07
2.2245015956e-07
-2.25582197924e-08
-3.7403369299e-10
4.6961036212e-08
-3.63012184509e-09
1.41353677216e-07
2.35430947347e-07
-9.8666710238e-09
5.24215972222e-09
4.40320065477e-08
1.90198609142e-08
1.34449325401e-07
2.24344103319e-07
4.14109303827e-08
1.12966813062e-08
3.98270024897e-08
4.45149793099e-08
1.22275538592e-07
2.04181750374e-07
9.92882270183e-08
1.36105300535e-08
3.91072580657e-08
5.48029146391e-08
1.19385556088e-07
1.99336848467e-07
1.22934894808e-07
1.03098610823e-08
4.21136721302e-08
4.23181690677e-08
1.27225999937e-07
2.1243824661e-07
9.55194328755e-08
4.17802439885e-09
4.75446694237e-08
1.83412870358e-08
1.4195098875e-07
2.37546228967e-07
4.15365668116e-08
2.09621668781e-09
5.24497954288e-08
7.7790040721e-09
1.57264606539e-07
2.63267430246e-07
1.70886627573e-08
1.43580187449e-09
5.72109955286e-08
5.68365780819e-09
1.71555668489e-07
2.86871986909e-07
1.29415752966e-08
2.98909340451e-09
6.08423217325e-08
1.09308862645e-08
1.83401010489e-07
3.06490480688e-07
2.4186167481e-08
3.81172299355e-09
6.46862706802e-08
1.55526634987e-08
1.9453195361e-07
3.24988899417e-07
3.50632597542e-08
5.01438089171e-09
6.83594943263e-08
1.96863864047e-08
2.05842711045e-07
3.43919441337e-07
4.39780032312e-08
4.12384310559e-09
7.3447539688e-08
1.68880175951e-08
2.20662974284e-07
3.68612496057e-07
3.81178800047e-08
2.32606404775e-09
8.02332550901e-08
1.02223774318e-08
2.40074554386e-07
4.00610594316e-07
2.37193823492e-08
1.15162774684e-09
8.76705522623e-08
4.08050345301e-09
2.62881740295e-07
4.38587588418e-07
8.96524854498e-09
-1.29066206849e-09
9.68752412165e-08
-4.27704652548e-09
2.89582215353e-07
4.82822276786e-07
-9.0016951373e-09
-2.31225361321e-09
1.06475577433e-07
-8.77889736229e-09
3.17894932744e-07
5.29868903308e-07
-1.94123465666e-08
-3.00052618383e-09
1.16257940867e-07
-1.1526315037e-08
3.46755237582e-07
5.77883214775e-07
-2.56335252727e-08
-3.66812346289e-09
1.2632403585e-07
-1.32568877692e-08
3.7553119897e-07
6.25669994385e-07
-2.90371416612e-08
-2.069518033e-09
1.34504902343e-07
-9.68236624112e-09
4.01472680885e-07
6.69106915487e-07
-2.25338329037e-08
-1.97489607321e-09
1.4236512931e-07
-8.61121241459e-09
4.25767214473e-07
7.09714254896e-07
-1.97574713005e-08
-1.67124626613e-09
1.49718170588e-07
-6.92457220063e-09
4.48067456042e-07
7.47057848749e-07
-1.58091213303e-08
-7.46473204696e-10
1.55954147753e-07
-3.81842866483e-09
4.67616659689e-07
7.79860303533e-07
-9.122835414e-09
-1.35896670486e-09
1.62589477247e-07
-4.91825270478e-09
4.87013551371e-07
8.11867613793e-07
-1.04831309604e-08
-4.26759982601e-10
1.68048443904e-07
-1.78679184665e-09
5.03479715324e-07
8.39480023215e-07
-4.17166004902e-09
1.92508421732e-10
1.72598094895e-07
7.0874275633e-10
5.17200834488e-07
8.63038226236e-07
9.34470837068e-10
3.52315061782e-10
1.7662518795e-07
1.29634470456e-09
5.29406495491e-07
8.84032744357e-07
2.27948091421e-09
6.18819684524e-10
1.79914143613e-07
1.64814342395e-09
5.40112690885e-07
9.0183782217e-07
3.4789600106e-09
7.67349534511e-10
1.82476174282e-07
3.19101133149e-09
5.47696117883e-07
9.14351351609e-07
7.42085188004e-09
6.80199320121e-10
2.59061670687e-09
6.39938373593e-09
2.44834831661e-07
-4.49037970775e-08
2.66248040339e-07
-3.63003965071e-08
2.82261345036e-07
-1.81100851663e-08
2.69041312075e-07
6.79552020591e-08
2.45447580312e-07
1.63802726032e-07
2.39735552877e-07
2.03885722246e-07
2.55672053559e-07
1.58934744061e-07
2.84629351366e-07
7.07025408451e-08
3.15912235619e-07
2.7909870866e-08
3.4385912446e-07
2.19760188944e-08
3.68251118512e-07
3.91042766811e-08
3.89819272175e-07
5.8935865085e-08
4.12956244652e-07
7.25654036922e-08
4.42713041486e-07
6.33617040089e-08
4.81004208062e-07
3.99392959698e-08
5.27006535446e-07
1.43085254194e-08
5.79317216058e-07
-1.39626231398e-08
6.35413390217e-07
-3.18424210638e-08
6.92617055437e-07
-4.21513836696e-08
7.48784212001e-07
-4.6778986897e-08
8.01831764166e-07
-3.88477046593e-08
8.5113313103e-07
-3.36681606252e-08
8.96021314675e-07
-2.64990829778e-08
9.36412772207e-07
-1.64659867437e-08
9.73420040697e-07
-1.57012091368e-08
1.00590658503e-06
-6.32204014083e-09
1.03443746458e-06
1.01287803005e-09
1.06011534872e-06
3.0538842779e-09
1.0818605765e-06
5.39316272302e-09
1.09698674649e-06
1.24837640323e-08
1.13012477878e-08
9.13955399604e-07
7.41624563751e-05
1.33700452491e-07
9.93935219803e-05
-2.1615494554e-06
0.000123694757217
-4.95121708582e-06
0.000149267219344
-5.47788624161e-06
0.000177176371384
-3.64487181306e-06
0.00020864787676
0.000244695839344
-6.56715524442e-07
-1.20266811479e-07
9.06580063784e-07
-2.44478511434e-07
1.44380390209e-06
-4.28414261561e-07
2.13571216236e-06
-6.60840422345e-07
3.07951519258e-06
-1.05181335736e-06
4.59643534362e-06
-1.63022315163e-06
6.69884083027e-06
-2.36216480588e-06
9.3751053386e-06
-3.17855794429e-06
1.27226477092e-05
-3.98208335555e-06
1.69825253868e-05
-4.63768054559e-06
2.25184294939e-05
-4.96486929597e-06
2.98138338865e-05
-4.52899664202e-06
3.93977109878e-05
-2.69914261979e-06
5.24826329603e-05
-1.16883172757e-06
7.12047245583e-05
-2.34031504708e-06
9.24091717885e-05
-5.23296070216e-06
0.000115666346271
-8.54659138754e-06
0.00014344836803
-9.126597666e-06
0.000174536027733
-6.46996764513e-06
0.000209727288143
0.000247758675135
-1.37695215155e-06
-8.61529244361e-08
9.8442476956e-07
-1.62873217685e-07
1.5650495673e-06
-2.60833760428e-07
2.30503045688e-06
-3.57074402802e-07
3.32785792769e-06
-3.91710103153e-07
4.79143724066e-06
-3.80654306429e-07
6.72419754688e-06
-4.7605833319e-07
9.20466850832e-06
-6.64179517804e-07
1.22022884655e-05
-8.8398863858e-07
1.59324653553e-05
-1.04792971874e-06
2.07062308791e-05
-9.89466352589e-07
2.69237123346e-05
-4.02318053483e-07
3.50515445242e-05
8.58327301516e-07
4.59307419138e-05
1.4470521289e-06
5.99947067685e-05
-1.22778420152e-07
7.79386670319e-05
-3.92280460062e-06
9.9923929883e-05
-8.78874747724e-06
0.000129523477025
-1.1131738063e-05
0.000165132406492
-7.94690989065e-06
0.00020598546174
0.00024878363916
-1.83198203518e-06
-6.80319775115e-08
1.0611071037e-06
-1.51876586779e-07
1.68569394337e-06
-2.7467245285e-07
2.47320658587e-06
-4.00886452429e-07
3.49889667769e-06
-4.16763506507e-07
4.7533355965e-06
-1.67244830926e-07
6.1977007721e-06
3.80292760666e-07
7.97812263457e-06
1.22976594235e-06
1.01587871583e-05
2.41161988836e-06
1.29358250764e-05
3.95588742938e-06
1.65424169452e-05
5.88192363241e-06
2.13030519164e-05
8.11505863911e-06
2.76689819986e-05
9.57487197476e-06
3.71396415287e-05
9.61291447532e-06
4.88134763624e-05
8.04050315596e-06
6.38657526595e-05
4.25047226881e-06
8.39241324546e-05
-1.24331298954e-06
0.000112480436828
-5.58822905138e-06
0.000151237782501
-5.26159514319e-06
0.000200858271094
0.000250671824405
-1.28185516125e-06
1.62719256978e-07
1.01449786089e-06
3.09595721192e-07
1.61249740387e-06
5.41243607391e-07
2.34848706372e-06
8.87182614398e-07
3.24867975009e-06
1.3441138461e-06
4.30604292627e-06
1.87228064713e-06
5.5049007655e-06
2.51934800202e-06
6.90537338898e-06
3.29636272798e-06
8.63461747903e-06
4.21837099198e-06
1.08716831485e-05
5.32038291699e-06
1.37837792025e-05
6.70024734242e-06
1.75494815082e-05
8.35560818636e-06
2.25968939494e-05
1.09013279637e-05
2.94839690392e-05
1.34764362225e-05
3.88226894774e-05
1.4027657412e-05
5.29725378598e-05
1.18680938782e-05
7.24689669763e-05
7.28645812764e-06
0.000100765782789
2.35970633679e-06
0.000142556163548
2.51548140699e-07
0.000199807672475
0.000256090851429
3.16607839288e-07
4.00818988785e-07
9.25810812013e-07
7.7286916023e-07
1.4707152405e-06
1.31631994689e-06
2.13049340438e-06
2.06890803848e-06
2.9128910896e-06
3.0461450291e-06
3.81962528782e-06
4.23105818414e-06
4.86292008372e-06
5.59631352237e-06
6.11612367173e-06
7.13098085341e-06
7.70071631161e-06
8.83884728828e-06
9.78382325138e-06
1.06922219739e-05
1.25428703883e-05
1.24680588261e-05
1.62906567862e-05
1.38913815743e-05
2.13879761795e-05
1.46467179522e-05
2.82440670059e-05
1.44749218878e-05
3.7269394269e-05
1.40324999527e-05
4.97548595141e-05
1.27743656512e-05
6.78686205427e-05
1.09895846914e-05
9.57325548146e-05
1.04691619998e-05
0.000141044585629
9.41994212562e-06
0.000206322150202
0.000269359351333
3.35583573442e-06
5.01885480662e-07
9.03302928182e-07
9.63158443995e-07
1.4410667935e-06
1.60481241854e-06
2.10212753019e-06
2.42680915567e-06
2.90245772208e-06
3.39058276277e-06
3.87076305123e-06
4.44822935653e-06
5.02553515323e-06
5.61551979554e-06
6.38812909629e-06
6.80272856306e-06
8.21643178777e-06
7.9727920715e-06
1.06441418711e-05
9.12093482922e-06
1.38078186198e-05
1.03310762072e-05
1.78999814073e-05
1.17106243891e-05
2.32012740204e-05
1.32398112259e-05
3.01571682918e-05
1.45153846318e-05
3.94634867275e-05
1.49955032047e-05
5.254380087e-05
1.41076328764e-05
7.20515084793e-05
1.25870114995e-05
0.000102982744618
1.27727057128e-05
0.000153517986717
1.17450294372e-05
0.000220228086581
0.00028395658578
4.20082619115e-06
3.90759297901e-07
9.657244658e-07
7.5258605196e-07
1.54223476035e-06
1.24842645735e-06
2.26238844472e-06
1.9009126817e-06
3.11882051904e-06
2.65341027659e-06
4.21768946703e-06
3.42714012762e-06
5.60816103993e-06
4.07831039103e-06
7.38389907124e-06
4.65756190327e-06
9.65912838396e-06
5.21916388828e-06
1.25835171892e-05
5.77387786513e-06
1.63425729174e-05
6.29628905967e-06
2.11776058495e-05
6.74806365438e-06
2.74081497821e-05
7.11991934116e-06
3.55020087252e-05
7.4517801822e-06
4.619413715e-05
7.96044317318e-06
6.0953295287e-05
9.20134914453e-06
8.26242560466e-05
1.18632442363e-05
0.000117420770162
1.61327146524e-05
0.000171016747017
1.24909039846e-05
0.000238595182861
0.000296195691035
4.31885420782e-06
1.80118249837e-07
1.07412156807e-06
3.54050248384e-07
1.71322994269e-06
5.78712139239e-07
2.53023813421e-06
8.03854398218e-07
3.55034559925e-06
1.02053338611e-06
4.84930750049e-06
1.2110918985e-06
6.49578294612e-06
1.35842773769e-06
8.60209963287e-06
1.44873248729e-06
1.13019076022e-05
1.46401600478e-06
1.47682537333e-05
1.38698432383e-06
1.92145472337e-05
1.22333960832e-06
2.49165947596e-05
1.01640654018e-06
3.22583070379e-05
8.71671057448e-07
4.18117654273e-05
1.00297256158e-06
5.4464870399e-05
1.87217815008e-06
7.18502205466e-05
4.44187339165e-06
9.66436240865e-05
9.42198257826e-06
0.000134174388174
1.22678503975e-05
0.000188408163036
9.70544154826e-06
0.000249681316837
0.000301297950101
3.22102140051e-06
6.88734740713e-08
1.19087696447e-06
1.1567403393e-07
1.91611982454e-06
1.67159475076e-07
2.8387633452e-06
2.03511725778e-07
4.00329686932e-06
2.13778649831e-07
5.4827551738e-06
1.96547788898e-07
7.34294854799e-06
1.61438760268e-07
9.69584186475e-06
7.72738841219e-08
1.27279018131e-05
-9.21827971096e-08
1.66296910906e-05
-3.73051785783e-07
2.16337721323e-05
-7.74946268331e-07
2.80715696118e-05
-1.27503169485e-06
3.63983407491e-05
-1.75478807464e-06
4.72800058678e-05
-1.85023701096e-06
6.16586223112e-05
-6.54613641819e-07
8.10585010826e-05
2.49020472792e-06
0.000108018517447
7.06240465362e-06
0.000146295275917
8.94320180911e-06
0.000196930566549
6.56548017976e-06
0.000250540091928
0.000298617714227
1.70620314289e-06
5.73326028574e-08
1.29312632379e-06
1.09738927972e-07
2.0812663716e-06
1.79532432306e-07
3.08231114819e-06
2.58737348384e-07
4.34998555881e-06
3.39253214016e-07
5.95974699357e-06
3.89958049777e-07
8.00138496155e-06
3.71418760414e-07
1.05968450734e-05
2.88832686173e-07
1.38913995278e-05
1.56300999068e-07
1.80730985131e-05
5.44124711351e-09
2.33739510409e-05
-1.47605762801e-07
3.0175868072e-05
-3.24872933559e-07
3.90197002813e-05
-3.99372435426e-07
5.05602689175e-05
-1.27334135128e-07
6.57249480109e-05
1.00207205262e-06
8.57879194247e-05
3.47701241567e-06
0.000112833076977
6.9229594299e-06
0.000148809684726
7.77666343038e-06
0.000194170941584
4.60026018025e-06
0.000242775444532
0.000290133314272
4.54774069088e-07
9.45634972346e-08
1.3832344586e-06
1.79635631206e-07
2.22525434951e-06
2.97960179603e-07
3.29182713833e-06
4.49765132716e-07
4.64031540392e-06
6.35611279158e-07
6.3457082157e-06
8.51863209918e-07
8.50006524151e-06
1.09300841378e-06
1.12239079008e-05
1.3446279778e-06
1.46664896622e-05
1.58414217648e-06
1.9019020721e-05
1.7773212953e-06
2.45225129727e-05
1.95947242985e-06
3.14905081084e-05
2.29452132123e-06
4.03333200008e-05
3.0017807841e-06
5.16377604923e-05
4.22060770643e-06
6.63619639257e-05
5.94231032189e-06
8.57416985095e-05
8.29538673687e-06
0.000111109929056
1.01127710827e-05
0.000144080498767
9.21216729011e-06
0.000184838104168
4.59098989197e-06
0.000231013346841
0.000279787828366
-2.54013095941e-07
1.4841006661e-07
1.46187003785e-06
2.88335300858e-07
2.3495257798e-06
4.86143753879e-07
3.47156263823e-06
7.48189305128e-07
4.8865818088e-06
1.08015693233e-06
6.66940713511e-06
1.48515718042e-06
8.91180919653e-06
1.96500802792e-06
1.17303160752e-05
2.5189971869e-06
1.52679984843e-05
3.14545436307e-06
1.97050709637e-05
3.84277045699e-06
2.52663278558e-05
4.61339509311e-06
3.22375230723e-05
5.47296004671e-06
4.09755571016e-05
6.51162744828e-06
5.19196888052e-05
8.10288141702e-06
6.56073506578e-05
1.02716950478e-05
8.33655651756e-05
1.22038957625e-05
0.000106848363091
1.30409877496e-05
0.000136821259842
1.11543197464e-05
0.00017429319175
5.89975137633e-06
0.000219610109459
0.000271878543606
-4.9256400352e-07
1.78941651221e-07
1.54712061018e-06
3.46080342324e-07
2.48407472861e-06
5.84354108255e-07
3.66564273922e-06
9.04562508188e-07
5.15095494958e-06
1.31796702566e-06
7.01434517721e-06
1.83545216637e-06
9.34620948219e-06
2.46728785551e-06
1.22594776822e-05
3.22241936525e-06
1.58905757058e-05
4.10908715115e-06
2.04076016433e-05
5.13561885343e-06
2.60157092157e-05
6.30992832074e-06
3.29696327608e-05
7.63224477182e-06
4.15825421122e-05
9.07961385841e-06
5.22332931572e-05
1.05557646869e-05
6.53907199418e-05
1.21511778473e-05
8.19525015176e-05
1.36240056499e-05
0.000103521268423
1.36907546542e-05
0.000131484043562
1.12469197994e-05
0.000167073322026
6.12832693336e-06
0.000212151528298
0.000268388654864
-7.51859750467e-07
1.58952266602e-07
1.65571165607e-06
3.09788810913e-07
2.65565574215e-06
5.25465693829e-07
3.91417089471e-06
8.17157953354e-07
5.49087977898e-06
1.19639556717e-06
7.46118810847e-06
1.67639605171e-06
9.91417550068e-06
2.27095357106e-06
1.2960908802e-05
2.9942597654e-06
1.67333272471e-05
3.85833014318e-06
2.13934472505e-05
4.87198298825e-06
2.7135183077e-05
6.03795366374e-06
3.41939736629e-05
7.34111894717e-06
4.2858406318e-05
8.7093523878e-06
5.34948164565e-05
9.92373583488e-06
6.66092175709e-05
1.07931308872e-05
8.28989914009e-05
1.14105278291e-05
0.000103428848323
1.14646398296e-05
0.000129793420722
9.65823167436e-06
0.000164589259305
5.36022604658e-06
0.000210433740058
0.000269647084657
-7.63861738734e-07
1.07999530538e-07
1.79041162232e-06
2.15921624346e-07
2.86892790015e-06
3.70831172646e-07
4.22400402624e-06
5.79516471088e-07
5.91855681127e-06
8.49607154044e-07
8.02997236437e-06
1.18709482224e-06
1.06513347378e-05
1.59888284101e-06
1.3894741378e-05
2.09028019398e-06
1.78944186027e-05
2.6682548544e-06
2.28095224172e-05
3.33683347113e-06
2.88319929222e-05
4.09335671368e-06
3.61922310363e-05
4.9143710296e-06
4.51763519231e-05
5.74122014831e-06
5.61441501387e-05
6.46833672171e-06
6.95845147183e-05
6.91282643575e-06
8.6174579148e-05
6.82876897098e-06
0.000106910850127
5.99128578449e-06
0.000133270288122
4.60190691549e-06
0.000167596942227
2.62503129318e-06
0.000213288215099
0.000273804099345
-8.00338361667e-07
3.49503860438e-08
1.96063029729e-06
6.73545054926e-08
3.1398440592e-06
1.13863985119e-07
4.61861056274e-06
1.75993221656e-07
6.46428931397e-06
2.55513909795e-07
8.75778672116e-06
3.53255376527e-07
1.1597066964e-05
4.70527281839e-07
1.50982371417e-05
6.08470874559e-07
1.94007197924e-05
7.69281944663e-07
2.46681778141e-05
9.54720448409e-07
3.10982748244e-05
1.16546254549e-06
3.89258900605e-05
1.39385137658e-06
4.84436608586e-05
1.61666269302e-06
6.0016789765e-05
1.79415208868e-06
7.41315029936e-05
1.86069199999e-06
9.14581637398e-05
1.72189430398e-06
0.000112975706065
1.22630681433e-06
0.000140172570529
3.09475514405e-07
0.00017526823402
-9.22242251682e-07
0.000221166965804
0.000279553492174
-1.3245421654e-06
-3.09453641874e-08
2.15379780119e-06
-5.78420256055e-08
3.44775235469e-06
-9.68751424147e-08
5.06837749437e-06
-1.51585937066e-07
7.08846335798e-06
-2.26198121687e-07
9.59395532051e-06
-3.2683666477e-07
1.26896065029e-05
-4.60049484678e-07
1.64980447672e-05
-6.32830162829e-07
2.11672442687e-05
-8.50897092023e-07
2.68702191886e-05
-1.11774426685e-06
3.38156041684e-05
-1.43416618515e-06
4.22505692712e-05
-1.79912243563e-06
5.24811628151e-05
-2.20970199902e-06
6.48856663323e-05
-2.65440449137e-06
7.99565073614e-05
-3.10538356145e-06
9.83585761217e-05
-3.50182518005e-06
0.00012103537234
-3.70822955666e-06
0.000149357217219
-3.5037986315e-06
0.000185261243845
-2.75677940331e-06
0.000231032508752
0.000286967408107
-1.37975133477e-06
-7.68999136879e-08
2.36156407354e-06
-1.48059304183e-07
3.77939146951e-06
-2.50913873151e-07
5.55386293832e-06
-3.92592643374e-07
7.76383565877e-06
-5.81874199078e-07
1.05016821553e-05
-8.30083850297e-07
1.38800932241e-05
-1.15020932939e-06
1.80302345119e-05
-1.5559080645e-06
2.31105406059e-05
-2.05909946227e-06
2.93059759634e-05
-2.66676013654e-06
3.68382801848e-05
-3.38003767235e-06
4.59705675621e-05
-4.18901300878e-06
5.70227585344e-05
-5.06882022567e-06
7.03861300116e-05
-5.96662192267e-06
8.65557901031e-05
-6.78390878633e-06
0.000106178578689
-7.34038214702e-06
0.000130123365793
-7.33836726031e-06
0.000159579606407
-6.33857069878e-06
0.0001960659416
-4.07950597341e-06
0.000241215855943
0.000294472190731
-9.11020786902e-07
-1.02579821726e-07
2.57381487366e-06
-1.97807096892e-07
4.11850985061e-06
-3.35330902156e-07
6.05133982533e-06
-5.24026377522e-07
8.45747876591e-06
-7.75305459674e-07
1.14370223571e-05
-1.10343039631e-06
1.5111182719e-05
-1.52563175053e-06
1.96211226921e-05
-2.06005547432e-06
2.5136408711e-05
-2.72252460057e-06
3.18545249163e-05
-3.52199960043e-06
4.00103543212e-05
-4.45721117751e-06
4.98809633388e-05
-5.50944890952e-06
6.17964172334e-05
-6.63580624173e-06
7.6153624855e-05
-7.75351147403e-06
9.34379214301e-05
-8.71689011777e-06
0.000114255201519
-9.27902749771e-06
0.000139364572057
-9.06723330412e-06
0.000169737312019
-7.58602884037e-06
0.000206464995644
-4.5045386574e-06
0.000250600820148
0.000301343600928
-3.94512896114e-07
-1.11437919493e-07
2.78203477097e-06
-2.13149527248e-07
4.45150569064e-06
-3.59831064345e-07
6.54077110707e-06
-5.60610849701e-07
9.14158338704e-06
-8.27342810701e-07
1.23624410979e-05
-1.17499143475e-06
1.63336318082e-05
-1.62219511489e-06
2.12068710028e-05
-2.18897059786e-06
2.716281159e-05
-2.8923179713e-06
3.44103026659e-05
-3.74076141774e-06
4.31953172215e-05
-4.72788398161e-06
5.38030280394e-05
-5.82638166319e-06
6.65672072147e-05
-6.97942391564e-06
8.18788054567e-05
-8.0868035625e-06
0.000100198431826
-8.98146281117e-06
0.000122068797182
-9.40598302489e-06
0.000148124528585
-8.99426339125e-06
0.000179111421957
-7.3177482226e-06
0.000215764475697
-4.12394458849e-06
0.000258730044519
0.000307531723896
-2.34066200559e-07
-9.94637957974e-08
2.98001001807e-06
-1.94987421967e-07
4.76881105512e-06
-3.323162274e-07
7.00786380296e-06
-5.19767619973e-07
9.79613762775e-06
-7.67778719951e-07
1.32505149009e-05
-1.09010075102e-06
1.75110198891e-05
-1.50429590179e-06
2.27399277019e-05
-2.02992393939e-06
2.91285974337e-05
-2.68285924102e-06
3.68949179083e-05
-3.46896910046e-06
4.62920890151e-05
-4.37565422807e-06
5.76061296571e-05
-5.36788244287e-06
7.11662602448e-05
-6.38010252446e-06
8.73455960928e-05
-7.30627025665e-06
0.000106566518649
-7.98247943021e-06
0.000129295195414
-8.18050539838e-06
0.00015604294143
-7.60574331161e-06
0.00018735794135
-5.97593893141e-06
0.000223734426539
-3.23942026816e-06
0.000265653948528
0.000313077875343
-1.69036444448e-07
-8.52859101146e-08
3.16405604454e-06
-1.66451024585e-07
5.06415109279e-06
-2.82469481605e-07
7.44315771717e-06
-4.40032506776e-07
1.04076242214e-05
-6.46979470418e-07
1.40824805355e-05
-9.14451669015e-07
1.86181362473e-05
-1.25713341725e-06
2.41873019398e-05
-1.69203743204e-06
3.09913324402e-05
-2.23271266625e-06
3.92549054722e-05
-2.880608131e-06
4.92325141164e-05
-3.61761711015e-06
6.12040605777e-05
-4.40263062355e-06
7.54847371967e-05
-5.16768177377e-06
9.24209017634e-05
-5.81097620514e-06
0.000112386654108
-6.19302988168e-06
0.000135772556261
-6.14123807467e-06
0.000162982438413
-5.4659094549e-06
0.000194418179668
-4.06342576442e-06
0.000230463091673
-2.07093983652e-06
0.000271602430185
0.000318108406565
-5.029316123e-08
-6.68208351866e-08
3.3324292924e-06
-1.29458856074e-07
5.33414174789e-06
-2.1885254611e-07
7.84227455715e-06
-3.38484991374e-07
1.09689383062e-05
-4.94145377933e-07
1.48488894723e-05
-6.92396521376e-07
1.96412212347e-05
-9.44532520319e-07
2.55308008218e-05
-1.26289714058e-06
3.27268976565e-05
-1.65801380168e-06
4.14596227589e-05
-2.12603633536e-06
5.19771003186e-05
-2.64454943476e-06
6.45463668451e-05
-3.16957867977e-06
7.94597948938e-05
-3.63640514667e-06
9.70307905571e-05
-3.95909381702e-06
0.000117584019543
-4.037796082e-06
0.000141445829952
-3.77277770246e-06
0.000168941508336
-3.09936803205e-06
0.000200395901664
-2.09825450809e-06
0.000236203788062
-1.09809206672e-06
0.000276984730472
0.000322596118543
3.03403935569e-08
-4.50726710248e-08
3.48484000674e-06
-8.90915101928e-08
5.57883361784e-06
-1.51180719173e-07
8.20458855649e-06
-2.32118532298e-07
1.14790797363e-05
-3.3500033232e-07
1.55474216876e-05
-4.618020331e-07
2.05763190294e-05
-6.19386243945e-07
2.6763755527e-05
-8.14824363191e-07
3.43255691984e-05
-1.05381260057e-06
4.34943602051e-05
-1.32773504982e-06
5.45049377368e-05
-1.61026576237e-06
6.76028304571e-05
-1.85802730317e-06
8.30518175317e-05
-2.01550622302e-06
0.000101130715793
-2.02223535496e-06
0.000122121490903
-1.83083937306e-06
0.000146307480707
-1.423909225e-06
0.000173970917998
-8.65131627495e-07
0.000205436055394
-3.93261354342e-07
0.000241193669123
5.54517917106e-08
0.000281514058902
0.00032669397869
2.20863452079e-07
-3.38841687809e-08
3.62218289465e-06
-6.14057700409e-08
5.79968144728e-06
-9.82029170123e-08
8.53103316094e-06
-1.44287367762e-07
1.19401364505e-05
-1.98465192676e-07
1.61793093909e-05
-2.60056946044e-07
2.14251964252e-05
-3.30080081549e-07
2.78865690391e-05
-4.10499395859e-07
3.57862861286e-05
-5.00466494227e-07
4.53542943374e-05
-5.85464941062e-07
5.68043037891e-05
-6.36536137604e-07
7.03527727386e-05
-6.15133269549e-07
8.62325382385e-05
-4.84547539921e-07
0.000104693511154
-2.24187974788e-07
0.000125991897956
1.55785882968e-07
0.0001503936401
5.74730747451e-07
0.000178188596797
8.12702297993e-07
0.000209780947287
8.26735843266e-07
0.000245441948314
6.33279893666e-07
0.000285382641996
0.000330127050478
1.50642790849e-07
-1.57058744977e-08
3.74534356458e-06
-2.87747151208e-08
5.99753942696e-06
-4.52006347126e-08
8.82473744087e-06
-6.19888751233e-08
1.23550078789e-05
-7.66469662256e-08
1.67497274281e-05
-8.42269116145e-08
2.21929002768e-05
-8.22796003422e-08
2.89053199939e-05
-6.63501705468e-08
3.71130192438e-05
-2.91017438279e-08
4.70387724818e-05
5.29247014147e-08
5.88642153407e-05
2.08723053148e-07
7.27732819545e-05
4.66318555222e-07
8.89729369064e-05
8.3509972977e-07
0.000107699675047
1.28750963093e-06
0.000129207092148
1.73375859758e-06
0.000153778467083
1.98762092513e-06
0.000181752878689
2.036235068e-06
0.000213319783144
1.84587919445e-06
0.000248746533067
1.24706113797e-06
0.000288400082373
0.000332820786487
2.02458019178e-07
-2.72088252667e-09
3.85645891738e-06
-6.62531971947e-09
6.1760729004e-06
-1.08610348556e-08
9.09146107205e-06
-1.02518780783e-08
1.27320404241e-05
-2.43400519483e-09
1.72703478399e-05
2.21261677469e-08
2.28932962795e-05
7.28653534583e-08
2.98306636812e-05
1.67770364854e-07
3.8303781485e-05
3.31136523863e-07
4.85186892529e-05
5.88637191402e-07
6.06295838701e-05
9.51747820961e-07
7.48027955768e-05
1.41234228487e-06
9.12346736153e-05
1.93076470257e-06
0.000110162510102
2.43053092373e-06
0.00013184276373
2.80659216821e-06
0.000156550599931
3.02029494079e-06
0.000184522187303
2.91537964442e-06
0.000216032130016
2.35811706398e-06
0.000251306102843
1.23455360098e-06
0.000290714803431
0.000334431584179
-2.2639897019e-08
2.24857007159e-09
3.95668649989e-06
1.47745691031e-09
6.33882657312e-06
5.08443627977e-09
9.33190354735e-06
1.7056501188e-08
1.30720810378e-05
4.8528900497e-08
1.77328994132e-05
1.11650189701e-07
2.35095096151e-05
2.26533468242e-07
3.06320208447e-05
4.15773014406e-07
3.93193789416e-05
7.07173213605e-07
4.97548850667e-05
1.11795569059e-06
6.2069932187e-05
1.63973626765e-06
7.64233316713e-05
2.2375342118e-06
9.30107735908e-05
2.84738364881e-06
0.000112072299944
3.39387852916e-06
0.000133847466048
3.77413738515e-06
0.000158608529735
3.86914156043e-06
0.000186576808923
3.52506679779e-06
0.000218031135763
2.66224788262e-06
0.00025310038153
1.29363281114e-06
0.000292079560708
0.000334898999927
-7.39420484761e-08
1.3357859263e-08
4.03782424419e-06
2.80479271914e-08
6.46973053632e-06
5.50416226493e-08
9.52502317435e-06
1.01149230279e-07
1.33446476857e-05
1.79173362719e-07
1.81037058438e-05
3.04150835839e-07
2.40036845537e-05
4.97031193412e-07
3.12757514557e-05
7.78929561167e-07
4.01352367067e-05
1.17034972979e-06
5.07403357261e-05
1.68112584727e-06
6.31939178414e-05
2.29134662259e-06
7.76559717718e-05
2.95380073364e-06
9.43295039122e-05
3.58388002233e-06
0.000113470802859
4.09584061824e-06
0.000135296463156
4.35546365027e-06
0.000160100215372
4.27589897513e-06
0.000188026727326
3.7001213614e-06
0.000219392460843
2.62807765541e-06
0.000254137656386
1.07941955457e-06
0.000292550291122
0.000334153171027
-1.28858729673e-07
3.50244204956e-08
4.0914030283e-06
7.47260719338e-08
6.55476255422e-06
1.37618490146e-07
9.65140780892e-06
2.35601393254e-07
1.35218618475e-05
3.81838293337e-07
1.83467734258e-05
5.97143707749e-07
2.43276922546e-05
9.02812973501e-07
3.17014385705e-05
1.32131682746e-06
4.06777903894e-05
1.85786528825e-06
5.14024034504e-05
2.50573059074e-06
6.39444930621e-05
3.22289186919e-06
7.84725994283e-05
3.96439109568e-06
9.51804587109e-05
4.62437282427e-06
0.000114370474288
5.12367302046e-06
0.000136212598012
5.31379079207e-06
0.00016104600859
5.08488062395e-06
0.00018895067572
4.33514117e-06
0.000220205224336
2.92487916666e-06
0.000254761563987
1.15153683732e-06
0.000292497452046
0.000333187907955
-4.05553283906e-07
3.37652049707e-08
7.18068540339e-08
1.35580943609e-07
2.34871154839e-07
3.90527740862e-07
6.24226696621e-07
9.69483552165e-07
1.44876277112e-06
2.06676921822e-06
2.77265829615e-06
3.52239075949e-06
4.21811604464e-06
4.84506023738e-06
5.24833561571e-06
5.48152056529e-06
5.3137650112e-06
4.89454008385e-06
3.93115168642e-06
2.80309490623e-06
1.18587796584e-06
-2.15173822252e-07
5.16985132363e-05
4.80594934593e-05
-5.48654282836e-07
5.26136507718e-05
4.89496363126e-05
-7.78156858865e-07
5.32726595193e-05
4.95552034716e-05
-5.25095103333e-07
5.41293797925e-05
5.03028376501e-05
2.68867975564e-07
5.55749253525e-05
5.15963571596e-05
1.70297209999e-06
5.81934690712e-05
5.38989931301e-05
2.10272908621e-06
6.06360546479e-05
5.6087936757e-05
2.1253699371e-06
6.24186694112e-05
5.77720195516e-05
1.55718350273e-06
6.29473784223e-05
5.84426560181e-05
7.83228697897e-07
6.22314095835e-05
5.80830928046e-05
1.25349291696e-07
6.07411088576e-05
5.70569294126e-05
-3.27047571071e-07
5.91335330939e-05
5.582454248e-05
-6.39066410526e-07
5.80982548744e-05
5.48436589714e-05
-8.80950289432e-07
5.78243158906e-05
5.44971466338e-05
-8.01198461116e-07
5.83551883128e-05
5.50523264609e-05
-5.90540404022e-07
5.94497304025e-05
5.64266340188e-05
-7.69125390828e-07
6.07438856663e-05
5.79494609744e-05
-7.18679284133e-07
6.21770315509e-05
5.95838000234e-05
-3.75362274978e-07
6.37438103097e-05
6.14283143523e-05
-1.02959226738e-07
6.54081196242e-05
6.33202834773e-05
-6.37980320577e-08
6.69741932362e-05
6.50093305688e-05
-4.19738871654e-08
6.83354100096e-05
6.64772318495e-05
-4.00076355806e-08
6.95857596506e-05
6.77342122827e-05
3.6361723359e-08
7.06105464569e-05
6.88544601679e-05
2.18877339346e-08
7.1632287057e-05
6.97621884507e-05
7.64782544362e-08
7.23144182414e-05
7.05280526197e-05
6.03643823346e-09
7.29178059022e-05
7.10390759568e-05
1.13946370203e-08
7.31076002877e-05
7.13888719978e-05
-5.97650455143e-08
7.31660067318e-05
7.15053204042e-05
1.42661701462e-08
7.29815713333e-05
7.15085749712e-05
1.79225662297e-07
7.22380308846e-05
7.143766168e-05
4.76783051694e-07
)
;

boundaryField
{
    inletfuel
    {
        type            calculated;
        value           nonuniform 0();
    }
    inletair
    {
        type            calculated;
        value           nonuniform 0();
    }
    outlet
    {
        type            calculated;
        value           nonuniform List<scalar> 
26
(
1.84293571695e-07
5.53289755336e-07
9.23118565023e-07
1.10725781698e-06
4.12619874893e-06
6.61079103958e-06
9.73094225883e-06
1.3631933944e-05
1.84889352198e-05
2.45089397983e-05
3.19220826638e-05
4.09460308954e-05
5.17185802649e-05
6.43196799582e-05
7.88823114613e-05
9.56439955415e-05
0.000114814483811
0.000136690144272
0.000161385773113
0.000189251489538
0.000220168526201
0.000254533511802
0.000291590515221
0.000332342740774
7.26864906507e-05
7.13830603723e-05
)
;
    }
    axis
    {