/*--------------------------------*- C++ -*----------------------------------*\
  =========                 |
  \\      /  F ield         | OpenFOAM: The Open Source CFD Toolbox
   \\    /   O peration     | Website:  https://openfoam.org
    \\  /    A nd           | Version:  7
     \\/     M anipulation  |
\*---------------------------------------------------------------------------*/
FoamFile
{
    version     2.0;
    format      ascii;
    class       volScalarField;
    location    "0.09";
    object      Qdot;
}
// * * * * * * * * * * * * * * * * * * * * * * * * * * * * * * * * * * * * * //

dimensions      [1 -1 -3 0 0 0 0];

internalField   nonuniform List<scalar> 
815
(
10208966.9773
10794925.064
12230188.0666
11560600.116
12167895.1684
13504562.7453
13346162.9097
13825210.9689
14976220.8726
22538645.7393
23001371.392
24013343.7381
60040202.6112
59081914.913
57028085.8837
22864485.0088
22694421.5385
22084791.2553
6373790.87019
6354159.12983
6239958.07716
1518257.59793
1515886.47588
1496932.38407
443622.220598
441346.069107
436875.838701
164525.362148
164090.071476
162777.958539
70697.1131282
70505.0163675
70041.0826706
32037.4596568
32003.4102921
31845.7201598
14777.6895671
14771.3447986
14710.9657954
6989.18664826
6982.20210485
6957.22295408
3563.31814834
3560.35301675
3546.73175457
2097.06420651
2091.65796501
2081.38274474
1455.90981252
1452.04105005
1443.42342734
1154.58313202
1151.03284425
1143.25908148
983.256090815
980.127028937
973.241059358
857.631675738
854.924412887
848.974313706
744.491697055
742.446812023
737.601320801
634.417540637
632.514267528
628.685325018
525.156823905
523.910244519
521.034647653
421.216248975
420.154360473
418.066278988
325.72662581
325.062200066
323.63527373
243.192112397
242.744230211
241.784777254
176.322389248
176.023683222
175.389665535
128.568988049
128.358480174
127.919719191
106.715852135
106.553634577
106.195614473
107.203928891
107.104849543
106.881358206
82.5542876376
82.5540403464
82.5312930873
14321272.0565
15502626.4897
16679948.4796
25589346.3754
54218176.8917
21227739.8023
6057107.03735
1467529.64808
429694.242655
160796.412956
69317.1216651
31599.0622353
14615.5910366
6917.14683892
3526.82826559
2067.25600843
1432.04774826
1133.11449792
964.306163488
841.350282475
731.413303859
623.786058867
517.455766177
415.499906015
321.949577226
240.698599215
174.709028876
127.470059285
105.81413753
106.567155371
82.4533016975
300194.073722
62247.1867188
14380.0371688
4357.30494068
1566.01350208
492.703920798
132.632382026
19222222.5561
31685875.776
54568276.1649
95534701.2392
56340119.1353
24673491.1822
10104652.9522
4402715.63608
2256825.99833
1324725.12918
857961.73321
587209.067654
390745.281566
130951.069697
40428.1156876
16144.2157887
7761.69616534
3518.0472894
1171.77049984
292.177567996
20156803.5018
32187174.8762
55096445.5097
63858124.389
30864395.4694
13085638.8953
5254166.50524
2328634.63902
1224725.92625
725066.606847
462732.770051
308677.733018
204524.36862
96556.0112806
47295.2802448
26592.0115242
15177.7007987
7583.04676866
2625.86166414
573.897919642
20817629.9107
31776267.0374
53234742.7793
37122193.0094
18314885.2086
8199244.45307
3687368.14675
1870276.41822
1074311.32933
663307.253776
426624.512839
281460.202332
186713.078589
112873.990745
68807.4130798
43323.1009003
26253.3133344
13685.5446176
5005.0256799
974.98208949
29386398.5883
39532709.0674
43806935.9684
25642958.2237
13894094.8667
7161762.33058
3765138.64576
2119863.49325
1271404.01637
791214.856352
502845.700206
324142.206294
210437.982425
134896.789785
87208.8444902
56674.1654291
35242.6786932
18914.1454502
7194.36259861
1319.64701089
48176382.8914
37093099.3859
25540472.3217
16231620.7225
9667819.03826
5563225.86982
3225307.46809
1932185.07573
1196122.71171
757200.768043
486674.659565
316236.527769
207009.315365
135856.462651
89795.4627284
59467.0071408
37757.9811215
20555.33506
7939.32910382
1413.11596639
19277575.9716
15437412.125
11222794.8709
7551468.76112
4793815.731
2955792.34323
1829491.17865
1156513.10008
745958.616509
488193.487544
323774.422803
217803.842826
148693.774659
102907.376291
72165.7143998
50596.0144246
33345.6927112
18243.2962636
6889.11080261
1212.42395234
5632461.37786
4671655.80019
3560263.15873
2533767.06999
1723845.99152
1148756.13228
768472.429686
520405.360543
355862.268346
245328.018195
170983.281737
121134.529302
87576.8183891
64678.2741886
48678.1504488
36568.8415623
25251.1961695
13878.2458916
5023.35798218
897.379901964
1395342.11277
1206405.72157
979248.043528
752873.695923
561583.833462
410618.420206
297487.873107
214417.906905
154513.951125
112023.750378
82366.5354135
61918.7101917
47760.1785273
37755.3306825
30353.4154455
24141.0772244
17265.4291641
9356.12031486
3228.85000623
599.707888279
413638.417086
371828.623042
320064.932624
264103.752405
211422.966572
164657.059208
125661.596816
94647.6469465
71095.3281823
53851.4391921
41567.5149938
32914.9968312
26735.8026911
22162.796352
18524.2240241
15133.0561317
10908.7484957
5788.26072103
1988.34556295
383.468930373
156196.003956
144534.690123
129247.885718
111518.165271
93289.6180977
75758.3454645
60145.0769856
47114.3663451
36817.7193876
29013.3033206
23263.9151644
19055.8872571
15908.7241584
13436.8420292
11331.0439807
9234.10774045
6579.90003509
3512.15590692
1253.19767352
253.980980677
67724.0803009
63799.0119791
58441.4789962
51951.2276974
44913.7503571
37836.463094
31258.2389226
25514.4982563
20747.0591994
16934.0494492
13961.9448259
11657.7642143
9828.85003858
8311.20157354
6963.01939003
5594.63696998
3956.49979589
2186.29394574
825.688602823
188.532330945
31027.2795041
29604.0123712
27609.5229157
25132.8039009
22358.9973436
19481.1882121
16705.5093908
14170.9584606
11950.0223026
10059.3776143
8480.58166025
7166.1220298
6053.52424153
5089.78608533
4222.35232935
3358.55748304
2390.08658665
1377.66687652
559.827627856
156.607900826
14401.9351126
13880.6400963
13139.7198467
12203.5646416
11129.436652
9983.35267259
8836.009591
7737.78762625
6719.75544046
5797.72175262
4977.21097888
4250.7781479
3601.68754789
3018.1237364
2487.08117553
1973.84306006
1425.8900378
858.181551631
382.648516639
134.243186035
6831.70023194
6631.95925155
6347.25942027
5983.4655336
5558.75637703
5094.60388593
4613.39519844
4131.4146875
3661.10714238
3212.70650781
2794.58315673
2408.92553745
2052.74631317
1725.17663322
1422.95883749
1133.7422079
834.525933287
525.8547618
261.346045687
111.325935988
3483.17133799
3390.47344283
3260.53682387
3095.42594743
2902.67536281
2690.23964322
2465.38905307
2233.3739499
1999.81215812
1771.12826198
1553.25005141
1348.51780982
1156.57435522
977.607207012
810.385003604
649.847998452
486.589813938
320.658332442
176.931623476
85.8802538342
2037.20370113
1978.54359231
1898.27089638
1798.56397234
1684.42210901
1560.52852793
1430.27489206
1296.21281869
1161.6474154
1030.43856716
905.564811954
787.900318015
677.115455254
573.113972734
475.403935581
381.998840338
289.425357132
198.273482223
118.81950067
60.8938179141
1407.90528877
1360.94462557
1297.31185261
1219.38964656
1131.6102207
1038.16529001
942.090615786
845.772178524
751.739719848
662.180091291
578.170157886
499.693110063
426.330928014
357.920023451
294.303646917
234.817457416
178.355959662
125.311465336
78.8775823761
40.3778667094
1112.0703857
1070.97176683
1015.0736565
946.399946691
868.944900907
786.899386779
703.725853167
622.270774562
544.90634789
473.024520507
406.898772069
346.211117334
290.543677321
239.711924733
193.625598758
152.011908863
114.416624818
80.7753469435
51.495950443
25.6825054534
945.950930193
909.966704844
860.456582987
798.707802954
728.012342509
652.351656037
575.510835209
500.861254658
431.003756245
367.231121918
309.685202826
258.000625102
211.747803227
170.668898513
134.578859335
103.191723107
76.087754706
52.8780286059
33.1596803945
16.0095273582
825.801751607
795.348436674
752.826081878
698.669959032
635.240296745
565.938583639
494.498315368
424.659171252
359.474050983
300.570926821
248.277041362
202.256134139
162.040068511
127.273238331
97.6377077533
72.7352349539
52.0567261866
35.0677253601
21.2282522897
9.91537130404
718.798230813
694.206428014
659.317873895
613.810634229
559.04833466
497.560440116
432.620307363
368.03876027
307.363350084
252.779552448
204.916293444
163.473636596
127.943524575
97.9059203008
72.9601596446
52.6285948873
36.3397279043
23.511984044
13.6079363168
6.15547157969
614.023080698
595.201059672
568.052153078
531.71084972
486.650580186
434.417477316
377.503438567
319.429384217
264.118615121
214.381616345
171.147134645
134.113084856
102.756305225
76.6772183877
55.4846879673
38.6865877022
25.6911612551
15.9023108306
8.77527301005
3.85282377465
510.315545146
496.744100969
476.802945305
449.348350536
414.185779949
371.955365864
324.20548182
273.845770001
224.953485723
180.916132791
142.852503637
110.376436922
83.0062004627
60.4815637716
42.5131415832
28.6427899856
18.2822317795
10.8236103342
5.70615134529
2.4399219368
410.551181311
401.379728049
387.621034337
368.072344876
342.137185191
309.753587275
271.552561579
229.637632447
188.001116271
150.450528952
118.07666548
90.3118234423
66.8229485262
47.612891249
32.5453832222
21.2126534653
13.0378037751
7.40535981086
3.74641689477
1.56389120671
318.757815469
312.997036705
304.12906237
291.049287351
273.005160871
249.476574215
220.363882793
186.960449434
153.007910474
122.450062942
96.0166871408
72.9436202632
53.2095376469
37.1383027669
24.7378043486
15.6420853582
9.2902056486
5.0834633267
2.47739182345
1.00890105398
238.74239182
235.389351725
230.052112787
221.822654085
209.951243554
193.704358013
172.514030326
147.053652196
120.745468636
97.2069584269
76.4843310282
57.8165976595
41.6333082727
28.5213572635
18.5664523325
11.4295636161
6.58604381613
3.48649128031
1.64139909441
0.649551747479
173.562755525
171.702527823
168.626107217
163.659829815
156.164972634
145.373548468
130.502958407
111.882536053
92.5721185745
75.3317711009
59.5281352994
44.7507121538
31.8308428444
21.4481136662
13.6887997003
8.23716471185
4.62549962759
2.3772689144
1.08134987843
0.411417432848
126.745166988
125.52016258
123.510833254
120.307196247
115.455821622
108.262043653
97.8732651775
84.3911075556
70.370097619
57.6355513945
45.4329211172
33.8343440886
23.7624390559
15.777848822
9.90379014033
5.84652427108
3.20996321236
1.6044849223
0.703084461371
0.25212990956
105.109110631
103.642272234
101.534363408
98.7057466032
94.9482871504
89.6697905523
81.7690816827
70.5195158377
57.7498377615
45.8706511604
35.0974643476
25.526792495
17.5947879653
11.4900936847
7.09386303179
4.11120540908
2.20804709658
1.07211872391
0.449389876031
0.146889751387
105.838731922
104.202518218
102.110302404
99.7251109101
97.0596790668
93.5773884126
87.6144073399
76.3475810438
59.7375634025
43.2377353717
30.3038247074
20.6986568826
13.6660614295
8.6447866704
5.19697846613
2.93441571592
1.53104907264
0.715984869752
0.282736019782
0.0803397318942
82.2542302333
81.8016979617
81.3231613873
80.8918037735
80.5437192102
79.940588779
77.9550762168
71.9408857102
59.3529243629
43.0609043651
28.8395527922
18.5569972154
11.5833729314
6.97656026746
4.01167606233
2.1686603173
1.07799870335
0.474530643955
0.171088346515
0.0404964510031
61.9289130272
25.5723767016
139.974304136
58.4677698608
267.865435716
112.201436038
426.456014712
176.705016113
538.356624981
213.425543223
558.239707285
204.065050147
476.228101478
161.468997188
349.219792024
113.435645464
226.752155633
75.757907382
140.187247022
53.1949633422
93.2628566898
42.7801845644
72.8136810715
37.3679347064
65.4463894592
26.4222575732
62.9351846624
47.8739203345
44.5794077087
19.3361290419
27.6860819861
7.51995332862
16.9443121401
3.36799788573
10.8090586278
1.85757512803
7.27119056852
1.20975405743
5.0763499323
0.857184249009
3.54583025715
0.616003372386
2.45923613806
0.44129426184
1.69538498907
0.313238552349
1.16012166659
0.220003977965
0.789517754395
0.152040774082
0.527302636273
0.102452242575
0.343259261776
0.0661408929351
0.211471847778
0.0398966461383
0.11970008964
0.0217179859378
0.0590555631648
0.0102831408525
0.0244983565341
0.00423112336169
0.00926824391999
0.00169460698126
)
;

boundaryField
{
    inletfuel
    {
        type            zeroGradient;
    }
    inletair
    {
        type            zeroGradient;
    }
    outlet
    {
        type            zeroGradient;
    }
    axis
    {
        type            empty;
    }
    leftside
    {
        type            zeroGradient;
    }
    burnerwall
    {
        type            zeroGradient;
    }
    front
    {
        type            wedge;
    }
    back
    {
        type            wedge;
    }
    procBoundary1to0
    {
        type            processor;
        value           nonuniform List<scalar> 
27
(
7607136.94316
8172725.04565
9395122.22561
11215698.9146
810964.488646
147978.710476
22919.8402241
3721.63390021
794.226215943
210.343103153
57.3628878752
15403454.3441
25971796.2773
45145948.9241
78737227.3713
118401173.246
56427238.2699
25785878.1907
11996029.4465
6204400.4201
3627835.34237
2363889.847
1625843.66131
1059856.56296
1059856.56296
25.322574873
10.2284279471
)
;
    }
}


// ************************************************************************* //
