/*--------------------------------*- C++ -*----------------------------------*\
  =========                 |
  \\      /  F ield         | OpenFOAM: The Open Source CFD Toolbox
   \\    /   O peration     | Website:  https://openfoam.org
    \\  /    A nd           | Version:  7
     \\/     M anipulation  |
\*---------------------------------------------------------------------------*/
FoamFile
{
    version     2.0;
    format      ascii;
    class       volScalarField;
    location    "0.09";
    object      T;
}
// * * * * * * * * * * * * * * * * * * * * * * * * * * * * * * * * * * * * * //

dimensions      [0 0 0 1 0 0 0];

internalField   nonuniform List<scalar> 
815
(
2027.91926717
2036.48285801
2054.17302441
2210.48493816
2216.76970471
2229.63929399
2354.62300528
2358.72035765
2366.98058295
2441.92216048
2443.80355622
2447.60998899
2350.1545404
2350.44998579
2349.75560786
1973.51038077
1975.02338722
1974.67691298
1591.99147522
1593.16741513
1592.79700371
1360.08360632
1359.93067228
1358.88180823
1225.90084546
1225.38016477
1224.23080149
1129.69661913
1129.326685
1128.4788207
1042.98097203
1042.80063116
1042.33355934
955.90184632
955.963337411
955.89358242
870.434958354
870.575255532
870.732287117
792.827029996
793.043973828
793.34859832
728.691048451
728.884963014
729.235911713
678.956165906
679.114217712
679.458998733
641.401016841
641.560945672
641.891926828
613.055117418
613.178911234
613.463026867
591.018110381
591.113129963
591.344946496
573.227582355
573.297252653
573.476810683
558.299219777
558.338284142
558.462772221
545.239106972
545.268348451
545.352055361
533.499432407
533.516296897
533.563201689
522.70099444
522.70446493
522.717341005
512.596677398
512.589189843
512.572725186
503.08498165
503.062003404
503.013642192
494.081705943
494.045658159
493.968813913
485.609357556
485.561878284
485.460250564
477.804406439
477.745522683
477.61960994
470.842107339
470.774425546
470.624757284
465.163411559
465.087403386
464.918075544
2076.91470782
2245.93932771
2377.34656778
2452.09852856
2347.77766373
1972.68451243
1591.30440318
1357.08573322
1222.43788503
1127.15511992
1041.55785227
955.675706892
870.845858468
793.68836652
729.668877072
679.910722868
642.334438017
613.850249408
591.666281413
573.728439237
558.640551442
545.471610655
533.629491454
522.7343998
512.547731975
502.944285518
493.85953083
485.31533384
477.439184404
470.410105805
464.67752888
499.200793905
393.240275365
345.784048138
320.551965991
305.137964251
297.150548526
296.689126272
2123.29429489
2192.46245153
2231.32360892
2177.41870274
1942.48168647
1656.31412058
1408.21079573
1216.20753941
1067.77283712
945.825784253
839.544655691
743.475635881
646.227210499
520.771968561
439.04552385
389.038982228
351.029827237
321.289232227
303.362967994
299.010925109
2278.67577519
2322.38295974
2325.17617884
2206.65469861
1959.08111259
1698.38713155
1478.09191193
1305.17951372
1166.86947437
1048.50256476
940.075960357
836.461311854
733.535655085
628.412119409
546.835130276
478.781223953
412.54469431
354.082086143
315.651807172
302.799198365
2397.70727408
2418.89331162
2393.97666804
2244.75425542
2025.98224286
1808.79420256
1623.05039501
1472.34296351
1345.86695608
1232.89537902
1125.64626154
1019.76432695
914.027088977
811.27402592
717.195680423
623.528640163
517.559146766
408.935843482
335.143906294
308.314971989
2459.85365776
2458.92001332
2408.50231798
2277.02500376
2106.49665376
1935.78244047
1782.45612272
1649.15007852
1530.82198886
1421.59568952
1316.68584043
1212.76815438
1107.69488485
1004.42746517
901.971943351
786.845859686
641.141149582
473.737293196
355.340522625
314.426027505
2341.20402486
2313.49382654
2251.08579611
2147.54591625
2020.59455214
1889.93948043
1767.07184402
1654.98381587
1552.1255309
1456.25292979
1365.75033144
1279.00841848
1194.18056387
1109.36008223
1017.72201053
900.7364803
729.806531882
514.310108648
367.184497295
320.32352262
1966.14746044
1938.63767302
1888.77949406
1816.83288472
1731.188245
1641.11726091
1553.01931652
1468.87269023
1388.79629631
1313.39929728
1243.92906092
1180.62284969
1122.07793516
1064.80260033
999.618481744
902.332420135
732.559755958
507.693448303
367.37534972
326.451765547
1586.54861991
1567.47218136
1536.0193777
1492.44872827
1440.27137192
1382.31548124
1321.68900299
1259.99321037
1198.61585244
1139.62562706
1084.88571099
1035.04473192
989.043975977
943.757249614
890.776469388
808.342227926
660.348043762
473.385686105
364.822260125
335.422997618
1352.5994027
1338.76204236
1317.90746079
1289.13666139
1253.92578839
1212.60081024
1166.3910949
1116.5679145
1065.18245126
1014.47892484
965.918696536
919.674986361
874.582073608
828.019620177
773.774190517
697.715360489
579.506505236
444.403081326
368.371495049
349.762499247
1218.35594434
1207.7729295
1192.37934112
1171.18533341
1144.31365918
1111.56343746
1073.5882261
1031.47904806
986.950493111
941.639745045
896.394267126
850.957212561
804.153206906
754.066065498
696.854059699
625.47531353
532.664396504
437.841378244
384.705875155
371.293608479
1124.15795573
1116.6549805
1105.52420142
1089.99457567
1069.71559322
1044.28035827
1013.93976938
979.435945584
941.95568406
902.599411287
861.797270542
819.132483632
773.593327935
723.850937106
667.775237725
602.726172502
527.839402789
457.607260708
416.01753397
400.522662408
1039.80579732
1035.23692548
1028.22243372
1018.12284183
1004.4244491
986.637130071
964.69082792
938.891518926
909.916346532
878.413976573
844.58180143
808.038911698
768.071629402
723.787425101
673.94627901
617.589883379
556.034164009
499.539719024
460.644592152
436.131095372
955.121507563
953.1787959
949.901761071
944.75742
937.201611294
926.707560555
913.011949686
896.135137461
876.380923938
854.085041129
829.303438548
801.693762102
770.696335456
735.666182544
695.766003192
650.498012118
600.968859439
553.176731114
512.121997804
474.000587717
871.112786815
871.142172977
870.753619863
869.488382236
866.837895612
862.289109326
855.499091226
846.340116512
834.914752049
821.38602469
805.765334075
787.777458025
766.957367972
742.813492818
714.62946499
681.689754398
644.077342108
603.535493995
559.605528932
507.823495981
794.444345303
795.702262173
797.162265276
798.434434496
799.070458299
798.597289894
796.655159146
793.053071693
787.801766702
780.994431754
772.661962505
762.629249191
750.559358355
736.054362928
718.484886124
696.904986635
670.128686464
636.630237999
592.237358359
532.298667457
730.608138194
732.472084145
734.892828415
737.547117437
740.04864892
741.964750491
742.932709272
742.725122578
741.296188603
738.704898036
735.00637178
730.126844987
723.872105676
715.938612492
705.756428118
692.275907418
673.611368042
646.414392749
604.924878424
545.116894967
680.862759505
682.919227787
685.692629692
688.933125823
692.307305212
695.417539958
697.888821981
699.454090301
700.007298824
699.568078852
698.191900028
695.874068095
692.520903767
687.91290296
681.555471194
672.430817106
658.554488286
636.381984652
600.551928954
547.912179436
643.251215517
645.255665588
648.011294901
651.340004922
654.960825085
658.506636163
661.587807807
663.889397503
665.239560908
665.606275351
665.025266942
663.523447162
661.062382345
657.485780876
652.394474621
644.937396978
633.462025682
615.161846161
586.139824968
544.036910797
614.671020998
616.48437128
619.013834103
622.140428103
625.635585503
629.166174007
632.335569464
634.783552802
636.273312017
636.717943225
636.129565134
634.549519816
631.979428606
628.32549907
623.307353979
616.314448217
606.190122534
591.081677986
568.584690999
536.944122529
592.358660156
593.904759885
596.091855804
598.848793358
601.999741826
605.253594497
608.222188842
610.512298036
611.829939524
612.039031026
611.135190856
609.177016034
606.213609273
602.227855533
597.073815791
590.389512278
581.481102576
569.286284458
552.470406733
529.605324895
574.278671355
575.523731645
577.311059231
579.606425818
582.285291848
585.107326576
587.713300126
589.698270891
590.726271153
590.622672913
589.376836364
587.07596222
583.828455907
579.704522591
574.691103796
568.64099078
561.213184389
551.875997925
539.89285959
523.868730338
559.043594501
559.98077351
561.349623087
563.141781099
565.278733676
567.57662353
569.725007053
571.333927438
572.047529296
571.667518409
570.187222551
567.73264399
564.476849676
560.575609156
556.130294513
551.155021206
545.541834141
539.053034694
531.19299783
520.366054347
545.740578946
546.381589932
547.337875429
548.618473412
550.182572328
551.903281687
553.533430175
554.725584566
555.132607527
554.552433774
552.993782532
550.62533858
547.679216715
544.381960871
540.918169375
537.40374616
533.857735895
530.158908423
525.826371343
518.922561498
533.775783354
534.141393994
534.706335955
535.489397277
536.477667935
537.596162951
538.667736976
539.412103675
539.524385651
538.825832144
537.35286415
535.313641916
532.982655496
530.630324826
528.485704811
526.70998037
525.364043493
524.325300123
523.004793972
519.090509049
522.769511117
522.883608725
523.086698689
523.399569141
523.829121279
524.342980238
524.833871996
525.106589219
524.934535103
524.196831636
522.971527594
521.493612158
520.052487783
518.927538537
518.352087183
518.484476181
519.365223526
520.801981429
522.053337074
520.461391919
512.484561375
512.371836844
512.24499719
512.122583981
512.024477899
511.951125681
511.860569943
511.654163512
511.218845868
510.530588981
509.719571041
509.024316371
508.712430475
509.033661094
510.189446843
512.29986029
515.349449552
519.053597742
522.517028872
522.775099935
502.786555161
502.468139641
502.041508689
501.5216017
500.935477741
500.31014819
499.663543019
499.003047429
498.361592852
497.84390656
497.627102238
497.918192575
498.924185409
500.833807932
503.792770661
507.86683068
512.975371275
518.744133052
524.142863774
525.910313853
493.615706128
493.109369938
492.410519025
491.530070232
490.501093705
489.373962471
488.226014644
487.182851441
486.449759296
486.267705551
486.829997837
488.272309252
490.713788823
494.267479921
499.017186936
504.973567642
511.998575111
519.65526231
526.797319727
529.818100262
484.992214733
484.309893747
483.359528424
482.150070671
480.72296976
479.151920497
477.578873777
476.265609344
475.607256239
475.954922941
477.461670589
480.157815598
484.067290985
489.231462343
495.680842886
503.385918142
512.179561234
521.589050834
530.364808896
534.421185514
477.036843594
476.181717364
474.98923499
473.471730972
471.680558737
469.713645806
467.779609518
466.295019172
465.868956246
466.921600264
469.486577461
473.461575578
478.787527992
485.454743285
493.46271185
502.766428599
513.195104622
524.271907591
534.64144394
539.466987488
469.931863987
468.914122075
467.495743927
465.694467163
463.571971449
461.247698383
458.985433642
457.342071623
457.161768919
458.957619221
462.600995559
467.817734408
474.466172674
482.504595363
491.922372958
502.678345243
514.61717946
527.267093777
539.143779474
544.277829587
464.140142249
462.995472785
461.39775024
459.368431648
456.977702247
454.363742584
451.831832135
450.032926984
449.985253005
452.331145115
456.864574762
463.151834345
470.953643179
480.181091439
490.813429176
502.800618358
516.003930891
529.917453349
542.923841327
547.815706384
308.191753664
317.814578832
311.078808964
321.871937815
314.501630015
326.392126221
318.783779271
331.741292847
324.398922511
338.66974204
332.008177641
347.850430964
342.501320601
359.900402142
356.670125779
375.104380678
375.124568172
393.417055516
397.63021698
414.157566763
422.911984507
436.0115475
448.910698657
457.122120986
472.425898788
474.733793944
490.075428196
484.943593961
500.067253485
487.368996315
502.940358157
484.376864964
501.079242393
478.826099129
497.321516131
473.069155444
493.681510871
468.496856232
491.146181127
465.53887154
489.931212997
464.050062168
489.957165716
463.731474211
490.947608249
464.24350172
492.608772974
465.306946124
494.739102908
466.677988907
497.125920016
468.178113882
499.659112048
469.608064059
502.115456568
470.812016669
504.272622933
471.645548996
505.791189423
472.137900983
506.487233479
472.635207805
506.775193904
473.614118141
)
;

boundaryField
{
    inletfuel
    {
        type            fixedValue;
        value           nonuniform 0();
    }
    inletair
    {
        type            fixedValue;
        value           nonuniform 0();
    }
    outlet
    {
        type            zeroGradient;
    }
    axis
    {
        type            empty;
    }
    leftside
    {
        type            fixedValue;
        value           uniform 294;
    }
    burnerwall
    {
        type            zeroGradient;
    }
    front
    {
        type            wedge;
    }
    back
    {
        type            wedge;
    }
    procBoundary1to0
    {
        type            processor;
        value           nonuniform List<scalar> 
27
(
1802.76701156
1813.38262526
1835.11133107
1863.55466118
565.538246632
394.938590791
332.176140291
307.893586971
298.03976507
294.36295004
295.278081771
1922.92610973
2020.76882829
2108.25577991
2134.27493562
2018.95391562
1752.82084357
1485.30754095
1267.25628306
1099.823852
969.314508182
865.300163564
780.73234012
684.533422602
684.533422602
305.595473108
313.998038646
)
;
    }
}


// ************************************************************************* //
