/*--------------------------------*- C++ -*----------------------------------*\
  =========                 |
  \\      /  F ield         | OpenFOAM: The Open Source CFD Toolbox
   \\    /   O peration     | Website:  https://openfoam.org
    \\  /    A nd           | Version:  7
     \\/     M anipulation  |
\*---------------------------------------------------------------------------*/
FoamFile
{
    version     2.0;
    format      ascii;
    class       volVectorField;
    location    "0.09";
    object      U;
}
// * * * * * * * * * * * * * * * * * * * * * * * * * * * * * * * * * * * * * //

dimensions      [0 1 -1 0 0 0 0];

internalField   nonuniform List<vector> 
815
(
(-0.0486590510546 1.62791230848e-11 23.7868374232)
(-0.129487592818 4.66202087197e-11 23.4948786858)
(-0.208230508408 7.97747416831e-11 23.2398692343)
(-0.0430942135031 3.08356843022e-15 25.3252751786)
(-0.107353263745 -2.50440663453e-12 25.0568218647)
(-0.1655516431 -2.13994797267e-11 24.8212163246)
(-0.00301539982368 -1.29538603459e-10 26.8633377747)
(-0.0243777623019 -4.51251422178e-11 26.6234464681)
(-0.0629726922791 -6.29832900341e-12 26.4200212614)
(0.0731327237487 -8.56482723697e-11 24.8910341617)
(0.180242833082 3.88399835606e-12 24.7465164585)
(0.268424302872 -5.69626966735e-11 24.6211003843)
(0.137180340838 -8.13414567945e-11 18.3512770294)
(0.356767925558 -6.64415504365e-11 18.30221475)
(0.559403122417 -6.96026624211e-11 18.2641561512)
(0.12303829353 -1.94762527421e-11 13.308020083)
(0.324587993624 -4.65880354432e-11 13.2767965707)
(0.517832032296 -6.61632632205e-11 13.272925242)
(0.0709447832671 -1.29158048387e-11 11.4824405359)
(0.188523861547 -3.57037913453e-11 11.4361212965)
(0.303340295904 -5.54392684418e-11 11.4314170566)
(0.0224676754925 -1.03161262239e-11 11.222766946)
(0.0626426845834 -2.91044703386e-11 11.1739931622)
(0.103786501603 -4.7062968873e-11 11.1685916704)
(0.00990403557954 2.20156677119e-11 11.0440418685)
(0.0249587779916 7.14973368347e-11 10.9949095932)
(0.0375168010806 -3.85249693222e-12 10.9917869787)
(0.00577410686571 -5.88568904159e-14 11.0005050119)
(0.0152780151073 -2.9089239109e-12 10.9618771551)
(0.0240218837614 -2.3979946883e-11 10.9649473703)
(0.010943163223 4.81509721068e-11 10.7648697718)
(0.0272259148302 -2.62329942488e-11 10.7346222237)
(0.0408260420976 -9.89464300344e-11 10.743691368)
(0.0119269897947 -1.23803617936e-11 10.3194070313)
(0.0319297788909 -4.39031926511e-11 10.2998743898)
(0.0508561115288 -7.89642473039e-11 10.3146996375)
(0.0137697337476 -1.82126903327e-11 9.87211866759)
(0.0358333228709 -5.1856460362e-11 9.86085110255)
(0.0559244880528 -8.30345007638e-11 9.87819385252)
(0.00987971432778 -6.36900440713e-11 9.67531259551)
(0.0266322683852 -1.89260461276e-10 9.66747755216)
(0.0424308990337 -2.10916795173e-10 9.68537092817)
(0.00471401541638 -4.52458843182e-11 9.77286169958)
(0.0135735240579 -1.24031183475e-10 9.7692507136)
(0.0227461612461 -1.70518266106e-10 9.78733213962)
(0.00222013694281 -9.8525825712e-12 10.0148766976)
(0.00542843538828 -2.28371330439e-11 10.0114482836)
(0.00790945243911 -1.26145548646e-10 10.0291535802)
(-0.00242043642006 -1.77270365608e-11 10.3773127801)
(-0.00525244817784 -5.33202757918e-11 10.3739666643)
(-0.00733248789034 -1.10491061838e-10 10.3909900787)
(-0.00375243480404 -1.86270409138e-11 10.8707554634)
(-0.00928136085124 -5.3890874161e-11 10.8671626286)
(-0.0141996764226 -9.46302664973e-11 10.8835112213)
(-0.00446375300719 -1.4474924212e-11 11.421815261)
(-0.0112015098036 -4.142359352e-11 11.4176209691)
(-0.0172985920915 -7.03349585663e-11 11.4331723898)
(-0.00516459762451 4.02448711283e-11 11.9785263778)
(-0.0123531183748 1.22032936257e-10 11.9740065371)
(-0.0183449941543 7.89271712407e-11 11.9888545738)
(-0.00257834266545 4.55919312894e-11 12.5030202854)
(-0.00746691242832 1.30659651456e-10 12.4987210458)
(-0.0129436636417 5.46772707343e-11 12.5129335575)
(-0.00234607396259 1.34674767535e-11 12.9733646987)
(-0.00642561925182 3.27960836033e-11 12.9680512814)
(-0.0107536243259 1.75073824324e-11 12.9812941457)
(-0.00186399683926 2.58915549611e-12 13.3713728333)
(-0.00495417407689 5.77380401705e-12 13.366403087)
(-0.00808346096905 7.60465800675e-13 13.3789337565)
(-0.000744468581073 -5.37584930648e-13 13.6979856056)
(-0.00234040805239 -1.89419331651e-12 13.6929237489)
(-0.00429340509622 -5.12150984098e-12 13.7047394468)
(-0.00139136776102 -1.06606302538e-12 13.9523887737)
(-0.00335905807044 -3.09044320239e-12 13.9478648813)
(-0.00495760552505 -5.54772362422e-12 13.9591440829)
(-0.000400051952014 -5.64978125742e-11 14.1401657891)
(-0.00106728747411 -2.44270768611e-11 14.1362224636)
(-0.00181208844281 -4.51177246465e-12 14.1470622317)
(0.000175933032028 -9.93898669781e-12 14.2702930535)
(0.000467320554124 -2.01980137507e-11 14.2668846364)
(0.000485931010774 -2.56331012437e-11 14.277218641)
(0.000296021468087 2.28646705845e-11 14.3538160054)
(0.00075826263949 -7.11612200056e-11 14.3515426768)
(0.00100417651623 -6.25443834425e-11 14.361698302)
(0.0005650620572 -8.54143127924e-11 14.3941558116)
(0.00102365815698 -3.66445599312e-11 14.3951653903)
(0.00124114445639 8.25500944248e-12 14.4058938854)
(0.000579774576199 1.59477565648e-11 14.3818093787)
(0.00152892821419 8.08210988643e-11 14.3882675306)
(0.00247817333664 -3.002516434e-11 14.3988913986)
(0.000503727891645 -6.39382737594e-11 14.4562874984)
(0.00118956988308 1.62574287358e-10 14.4645813463)
(0.00195397880694 1.44156860972e-10 14.4744295214)
(-0.289511325664 1.11967643972e-10 22.9764589251)
(-0.222127189689 5.20884091626e-11 24.5866382188)
(-0.0953616601645 2.67967965152e-11 26.2146630447)
(0.360506521031 -2.48371635598e-11 24.4871462148)
(0.752302582981 -7.71025681411e-11 18.211239702)
(0.70467574863 -8.15898884628e-11 13.2672391548)
(0.411818199069 -7.11232965398e-11 11.431204391)
(0.144622918688 -6.23079974866e-11 11.1731715887)
(0.0499671241891 -3.65317790308e-11 11.000143907)
(0.0336853426898 -4.47442194633e-11 10.9796003283)
(0.054444786914 -9.27003382475e-11 10.7617887699)
(0.0700370262475 -9.68476896978e-11 10.3363746972)
(0.0756675622459 -1.04437270219e-10 9.90008024666)
(0.0575640562315 -1.93936322807e-10 9.70592839553)
(0.0315950235302 -1.90338231259e-10 9.80718821199)
(0.0103982337989 -1.91891574384e-10 10.0480326693)
(-0.00939696204072 -1.61158382877e-10 10.4093530727)
(-0.0190676465442 -1.3252005402e-10 10.9016771375)
(-0.0233169240327 -9.76235002801e-11 11.4509419899)
(-0.0243408867246 -4.77879956741e-12 12.0062478843)
(-0.0183319328144 -5.94024394131e-12 12.5298778123)
(-0.0149944284805 -6.46631808466e-12 12.997179223)
(-0.0111545296773 -7.90076117099e-12 13.3940213713)
(-0.00630092772937 -9.23235130114e-12 13.7188792667)
(-0.00620543101338 -8.1921716791e-12 13.9724591521)
(-0.00233130562364 9.16677075512e-12 14.1596125782)
(0.000515805038662 -3.33625151926e-11 14.2887742953)
(0.00111364435598 -7.2862460013e-11 14.3720649765)
(0.00165974219247 -3.06570718243e-11 14.4144816445)
(0.00346191412597 -1.29948873612e-11 14.4048353029)
(0.00289728073859 9.09733702513e-11 14.478878363)
(0.0563892386724 -1.35842934323e-11 8.05464977065)
(0.0368760866428 -9.09520731595e-12 6.88016036785)
(-0.0316188295862 -1.09511911341e-11 6.17360969801)
(-0.16065997275 -5.79645853933e-12 5.67472175424)
(-0.16045160539 -2.5698911171e-12 5.33169514702)
(-0.120276323055 -1.70520795135e-12 5.08459454156)
(-0.0531070902721 -6.90192167427e-12 4.95417225069)
(-0.450870968817 1.60079257778e-10 22.4902654885)
(-0.675883849994 1.45853939664e-10 21.5327340237)
(-0.879230972673 3.51135751003e-11 20.2629991757)
(-0.961815757581 -2.54010956429e-11 18.824470161)
(-1.02473611851 -3.51409746007e-11 17.3451312448)
(-1.08487790318 -4.20628291857e-11 15.7723772127)
(-1.09125704938 -4.67774876261e-11 14.3048157217)
(-1.08195890147 -5.17414748595e-11 13.098925763)
(-1.0297786024 -5.85634394036e-11 12.1571266052)
(-0.943509450258 -3.66493665131e-11 11.4033486611)
(-0.782198126022 -2.57668345814e-11 10.7692302422)
(-0.637594894045 -1.28615480712e-11 10.1851393908)
(-0.290180561261 -1.48812654185e-11 9.56524571325)
(-0.0841182962567 -1.35017956104e-11 8.38712983574)
(-0.0787680696418 -3.0749915916e-12 7.39563679414)
(-0.188053886904 -9.71998842215e-12 6.66170368157)
(-0.275915967442 -5.99949240042e-12 6.07638740093)
(-0.262335988456 -3.38869222303e-12 5.58758771497)
(-0.196089874682 -6.41427752052e-12 5.24542288184)
(-0.0843361642489 -6.73021570141e-12 5.07406994443)
(-0.315080479024 1.11015519785e-10 24.1305963103)
(-0.435048876441 6.15502148938e-11 23.1664456604)
(-0.504541502956 5.59239033455e-11 21.8128300078)
(-0.488299902294 -5.13498133328e-11 20.2422498828)
(-0.391572137838 -4.15050837096e-11 18.4742227636)
(-0.257171789684 -4.46085186841e-11 16.5916945954)
(-0.212589084861 -4.76396627312e-11 14.858307789)
(-0.242000328125 -5.15270242514e-11 13.4837127015)
(-0.249054721898 -5.93735974893e-11 12.446764156)
(-0.240857947165 -3.95845571671e-11 11.6469656661)
(-0.179469988308 -1.75408878062e-11 10.988525832)
(-0.134760643752 -1.01262932114e-11 10.3733176636)
(0.061425797013 -1.53702390614e-11 9.7564056227)
(0.114114382667 -1.39935506205e-11 8.80449848739)
(0.0840783580702 -2.58380956548e-12 7.95479154767)
(-0.110005625738 -8.34695626434e-12 7.20668164371)
(-0.323966439843 -5.95742015976e-12 6.53582372669)
(-0.327932827192 -4.10633981478e-12 5.86182008962)
(-0.224556582973 -7.33016305664e-12 5.3947342845)
(-0.107303151111 -6.70075062998e-12 5.17261271702)
(-0.195415545036 6.01792075847e-11 25.7992028837)
(-0.366043879835 1.76963796065e-12 24.8769017842)
(-0.495642988944 2.52976480102e-11 23.5227041477)
(-0.534398211153 -1.55589875542e-11 21.8839079881)
(-0.445610359408 -4.05616447978e-11 19.96136451)
(-0.242523200941 -4.45970303691e-11 17.9140162993)
(0.0764343386045 -4.69943071246e-11 16.0068030532)
(0.409540767225 -6.5518452183e-11 14.4637920366)
(0.700659911594 -5.88038062343e-11 13.2586988685)
(0.948927269493 -5.35162722607e-11 12.2900408204)
(1.16243863929 -2.38167362174e-11 11.4709901221)
(1.24054993474 -1.26304904627e-11 10.7175203729)
(1.19741855994 -1.63950113049e-11 10.0126295328)
(0.972498403534 -1.53854046793e-11 9.20407935457)
(0.683271198958 -5.05865093046e-12 8.54117906472)
(0.351657754714 -7.00959415393e-12 7.84579737535)
(0.0184419736963 3.52073451298e-13 7.11874638429)
(-0.159220940721 -3.59334455347e-12 6.23496174468)
(-0.143027291576 -7.14313463537e-12 5.56355583446)
(-0.0720391757315 -1.01353489576e-11 5.26662306583)
(0.525339979899 -2.72148713076e-13 24.1860978176)
(0.722704624525 -5.58056213282e-11 23.4217958247)
(0.92884692651 -1.96014488117e-11 22.2412881751)
(1.13573915196 -5.05939784804e-11 20.708049261)
(1.29457006122 -4.73834845413e-11 18.8762070512)
(1.36305029928 -4.43279045759e-11 16.9533257955)
(1.37928381479 -2.32943291156e-11 15.2196247853)
(1.41575857361 -4.55504010652e-11 13.8264199961)
(1.44660126414 -3.36246626567e-11 12.7796738138)
(1.45904945988 -5.28136969506e-11 11.992157951)
(1.478507583 -2.07780240091e-11 11.361926696)
(1.48584231065 -2.34838879651e-11 10.7872234009)
(1.54910888399 -2.70747948682e-11 10.2435393807)
(1.57466158192 -1.98935414846e-11 9.67265005606)
(1.36566465388 -3.30892609325e-14 9.14811350602)
(0.925192137551 -4.17099507338e-12 8.56465074104)
(0.430728054419 2.01324755857e-12 7.75486115936)
(0.100159586508 -2.53552750617e-12 6.60157564672)
(0.01312739388 -6.47412766337e-12 5.73867636253)
(-0.00495494088849 -1.05446319749e-11 5.3939202615)
(1.10312170068 -1.12017905083e-10 18.0694597717)
(1.55470295332 -8.58873858842e-11 17.5334164305)
(1.98568245589 -6.42176551484e-11 16.6360326439)
(2.37015537255 -6.71397947533e-11 15.414243548)
(2.67901423426 -6.22884430348e-11 13.9720492858)
(2.89035442073 -5.39961748115e-11 12.5136357439)
(2.99919522308 -3.70416842776e-11 11.2755151933)
(3.03416801043 -3.64374533452e-11 10.3706760746)
(3.02513356963 -2.85623068958e-11 9.79440207684)
(2.97498663441 -3.55388028989e-11 9.47658838803)
(2.8564565499 -2.27532063873e-11 9.33345766338)
(2.63632565959 -1.37628226252e-11 9.29664868318)
(2.32330787046 -3.12506814428e-11 9.32767110493)
(1.90190774214 -2.39166387764e-11 9.33677545021)
(1.48084355704 -3.72871300641e-12 9.29715300927)
(1.0551334464 -1.86219999533e-12 9.11344293102)
(0.582562144607 2.49236280807e-12 8.46844167635)
(0.332557029206 -1.91725674029e-12 7.1513859902)
(0.246172479882 -1.87754882058e-12 6.09663330521)
(0.123869800097 -1.00990707806e-11 5.68951839345)
(1.0496733808 -1.07118208731e-10 13.2319535947)
(1.48843101851 -1.03815656332e-10 12.9779857333)
(1.89200873285 -9.23574455609e-11 12.5301645375)
(2.21909634465 -8.75322850059e-11 11.9229123023)
(2.43200752088 -8.00483916677e-11 11.2382262161)
(2.52108279296 -6.84288836995e-11 10.5756950862)
(2.50916688129 -5.04206096329e-11 10.0183570817)
(2.44334405582 -3.86777289051e-11 9.59309484254)
(2.34150031075 -2.76392928221e-11 9.28810343134)
(2.20351468416 -2.74167826365e-11 9.0777578184)
(2.06670490478 -2.00892712224e-11 8.94613168585)
(1.95346308102 -1.30885767408e-11 8.89574418428)
(1.85884652107 -2.74590821727e-11 8.93832720384)
(1.73124335398 -2.04086999519e-11 9.0742627549)
(1.50737131771 -2.88273428467e-12 9.29929111175)
(1.12469809389 -2.30241566329e-13 9.40361167623)
(0.621479339999 2.05004116549e-12 8.96166768947)
(0.388047514716 -1.71966535959e-12 7.68530015054)
(0.297628997586 2.73433103229e-12 6.58907011459)
(0.153028085504 -9.55636664039e-12 6.12025049157)
(0.607346433955 -9.51430953664e-11 11.4219047052)
(0.869131215594 -1.04969592637e-10 11.3198138948)
(1.1118115892 -1.06102030137e-10 11.1353186696)
(1.32972652377 -1.04983372282e-10 10.8865970764)
(1.48810883174 -9.70694265439e-11 10.5980723292)
(1.53592191683 -8.16011197274e-11 10.3037383072)
(1.48593728585 -5.89836785535e-11 10.0286399993)
(1.38504387595 -4.03487500897e-11 9.78888154582)
(1.27415045979 -2.66254175932e-11 9.58660958423)
(1.16587807503 -2.26134430972e-11 9.43146686175)
(1.06262399658 -1.72472014331e-11 9.33196936859)
(0.960395280959 -1.34976483945e-11 9.29080259849)
(0.858312332441 -2.25279076388e-11 9.30657636544)
(0.756523053644 -1.22344700561e-11 9.3744689006)
(0.658521959818 3.3722558281e-13 9.48646733496)
(0.570988220022 8.15626509452e-13 9.49924321267)
(0.484231762415 1.7762676609e-12 9.08721601634)
(0.468578885413 -1.51999342026e-12 7.98170383404)
(0.322968290558 2.94272226812e-12 6.99184105078)
(0.146077335581 -9.33870304543e-12 6.58584364451)
(0.221376879309 -8.6581707021e-11 11.1758003296)
(0.327505507047 -1.07581687978e-10 11.1381375974)
(0.423834836555 -1.20470921751e-10 11.0578617737)
(0.478136396401 -1.23087504181e-10 10.9443968837)
(0.487795397655 -1.12981415226e-10 10.7940337183)
(0.464296451695 -9.21701499609e-11 10.6183800577)
(0.423328766746 -6.29960307139e-11 10.4303994059)
(0.372634165369 -3.91913190406e-11 10.2468013596)
(0.314273981625 -2.35332712919e-11 10.0780251697)
(0.251304628072 -1.75571971511e-11 9.93585891094)
(0.188598110982 -1.38369609991e-11 9.82807362811)
(0.131905650952 -1.34709451251e-11 9.76025937861)
(0.089467983875 -1.69176977735e-11 9.73726693925)
(0.0827401223187 -5.19095720222e-12 9.7531244891)
(0.0895881874038 2.44476509123e-12 9.78908347873)
(0.202708761675 2.40606358029e-12 9.70036655405)
(0.336210306135 8.26857511598e-12 9.26609713453)
(0.335661427775 -6.6090567126e-13 8.28269839368)
(0.243579984133 2.7196933069e-12 7.41766771639)
(0.125216000719 -9.23872973884e-12 7.0646330169)
(0.0749016702198 -7.01115883653e-11 11.0160339246)
(0.0983142215789 -7.37821268512e-11 11.0146964818)
(0.111504757399 -1.59676862938e-10 10.992311398)
(0.111230304564 -1.44417193638e-10 10.9531340588)
(0.0952412128241 -1.31530194539e-10 10.8968019043)
(0.0717225831608 -1.32511099689e-10 10.824435358)
(0.0501907981835 -6.9395694441e-11 10.7351443732)
(0.0278676476571 -3.7906951095e-11 10.6319321728)
(-0.000704997317755 -1.88793774936e-11 10.523379031)
(-0.0383219168412 -1.11071730203e-11 10.4207738644)
(-0.084456409674 -7.87611343552e-12 10.3342633718)
(-0.125241709403 -1.10132308152e-11 10.2678417528)
(-0.154361903578 -2.42040252149e-11 10.2183020511)
(-0.138550260972 -1.11344764431e-12 10.1702958538)
(-0.111076602266 3.38508493179e-12 10.0908022936)
(0.0568320326503 4.51587027455e-12 9.88818071609)
(0.228397257691 1.49945478616e-11 9.39330056215)
(0.243058797168 8.25861994947e-13 8.54399098479)
(0.180409163774 6.22607334466e-12 7.86731971444)
(0.0689842902193 -8.79748649743e-12 7.50470662639)
(0.0535377226062 -7.68914868091e-11 11.0058848769)
(0.0778768907618 -1.04537422235e-10 11.0264855959)
(0.100131732264 -1.65050455219e-10 11.0401523461)
(0.117369038864 -2.00840540998e-10 11.0477009541)
(0.12725374744 -1.46042356891e-10 11.045850422)
(0.123070343073 -1.2850993842e-10 11.0307893869)
(0.10019087238 -7.32456354465e-11 10.9989342973)
(0.0686259298311 -3.8027054785e-11 10.949389095)
(0.0357500104249 -1.35756843776e-11 10.8865746884)
(0.00836813651827 -2.86263941338e-12 10.8160436421)
(-0.0110601332095 1.07495514812e-11 10.7421629719)
(-0.0258524285066 -8.28876080765e-13 10.6663023301)
(-0.0389323270651 -1.60582641075e-12 10.583736239)
(-0.0220570408587 3.17580310612e-12 10.4861514298)
(0.00903749606456 4.07994069128e-12 10.3376640055)
(0.126047797562 5.86271722113e-12 10.085391553)
(0.218026246567 1.56462958665e-11 9.58395642117)
(0.221239681187 2.59024346989e-12 8.89041896724)
(0.15398409913 3.68138362075e-12 8.31351897058)
(0.0198146773072 -7.94719686776e-12 7.92331677791)
(0.0788124439766 -1.10327055362e-10 10.7961589549)
(0.111804500472 -1.65277180994e-10 10.8352897137)
(0.144932548185 -1.66964905516e-10 10.8767965029)
(0.176339833422 -1.78499571589e-10 10.9196024948)
(0.204510007214 -1.42919771815e-10 10.9591731023)
(0.227970834029 -1.42675787237e-10 10.9890837815)
(0.244618434918 -7.80908828043e-11 11.0062137424)
(0.253267814876 -5.43252928032e-11 11.0097900728)
(0.249887541988 1.88780486373e-12 11.0009985401)
(0.234877744503 5.85714683685e-12 10.9819017162)
(0.218001800947 1.91899178548e-11 10.9504733456)
(0.211482426302 2.6072045206e-11 10.9009293759)
(0.223668842276 1.18291503512e-11 10.8253046657)
(0.264487583475 1.78389298871e-11 10.7145030555)
(0.306324010456 6.43302552898e-12 10.5433730913)
(0.345617827231 6.35429348568e-12 10.2798079875)
(0.351347381969 1.46087647881e-11 9.83662949341)
(0.290269667038 4.58092185858e-12 9.290097335)
(0.174415114482 3.5801333105e-12 8.78008419467)
(0.00190492621751 -6.46949113345e-12 8.32636460051)
(0.105773838466 -1.2250636648e-10 10.376638661)
(0.154949485649 -1.55392195926e-10 10.4301167071)
(0.205351325286 -1.51114554078e-10 10.4946001437)
(0.255769133285 -1.46027654128e-10 10.5686106719)
(0.30472110083 -1.2060758182e-10 10.6472081275)
(0.350410393622 -1.12656964936e-10 10.7234349917)
(0.390948461816 -7.0243061782e-11 10.7916484948)
(0.425063280845 -4.64244181928e-11 10.8479620668)
(0.451570240004 1.50027470589e-12 10.8915837346)
(0.470122228145 1.13611697686e-11 10.9237377365)
(0.480359992987 2.3443275527e-11 10.943929957)
(0.483519733483 3.26293973642e-11 10.9461009794)
(0.485460970217 1.9653943413e-11 10.919426371)
(0.504474560202 2.13685819347e-11 10.8470128573)
(0.531302067333 9.24677284264e-12 10.7045004005)
(0.532114882367 6.10105227236e-12 10.4762578776)
(0.490332216298 1.3255415936e-11 10.138928489)
(0.382701727562 6.41940063948e-12 9.71876210925)
(0.215843595975 4.11824875053e-12 9.28253550809)
(0.0263211375411 -4.76099439075e-12 8.75328238861)
(0.110626630243 -1.32537573109e-10 9.94050147971)
(0.159591509787 -1.49233715613e-10 10.0006270445)
(0.212202024686 -1.37526359968e-10 10.077331312)
(0.267514833171 -1.18477672851e-10 10.1683811688)
(0.324238767779 -9.23926042423e-11 10.2684755966)
(0.380378705893 -7.7140807757e-11 10.370809103)
(0.434452135476 -5.33942368698e-11 10.4693598165)
(0.485352679102 -3.42464439735e-11 10.5592736504)
(0.531791357255 1.37899722964e-11 10.6381325646)
(0.573153632202 1.6735208532e-11 10.7050968497)
(0.608556570158 2.65277236574e-11 10.7591263158)
(0.637103249589 3.42820957787e-11 10.7968649942)
(0.649231370869 2.14832323297e-11 10.8125750168)
(0.645109508524 2.11877811506e-11 10.7970436498)
(0.633662901327 1.19801615882e-11 10.7308163621)
(0.615812228544 -7.98057663836e-14 10.5970606156)
(0.548051065995 1.20921086456e-11 10.388779368)
(0.410378449368 7.56585773889e-12 10.119195999)
(0.222260279854 4.59188194844e-12 9.7760940723)
(0.0403249404127 -3.28104872748e-12 9.22619155634)
(0.0846017131785 -2.23738492797e-10 9.74400203222)
(0.123506424117 -1.71075120421e-10 9.80604719596)
(0.165055568701 -1.40385932306e-10 9.88777957322)
(0.208722031737 -1.03606671278e-10 9.98648543286)
(0.254542125763 -6.5455980687e-11 10.0965781834)
(0.302649482482 -2.10902577765e-11 10.2111904719)
(0.351868016171 -3.45106428681e-11 10.3235884852)
(0.400372266919 -4.05653628465e-11 10.42815481)
(0.447114808793 -4.90907954215e-12 10.521480933)
(0.491441283333 1.69593710073e-11 10.6019301181)
(0.532119399469 3.07099002855e-11 10.6684490483)
(0.567655984527 4.76351392377e-11 10.7189426298)
(0.589062354378 1.15623870574e-11 10.7504863408)
(0.588042525994 1.93880882981e-11 10.7638256912)
(0.562110583077 2.16694663895e-11 10.7547809037)
(0.514608055982 2.24160098551e-12 10.715416087)
(0.460504930117 1.72864644902e-11 10.6263216931)
(0.3552024727 7.66324015722e-12 10.4906381699)
(0.202529665395 4.39001425724e-12 10.2338102912)
(0.0267114708112 -2.10386249316e-12 9.71373211713)
(0.0491464201717 -2.18824933982e-10 9.84315286321)
(0.0749964028356 -1.94721204602e-10 9.90487692231)
(0.101958405196 -2.03934378663e-10 9.9872043423)
(0.130128742075 -1.06162009051e-10 10.0872571425)
(0.159266510164 -5.036997834e-11 10.1993991223)
(0.189124552923 -9.31871824597e-12 10.3165813149)
(0.219149993268 -2.20433776553e-11 10.4313467589)
(0.249048369782 -2.8119136413e-11 10.5375355625)
(0.277828338853 -4.03597005675e-12 10.6311698211)
(0.304704770173 1.7109618361e-11 10.7105883143)
(0.329159370211 3.41060197094e-11 10.7752801319)
(0.34980048016 4.58835625032e-11 10.8251873969)
(0.362785683087 1.38647984312e-11 10.8605389394)
(0.362446073922 1.88224379487e-11 10.8856951486)
(0.347372887248 2.17426798656e-11 10.9047271328)
(0.30654404943 4.68414645224e-12 10.9214376126)
(0.25059784494 1.52806959007e-11 10.9237088605)
(0.159140599531 4.85335044833e-12 10.8809335992)
(0.10487729783 3.44447965377e-12 10.6998388036)
(0.00252073425089 -9.92679431619e-13 10.1884514691)
(0.014617328182 -3.06017362075e-10 10.0826554893)
(0.0210764360518 -2.11566395225e-10 10.1431407912)
(0.0280429535502 -1.86153850962e-10 10.2243578556)
(0.0354104946407 -1.03659055881e-10 10.3235400814)
(0.042973718675 -4.02857158558e-11 10.4350863771)
(0.0506360812772 1.60818733689e-11 10.5517436336)
(0.0581862875003 -1.23062748996e-11 10.6656792357)
(0.065585929387 -1.52463484396e-11 10.7702332162)
(0.0727744323625 -1.06843064431e-12 10.8608783401)
(0.0793410301052 1.85371374586e-14 10.9360979349)
(0.0855551251776 3.61994094631e-11 10.9956858655)
(0.0909891511473 5.50678750346e-11 11.0411838732)
(0.0946142773819 1.84807152406e-11 11.0747279944)
(0.0939360506183 1.8127359401e-11 11.101186443)
(0.089570964319 2.36256919078e-11 11.1260627366)
(0.0737224762211 4.49075289759e-12 11.1535363427)
(0.0576872504362 9.12563749438e-12 11.1794863486)
(0.0186918082635 -7.51121888286e-12 11.1727048517)
(-0.00644787805427 1.99814737088e-12 11.0383092906)
(-0.0467378904388 3.76427150556e-13 10.5589163473)
(-0.012326959007 -2.35978759124e-10 10.4428935129)
(-0.0167018655109 -1.99547724225e-10 10.5017947789)
(-0.0218290666234 -1.71469635991e-10 10.5814293012)
(-0.0275640169287 -1.37984672443e-10 10.6794555179)
(-0.0340708739202 -4.51947102591e-11 10.7904967363)
(-0.0415448943704 2.22280982885e-12 10.9070994495)
(-0.0500497325477 -1.0860836908e-11 11.0208778563)
(-0.0598142199951 -6.9130482029e-12 11.1243504145)
(-0.0702058107808 3.94947339219e-12 11.2123222845)
(-0.0817894806075 8.21775961866e-12 11.2826866844)
(-0.093347770645 3.73589491065e-11 11.3351028647)
(-0.104066619988 4.87709111421e-11 11.3714716643)
(-0.113892127348 2.13788762415e-11 11.3941899979)
(-0.122702813091 1.39098207451e-11 11.4072626878)
(-0.127850451513 7.00401444628e-12 11.4151028616)
(-0.131210992244 -1.86972658449e-13 11.4201980435)
(-0.120476854853 2.55703769069e-12 11.4164506562)
(-0.112586153603 -9.17112619934e-12 11.3747185235)
(-0.0673659359132 6.88905197122e-13 11.2203005135)
(-0.054276738899 1.55063047038e-12 10.7813983827)
(-0.0271163413104 -1.92059915118e-10 10.9346082838)
(-0.0387076001222 -2.34466409168e-10 10.991464604)
(-0.0515093753601 -1.61576581464e-10 11.0685369029)
(-0.0653896685096 -1.2347367093e-10 11.1640021339)
(-0.0805707970621 -5.22385375073e-11 11.272828839)
(-0.09730553205 -1.75495172157e-11 11.3873976461)
(-0.115687030945 -2.94679450651e-11 11.49874249)
(-0.135981956067 -5.78331135913e-12 11.5982231521)
(-0.157475225937 7.59207037666e-12 11.6797019676)
(-0.180836610001 1.70449046165e-11 11.7398785529)
(-0.203681710314 3.79485819546e-11 11.7784099606)
(-0.224408176085 5.37735031205e-11 11.7966979317)
(-0.242498614572 3.0467613636e-11 11.7970467157)
(-0.255761160547 9.01591809667e-12 11.7824397187)
(-0.259571832505 -3.58598541564e-12 11.7559833)
(-0.254670254703 -1.61942716169e-11 11.7181365848)
(-0.228268852338 -2.74035698265e-12 11.6614922986)
(-0.191600543798 -8.09466412437e-12 11.5608201483)
(-0.110324104688 -7.96916162523e-13 11.3618962084)
(-0.0511960893655 2.1667174187e-12 10.9180201875)
(-0.0334020942394 -1.41867198037e-10 11.4830184108)
(-0.0478474436981 -1.77213041399e-10 11.537275833)
(-0.0636820680714 -1.42089459883e-10 11.6110546684)
(-0.0807458145704 -1.34155472021e-10 11.7031807051)
(-0.099309454131 -5.91435168064e-11 11.8090809081)
(-0.119592966609 -3.04128514485e-11 11.9211538405)
(-0.141915674871 -3.03161398226e-11 12.0298325939)
(-0.166311698026 -9.86265583003e-12 12.1250896093)
(-0.192794125029 6.21663275657e-12 12.1992597707)
(-0.221067043076 1.86416196438e-11 12.2474849904)
(-0.248148326996 2.37667044897e-11 12.2689980422)
(-0.272724239077 4.4962315364e-11 12.2643481548)
(-0.293342416568 2.64015187687e-11 12.2356736571)
(-0.306679949997 4.74827609896e-12 12.18510771)
(-0.308163320041 -1.49018804694e-11 12.1146878073)
(-0.297574066175 -2.71870964081e-11 12.0230889512)
(-0.264431239676 -6.24127377678e-12 11.9040012038)
(-0.213908165246 -7.47752481393e-12 11.7364559417)
(-0.124263467022 -3.38287316431e-12 11.4833371596)
(-0.0425229774064 2.02571206069e-12 11.0249322338)
(-0.0340772330263 -7.81355494786e-11 12.0374321107)
(-0.0481737906615 -1.07257809065e-10 12.0888154738)
(-0.0637477362992 -6.62034521727e-11 12.1587622623)
(-0.0804810622805 -7.17552475938e-11 12.2468413575)
(-0.0986598080856 -5.53371304357e-11 12.3490372818)
(-0.118389951765 -3.69817077329e-11 12.458036564)
(-0.140231203617 -3.49179043782e-11 12.563790839)
(-0.163965071271 -3.84402117334e-11 12.6548691534)
(-0.190347680396 -1.49338657585e-11 12.7215148609)
(-0.217980259531 1.80089502338e-11 12.7571531353)
(-0.244008914325 2.528125348e-11 12.7598320421)
(-0.267488435652 4.60499585267e-11 12.7296196786)
(-0.286087537609 2.26267985113e-11 12.6686214333)
(-0.296326861976 1.04428874782e-11 12.57875461)
(-0.294889598851 -2.88061164533e-12 12.4615239061)
(-0.280905010469 -2.13960323619e-11 12.3153930587)
(-0.246748153424 -6.91880433798e-12 12.1355517407)
(-0.194615213606 -8.31917452924e-12 11.9061688201)
(-0.112430550496 -1.18016519795e-11 11.6012525098)
(-0.0331407238658 9.84018905301e-13 11.1266056472)
(-0.0277935234393 -9.8675155308e-11 12.559866385)
(-0.0409432072783 -3.85754225489e-11 12.6079064151)
(-0.0548915158108 -8.92054384805e-11 12.6734187118)
(-0.0696481362525 -9.15999152981e-11 12.7566637623)
(-0.0854880177264 -5.72005767204e-11 12.8542584932)
(-0.102456392606 -3.96172671945e-11 12.9594346628)
(-0.121236587842 -3.35934613114e-11 13.0619505686)
(-0.141568701551 -3.21726011351e-11 13.1491462012)
(-0.16445761723 -8.61067543077e-12 13.2088405336)
(-0.188064916146 3.00517865322e-11 13.2324426842)
(-0.210033610177 1.82303444048e-11 13.2163550368)
(-0.229419444665 4.30345576351e-11 13.160609498)
(-0.243499411813 1.06310708677e-11 13.0675580682)
(-0.249524840892 1.91493062071e-12 12.9396553812)
(-0.245441782749 -2.10355059678e-12 12.7785007801)
(-0.229759743026 -1.33925851023e-11 12.5836191444)
(-0.198435593169 4.7171497696e-13 12.3518722578)
(-0.151609604098 -8.73405944882e-12 12.0723139668)
(-0.0861764208242 -1.34672114921e-11 11.7265210625)
(-0.0241531037702 -7.5704456528e-13 11.2390346963)
(-0.022471830604 -4.30008966726e-11 13.0255711521)
(-0.032914836714 6.44274593205e-12 13.0699124846)
(-0.0438873245978 -6.66287360784e-11 13.1304797036)
(-0.0554200127507 -7.89384778955e-11 13.2081381133)
(-0.0676470847646 -5.57842070898e-11 13.3001934943)
(-0.080603840169 -3.83661322542e-11 13.4006037096)
(-0.0948530611977 -2.4860585285e-11 13.4993521841)
(-0.110336434594 -4.04048002976e-13 13.5828923916)
(-0.127812764458 1.8384148309e-12 13.6366482375)
(-0.145630177183 2.76601546915e-11 13.6496066244)
(-0.162039888142 2.05205700133e-11 13.6164462893)
(-0.175841887782 3.2818144569e-11 13.5374282719)
(-0.184453627156 8.024456037e-12 13.4156256503)
(-0.186308984856 -9.02309758591e-13 13.2545095662)
(-0.180176793227 -4.39107147885e-12 13.0566156431)
(-0.164269783378 -9.48171786205e-12 12.8229353247)
(-0.137875119457 -1.57265847486e-12 12.5519008722)
(-0.0996613762515 -9.57471518004e-12 12.2370316174)
(-0.0550125549515 -1.7949031307e-11 11.8635361589)
(-0.0135474374376 -3.00866426354e-12 11.3695949012)
(-0.0165998350751 -2.138053413e-11 13.4207348369)
(-0.0241959435648 -7.22620997579e-12 13.4612741488)
(-0.0320758873801 -5.10869746177e-11 13.516675879)
(-0.0402508084987 -6.40998729486e-11 13.5882452485)
(-0.0487144545373 -5.11349677269e-11 13.6739441291)
(-0.0575376435082 -3.59713205062e-11 13.768570008)
(-0.0669975816363 -1.95025713257e-11 13.8627494999)
(-0.0773556147798 4.2772027006e-12 13.9425283275)
(-0.0888956894855 7.95124329081e-12 13.9913325944)
(-0.100501151037 2.40051081769e-11 13.9954120206)
(-0.110973763594 2.12584769894e-11 13.9479100891)
(-0.118804416454 2.47391314085e-11 13.8494681347)