/*--------------------------------*- C++ -*----------------------------------*\
  =========                 |
  \\      /  F ield         | OpenFOAM: The Open Source CFD Toolbox
   \\    /   O peration     | Website:  https://openfoam.org
    \\  /    A nd           | Version:  7
     \\/     M anipulation  |
\*---------------------------------------------------------------------------*/
FoamFile
{
    version     2.0;
    format      ascii;
    class       volScalarField;
    location    "0.01";
    object      alphat;
}
// * * * * * * * * * * * * * * * * * * * * * * * * * * * * * * * * * * * * * //

dimensions      [1 -1 -1 0 0 0 0];

internalField   nonuniform List<scalar> 
815
(
0.000212668254816
0.000213689740213
0.000215746784706
0.000224064335404
0.000224851064644
0.0002264907698
0.000220933885226
0.000221100132329
0.000221505577315
0.000185919740418
0.000185507760458
0.00018436876786
0.000124612804076
0.000123868023853
0.000122032308429
7.01895146478e-05
6.9764287407e-05
6.86739426431e-05
5.02187362695e-05
5.01622611538e-05
5.01197147451e-05
6.14915806848e-05
6.20045301645e-05
6.31466201213e-05
0.000114123529239
0.000115335020644
0.000117880647046
0.000195294417808
0.000196655194795
0.000199438079295
0.000260832500178
0.000261729151442
0.000263543378988
0.00029674483115
0.000297197027679
0.000298115482722
0.000313429959449
0.000313634560525
0.000314050301361
0.000320787325041
0.00032087156438
0.000321048739162
0.000324006943281
0.00032404403037
0.000324116695436
0.000325475721684
0.000325482176089
0.000325509309241
0.000326183546364
0.00032618364565
0.000326190945079
0.000326577825051
0.000326574456877
0.000326573710709
0.000326838835468
0.000326836450445
0.000326832586494
0.000327052206712
0.000327049981669
0.000327044415417
0.000327228760374
0.000327234351588
0.000327232106124
0.000327440731174
0.000327433092496
0.000327429868956
0.00032763761423
0.000327639719472
0.000327638686601
0.000327897116106
0.000327885708526
0.000327883943266
0.000328180276137
0.000328173244062
0.00032816970185
0.000328513223429
0.000328506290784
0.000328502337864
0.000328887488402
0.000328884209376
0.000328880616166
0.000329350066322
0.000329347510972
0.000329342549575
0.00032963903611
0.000329650178318
0.000329654313863
0.000330863163323
0.000330836031211
0.000330813947422
0.000331025789149
0.000331036075504
0.000331033830989
0.000218184533922
0.000228388430925
0.000221720908224
0.000182534760978
0.000119341205099
6.72499522621e-05
5.01834701877e-05
6.49982886574e-05
0.000121802578485
0.000203524868438
0.00026610340911
0.000299373865255
0.000314610091546
0.00032128569732
0.00032421466299
0.000325546447796
0.000326203635029
0.000326576360656
0.000326831604337
0.000327041549803
0.000327232284055
0.000327427110883
0.000327639033266
0.000327881737657
0.000328167174235
0.000328499476012
0.000328878533857
0.000329339531671
0.000329661869664
0.000330796235474
0.000331033792935
0.000328769143985
0.000328722809635
0.000327619386285
0.000326884889135
0.000322184095664
0.000294285741711
0.000200233469818
0.000222684041154
0.000226372217419
0.000222324546485
0.000204724831129
0.000168267560551
0.000111827723088
6.14252616568e-05
5.55838977621e-05
0.000101780989385
0.000189071809901
0.000265644767366
0.000309543834306
0.000326198676205
0.000329120412967
0.000328776480286
0.000327642684167
0.000326866311425
0.000321842098771
0.00029271993035
0.000197677805109
0.000231699899416
0.000232591276015
0.000223471431304
0.000197710637345
0.000151160944279
9.14914603929e-05
5.69923381482e-05
6.27296100978e-05
0.00012203371915
0.000210551810747
0.000279586469206
0.000315401350153
0.000327692452202
0.000329247611082
0.000328699197152
0.000327583336779
0.000326778160392
0.000321367693852
0.000290912857741
0.000195010413937
0.000221364708532
0.000214938046326
0.000196324512534
0.000160817779121
0.000111369278179
6.77140951157e-05
5.48923764255e-05
8.02683753584e-05
0.000154489338607
0.000238088980773
0.000294414106475
0.000320675433651
0.000328670725689
0.000329095097816
0.000328466608231
0.000327428174843
0.000326603828312
0.000320727268892
0.000288824274968
0.00019223181542
0.00017771038758
0.000163624470033
0.000138543514111
0.000103924987213
7.11157819357e-05
5.5700577769e-05
6.50940817849e-05
0.00011553272875
0.000196892564034
0.000266873443072
0.000307658007877
0.000324570183271
0.000328986323152
0.000328673908529
0.000328091608043
0.00032718329576
0.000326337367941
0.000319901906461
0.000286433175133
0.000189334728618
0.00011303900136
9.88637291924e-05
8.00091865628e-05
6.38642590098e-05
5.51166009379e-05
6.19773953294e-05
9.87403775527e-05
0.0001687067851
0.000241708567092
0.000291691276824
0.000317360008891
0.000326699159982
0.000328680360705
0.000328055466694
0.000327620602487
0.000326872365262
0.000325983459393
0.000318892766873
0.000283742181872
0.000186321533712
6.43794540958e-05
5.9072439551e-05
5.43561887016e-05
5.40483575257e-05
6.49912559929e-05
9.82042704183e-05
0.000158434606022
0.000226547459017
0.00027859144372
0.000308974539907
0.000322932933123
0.000327286520291
0.000327978886172
0.000327359798245
0.00032712120846
0.000326528678588
0.000325554338647
0.000317721225407
0.000280779089947
0.000183208479621
5.08083220569e-05
5.28175811408e-05
5.9584532345e-05
7.67616337878e-05
0.000111546469175
0.000165397861738
0.000224833829751
0.00027246247332
0.00030276676811
0.000318633930256
0.000325246692752
0.000326955122502
0.000327162436182
0.000326707379404
0.000326659257834
0.000326186324162
0.00032507825492
0.000316421235376
0.000277595244808
0.000180023732855
7.04199065584e-05
8.21948254677e-05
0.000104103320736
0.000139800299678
0.000186897504148
0.000235186501983
0.000274237547182
0.000300468077306
0.000315596999039
0.000322904091912
0.000325738081808
0.000326328986272
0.000326451629075
0.000326186911589
0.000326282709327
0.000325884624331
0.000324582457645
0.000315024919107
0.000274263109521
0.0001768156417
0.000132304668959
0.00015273885636
0.000182657648875
0.000218573744589
0.000253581240669
0.000282053856106
0.000302075197709
0.000314497414314
0.000321280049304
0.000324376515068
0.000325571430842
0.000325794242723
0.000325956300075
0.000325840371609
0.000326018105323
0.000325647739845
0.000324091344221
0.000313570021436
0.000270851788196
0.000173663426928
0.00021354604141
0.000231199083186
0.000252757483716
0.000274390002702
0.000292671205732
0.000306223277491
0.000315248163581
0.000320647471381
0.000323522788728
0.000324806787337
0.00032536493731
0.000325498058836
0.000325694267367
0.000325664387816
0.000325869567093
0.000325484726318
0.000323625989488
0.000312075190204
0.000267324361233
0.000170565261598
0.000271981881365
0.00028186585153
0.000292888199861
0.000303112206198
0.000311296532436
0.000317166461004
0.000320993619538
0.000323248452114
0.000324456485178
0.000325014744151
0.000325322121924
0.000325429715166
0.000325625789896
0.000325629815091
0.000325825829341
0.00032538998561
0.000323194713593
0.000310552604887
0.000263700762785
0.000167529040273
0.000302146412872
0.000306743816915
0.000311651356581
0.00031605457408
0.000319507095016
0.000321950505722
0.000323528761317
0.000324460074581
0.000324979391906
0.000325243582615
0.000325434800128
0.000325519366152
0.000325692368676
0.000325694874173
0.000325864356237
0.000325349556987
0.000322792795909
0.000309003141324
0.000259978703659
0.000164547225044
0.000315811400019
0.000317800492843
0.000319873797544
0.000321702066362
0.000323119090597
0.000324113942064
0.000324756887207
0.000325144431886
0.000325376853383
0.000325511948937
0.000325636642556
0.000325693154631
0.00032583714731
0.000325820324024
0.000325958013907
0.000325346313356
0.000322406905268
0.000307414713982
0.000256140472278
0.000161604682532
0.000321786354866
0.000322616731218
0.000323469261329
0.00032421233883
0.000324783295504
0.000325182565318
0.000325443095943
0.000325606771474
0.0003257154087
0.000325787297152
0.000325869983489
0.000325899897997
0.000326017909908
0.000325976950097
0.000326083368065
0.000325364056111
0.000322020152728
0.000305765817791
0.000252158800236
0.000158686566043
0.000324418168364
0.000324755530407
0.000325098163483
0.000325394251287
0.00032562031227
0.000325778675116
0.000325884368574
0.00032595518379
0.00032600831152
0.00032604693933
0.000326102675151
0.000326111622133
0.00032620961928
0.000326146072212
0.000326223686664
0.000325389162608
0.000321614784128
0.000304028789255
0.000247997570042
0.000155767506466
0.000325626627671
0.00032575950632
0.000325893523781
0.000326008932339
0.000326096971363
0.000326159434155
0.000326202898953
0.000326234703154
0.000326261924172
0.000326282381613
0.000326321095185
0.000326315244005
0.000326399257804
0.000326316667948
0.000326368059839
0.000325410660849
0.000321172700103
0.000302169823963
0.000243610027803
0.000152810596336
0.000326232681012
0.000326282369788
0.000326332855798
0.000326376732335
0.000326410618421
0.000326435439838
0.000326453903125
0.000326468926606
0.000326483542421
0.000326493908615
0.000326522109645
0.000326506507237
0.000326581546402
0.000326483337467
0.000326510163765
0.000325420108858
0.000320676621986
0.000300155768029
0.000238959150244
0.000149781341348
0.000326584872174
0.000326601449587
0.000326619175704
0.000326635268968
0.000326648227608
0.000326658314835
0.000326666546944
0.00032667403133
0.000326682204103
0.00032668688459
0.000326708657214
0.000326686822253
0.000326756541633
0.000326645120725
0.000326647515562
0.000325411370066
0.000320109460645
0.000297950036113
0.000234000882178
0.000146623408902
0.000326831851888
0.000326835362566
0.000326840467762
0.000326845916448
0.000326850853868
0.00032685508964
0.000326858970377
0.000326862856012
0.000326867559489
0.000326868980733
0.000326886795994
0.000326860949
0.000326927782814
0.000326804343842
0.00032678058391
0.000325380248646
0.000319454906461
0.000295518463411
0.000228705419819
0.000143291929224
0.000327037920457
0.000327036028791
0.000327036323218
0.000327037700621
0.000327039583336
0.00032704142329
0.000327043382849
0.000327045459117
0.000327048247684
0.000327047813492
0.000327063204425
0.000327034722271
0.000327100286342
0.000326965034709
0.000326911602744
0.000325323833668
0.000318697270248
0.000292828518526
0.000223049713382
0.000139725472302
0.000327230229229
0.000327226847911
0.00032722525287
0.000327224954851
0.000327225658068
0.000327226463609
0.000327227584405
0.000327228772848
0.000327230589829
0.000327229241301
0.000327243308775
0.000327213168057
0.000327278710893
0.000327131221361
0.000327043009588
0.000325238998333
0.00031781965874
0.000289847743027
0.000217017659839
0.000135867365416
0.000327425398306
0.000327421496093
0.000327419190395
0.000327418244249
0.00032741859275
0.000327419017856
0.000327419876756
0.000327420728961
0.000327422181507
0.000327420552415
0.00032743406848
0.000327402884598
0.000327469271084
0.000327308361122
0.000327178276084
0.000325123208408
0.000316806429333
0.000286550838499
0.000210613185641
0.000131657800935
0.000327638852021
0.000327635004208
0.000327632396005
0.000327631151544
0.000327631411227
0.000327631698575
0.000327632516196
0.000327633270291
0.000327634629596
0.000327633009066
0.000327646362201
0.000327614312242
0.00032768190812
0.000327505429707
0.000327323851908
0.000324975076548
0.000315639516262
0.000282909145043
0.000203842510618
0.000127042424058
0.000327882509931
0.000327879008287
0.000327876225624
0.000327874833808
0.000327875100715
0.000327875386013
0.000327876270725
0.000327877069982
0.000327878482489
0.000327877025412
0.000327890433591
0.000327857442752
0.000327926226449
0.000327731041021
0.000327485454494
0.000324793475094
0.000314305994741
0.000278910507645
0.000196732327855
0.000121950966462
0.000328166282407
0.000328162376634
0.000328159499015
0.000328158136288
0.00032815849953
0.000328158912535
0.000328159951781
0.000328160919223
0.000328162496952
0.000328161330028
0.000328174984519
0.00032814097233
0.000328210887314
0.000327993163873
0.000327667864589
0.000324570039761
0.000312771015421
0.000274509925728
0.000189288201597
0.000116360099854
0.000328497666261
0.000328493393717
0.000328490257909
0.000328488816571
0.000328489134217
0.000328489576699
0.000328490629699
0.000328491648324
0.000328493242746
0.000328492210818
0.000328505990776
0.000328470350247
0.000328540526973
0.000328294865694
0.000327870630412
0.00032430718149
0.000311051261189
0.000269774030356
0.000181651384435
0.00011014189482
0.000328876518903
0.000328872138186
0.000328868845696
0.000328867474672
0.000328867903379
0.000328868560226
0.000328869804816
0.000328871090066
0.000328872930288
0.000328872306564
0.00032888661784
0.000328849625685
0.000328920346742
0.000328641457923
0.0003280930479
0.000323965136155
0.000309026195372
0.000264526215153
0.000173745922432
0.000103385886871
0.000329334579089
0.00032932813565
0.000329324004733
0.000329322325889
0.000329322494004
0.000329323039607
0.000329324098562
0.00032932524267
0.000329326791347
0.000329325856576
0.000329339952849
0.000329299052903
0.000329367073262
0.00032904521584
0.00032835010232
0.000323639094416
0.000306969949521
0.000259266921647
0.000166037999411
9.5661782137e-05
0.000329670700929
0.000329670731837
0.000329667181149
0.000329666318229
0.000329667198616
0.0003296687442
0.000329670848059
0.00032967348543
0.000329676905579
0.000329678749268
0.000329696208144
0.000329659293016
0.000329729797254
0.000329367448447
0.000328473687785
0.000322951462524
0.000304120914909
0.000252929689477
0.000157784543682
8.84290351736e-05
0.000330768456565
0.000330748562342
0.000330740246804
0.000330735651997
0.000330732444802
0.000330729684794
0.000330726522107
0.000330722904657
0.000330718519925
0.000330710137749
0.00033071827932
0.000330655985108
0.00033071348158
0.000330262726155
0.000329193337953
0.00032304517515
0.00030263205415
0.000248697574992
0.000151203271331
7.883053529e-05
0.000331028191474
0.000331016995635
0.000331008842368
0.000331004396093
0.000331001299408
0.000330998454928
0.000330994848629
0.000330990465083
0.000330984825763
0.000330975181478
0.00033097901496
0.000330916352678
0.000330953280984
0.000330443251279
0.000329087707171
0.000322063231286
0.000299528404479
0.00024326910633
0.000147064310966
7.61082248793e-05
3.38480933667e-05
3.07923716486e-05
3.30295601817e-05
3.16657715889e-05
3.22272350231e-05
3.25993862683e-05
3.14435634926e-05
3.35914164643e-05
3.06862863571e-05
3.46388085065e-05
2.99678396588e-05
3.57370122585e-05
2.93039550923e-05
3.68801195613e-05
2.87098353692e-05
3.80622970615e-05
2.81995825474e-05
3.92777407046e-05
2.77834230563e-05
4.05241418758e-05
2.74623360414e-05
4.18007868296e-05
2.72406262638e-05
4.31052371467e-05
2.71188593165e-05
4.44377820388e-05
2.70962744474e-05
4.58009820984e-05
2.71712946524e-05
4.71993999799e-05
2.73447261121e-05
4.86368228182e-05
2.76195986798e-05
5.01180535716e-05
2.80011853579e-05
5.16473573264e-05
2.84969857521e-05
5.32280518549e-05
2.91193309687e-05
5.48643663708e-05
2.98808945831e-05
5.65585844415e-05
3.08031598841e-05
5.83144568417e-05
3.19077973044e-05
6.01342464893e-05
3.32283166326e-05
6.20235890272e-05
3.48062209628e-05
6.39773413805e-05
3.66867118104e-05
6.60184821785e-05
3.89653445865e-05
6.80896668642e-05
4.16633849021e-05
7.03223693337e-05
4.50666631428e-05
7.2374480323e-05
4.88971379128e-05
7.50466063589e-05
5.47774524533e-05
7.65170145464e-05
5.72771254911e-05
8.10954014112e-05
)
;

boundaryField
{
    inletfuel
    {
        type            calculated;
        value           nonuniform 0();
    }
    inletair
    {
        type            calculated;
        value           nonuniform 0();
    }
    outlet
    {
        type            calculated;
        value           nonuniform List<scalar> 
26
(
0.000331089678137
0.000331092314287
0.000331090763779
0.000331089315377
0.00033108385977
0.000331072597246
0.000331064504794
0.00033105999765
0.000331056907223
0.000331053968432
0.000331050293239
0.000331045749609
0.000331039931372
0.000331030008614
0.000331033482635
0.000330970380283
0.000331006507845
0.000330495895932
0.000329138260054
0.000322112209637
0.000299571849133
0.000243301373488
0.000147084022648
7.61180766028e-05
5.72848515915e-05
8.11058121148e-05
)
;
    }
    axis
    {
        type            empty;
    }
    leftside
    {
        type            compressible::alphatWallFunction;
        Prt             0.85;
        value           nonuniform List<scalar> 
32
(
8.27473232275e-06
9.23220750717e-06
1.02521112946e-05
1.13337962331e-05
1.24755678524e-05
1.36744785196e-05
1.49263781056e-05
1.62269334032e-05
1.75716239944e-05
1.89586147919e-05
2.038736414e-05
2.18558663735e-05
2.33641768559e-05
2.49141308755e-05
2.65091674305e-05
2.81520442077e-05
2.98461972588e-05
3.15945423142e-05
3.33988965702e-05
3.52617798594e-05
3.7183762048e-05
3.91666112668e-05
4.12106141786e-05
4.33190105729e-05
4.54856195576e-05
4.77288921906e-05
4.99974745278e-05
5.24053003987e-05
5.46520810688e-05
5.74405383669e-05
5.91681125485e-05
6.35633131843e-05
)
;
    }
    burnerwall
    {
        type            compressible::alphatWallFunction;
        Prt             0.85;
        value           nonuniform 0();
    }
    front
    {
        type            wedge;
    }
    back
    {
        type            wedge;
    }
    procBoundary1to0
    {
        type            processor;
        value           nonuniform List<scalar> 
27
(
0.000199856726164
0.000200703203418
0.000202489762799
0.000204514821134
0.000328199483458
0.000328494699698
0.000327460901051
0.000326779801579
0.000322353258353
0.000295574012792
0.000202623205122
0.000208129737135
0.000210255173014
0.000205641672879
0.000190781807108
0.000162152536867
0.000115595214746
6.2476271857e-05
5.24741096486e-05
9.09512774004e-05
0.000174526456592
0.000253878020531
0.000303715582665
0.000324347238077
0.000324347238077
3.46730284275e-05
2.99632055338e-05
)
;
    }
}


// ************************************************************************* //
