/*--------------------------------*- C++ -*----------------------------------*\
  =========                 |
  \\      /  F ield         | OpenFOAM: The Open Source CFD Toolbox
   \\    /   O peration     | Website:  https://openfoam.org
    \\  /    A nd           | Version:  7
     \\/     M anipulation  |
\*---------------------------------------------------------------------------*/
FoamFile
{
    version     2.0;
    format      ascii;
    class       volScalarField;
    location    "0.01";
    object      dQ;
}
// * * * * * * * * * * * * * * * * * * * * * * * * * * * * * * * * * * * * * //

dimensions      [1 2 -3 0 0 0 0];

internalField   nonuniform List<scalar> 
815
(
0.000265893268632
0.000802868710479
0.00135328897453
0.000262010090502
0.000790934650735
0.00133369370873
0.000396771739514
0.00123099309882
0.00220874430027
0.00136046579712
0.00422098912252
0.00756458132321
0.00554042786668
0.0170898390166
0.0303027307552
0.0239139021021
0.0737561760778
0.130896832815
0.0157152442773
0.0462464480593
0.0740269055646
0.00677674196647
0.0200385998793
0.0325042691692
0.00463505764184
0.0139064939399
0.0231933338514
0.00374639635724
0.0111679204124
0.018386362716
0.00289167866957
0.00864784817896
0.0143258049841
0.00263837933806
0.00790461217013
0.0131401314836
0.00260788618631
0.00781972611979
0.0130195793751
0.00266353200921
0.00798908435335
0.0133099414509
0.00275359469328
0.00826028329435
0.0137650292146
0.00285905651673
0.00857675364054
0.0142935571847
0.00297269630412
0.00891783030651
0.0148623056434
0.00309223691157
0.00927646662409
0.0154600630251
0.00321694296129
0.00965064227876
0.0160836352858
0.00334681579701
0.0100402594842
0.0167328781907
0.00348175594166
0.0104453291549
0.0174081259743
0.00362258381567
0.0108673849861
0.0181114634226
0.00376894545964
0.0113067943212
0.0188438958316
0.00392195333221
0.0117653358107
0.0196080577168
0.00408145129399
0.0122439591767
0.0204055677434
0.00424807618622
0.0127437948532
0.0212384735224
0.00442204314874
0.0132657937817
0.0221083564897
0.00460428824091
0.0138124869562
0.0230192649355
0.00479190795818
0.0143759828101
0.0239589969026
0.00499947358209
0.0149964319669
0.0249908863627
0.00520212190322
0.0156062604372
0.0260084294021
0.00163985629163
0.00161868326319
0.00293540921617
0.010019015836
0.0396063392357
0.172021212611
0.0838848440177
0.0376065199837
0.0277877639746
0.0216504753925
0.0170239381803
0.0156922327158
0.0155823156223
0.0159435574378
0.0164940491127
0.0171292356859
0.0178114955063
0.0185280539762
0.0192754109598
0.0200534322592
0.0208628588689
0.0217055666612
0.0225835445744
0.0234991694122
0.0244548992106
0.0254530137205
0.0264955180646
0.0275870423431
0.0287140945661
0.02994862825
0.0311692472213
1.21355914296
1.46790849739
1.77757382834
2.15583137277
2.63854335485
3.50773746183
6.27183157224
0.00619630760428
0.00988299656252
0.019707673315
0.0568263127223
0.188655250048
0.716118804279
2.0574378065
0.746757497921
0.723174455136
0.867075433717
0.904064160221
0.929545613128
1.05624038679
1.25955680768
1.52569357702
1.84815322478
2.24193717115
2.74691899346
3.66943842543
6.64260923228
0.00630799398558
0.0141210921652
0.0371786534672
0.110979362225
0.361722970674
1.35543788518
1.62801623635
0.721546201903
0.765202059916
0.935709000387
0.887989546785
0.942065622315
1.08928514612
1.30671411186
1.58517183648
1.92102231701
2.33111859962
2.86026729999
3.84174880988
6.95796857509
0.0136512448171
0.0345591849002
0.0930036405357
0.269909642041
0.879920091469
2.51025956501
1.04274122805
0.727461724257
0.798752348183
0.882219433472
0.86665058643
0.954376356299
1.12330865631
1.35513939136
1.64637168543
1.99625437135
2.42353468669
2.97913759192
4.02622654757
7.25063208347
0.0460651248681
0.112085990392
0.288874989397
0.827779344503
2.50489004618
1.23388111078
0.706269982182
0.721625471151
0.840384056045
0.808827436848
0.848414112501
0.96960378653
1.1591729689
1.40514189781
1.70947840378
2.07404176505
2.51947636384
3.10419961177
4.22462593686
7.56322075222
0.17805310653
0.420604072654
1.07734721706
1.65956712301
1.0384616738
0.666947022169
0.641981456609
0.720018784114
0.742373162009
0.752961153749
0.839614680751
0.989860173141
1.19755859934
1.45707415519
1.77478270857
2.15464592032
2.61932875537
3.23609213104
4.4386721437
7.89877043615
0.668345197715
0.870984610183
0.812134442389
0.658529219796
0.528185494596
0.542742095347
0.612939045801
0.647050281791
0.652863264494
0.720874011464
0.843086627126
1.01594367537
1.23889321689
1.51132744451
1.84265653638
2.2383955764
2.72354149532
3.37535759879
4.6699976459
8.26062029086
0.272455688225
0.332851233345
0.350818056407
0.367267404916
0.430111571008
0.504187894227
0.523236769892
0.543087811255
0.606499573301
0.711045533493
0.857867098445
1.04747921896
1.28335571316
1.56827557253
1.91349027948
2.3256861136
2.83252629743
3.52254746642
4.91992419551
8.6521841378
0.129259224588
0.184037760382
0.25012227508
0.319004851191
0.379554583228
0.393640599246
0.431701387478
0.496651312039
0.591063374896
0.718106342738
0.881346848665
1.08365765062
1.33100842402
1.62824236216
1.98763949715
2.41692501069
2.94662659087
3.67825706713
5.18890207729
9.07682052113
0.102765800117
0.159758239851
0.209637863099
0.243647311049
0.281471428599
0.330638655848
0.396458749848
0.48323039038
0.595124567522
0.736169487158
0.910916044853
1.12369220467
1.381838352
1.691458825
2.06538886321
2.51242859986
3.06614801813
3.84288365915
5.47719992841
9.5383955622
0.0772024552511
0.114246761907
0.153289000574
0.196399912958
0.247402723001
0.310366093913
0.389202677927
0.487816405343
0.610299429564
0.760887055959
0.944702886627
1.16699614236
1.43577898639
1.75802429709
2.14692516105
2.61242795627
3.19144627048
4.01686631867
5.78847153049
10.0422795417
0.0621240577241
0.0959185844587
0.135430211264
0.182378080584
0.239333211725
0.309285438534
0.395498409073
0.501544201589
0.631435772691
0.789612402352
0.981553218911
1.21312760209
1.49270972153
1.82794554292
2.23236250828
2.7170663058
3.32279449197
4.20061915665
6.1243520454
10.5910337783
0.0579353308008
0.0913007631725
0.131909351321
0.181461314418
0.242178628122
0.31669942933
0.408059785607
0.519741988884
0.655801539345
0.820902414185
1.02078023051
1.2617626069
1.55249932863
1.90117234835
2.3217485282
2.82643771131
3.46039496735
4.39461235401
6.48667009397
11.1871272725
0.0578124830486
0.0918819353313
0.133970938401
0.185820536835
0.249578219819
0.327803593191
0.423504216922
0.540208963414
0.682088855424
0.854031369461
1.06200032291
1.31268532765
1.6150314728
1.97765514286
2.41509498265
2.94062405402
3.60444377814
4.59946781709
6.8779223988
11.8338008456
0.059263990094
0.0944942488288
0.13825232715
0.192336498047
0.258917561845
0.34058460258
0.440406447676
0.562018619248
0.709742149013
0.888680613831
1.10502771012
1.36578901284
1.68024081565
2.05738250323
2.51242744353
3.05972682172
3.75518383596
4.81600292889
7.30136394351
12.5348787202
0.0613523605906
0.0979406051801
0.143472472935
0.199811893462
0.269191793885
0.354276164959
0.458234077171
0.584834467704
0.738565374969
0.924744426543
1.14980452104
1.42105301842
1.74812584652
2.14038939873
2.61380865646
3.18388120528
3.91292714309
5.04523612589
7.76103595849
13.2944860444
0.0637305119632
0.101780518394
0.149163293184
0.207814316261
0.28004616799
0.36861855519
0.476819233204
0.60856406961
0.768518519465
0.962217655656
1.19634491048
1.47851070913
1.81873349258
2.22674830063
2.71933912091
3.3132628739
4.07808341641
5.28850451212
8.26235630319
14.1174819027
0.0662742086436
0.105858663657
0.155163690703
0.216200961739
0.291372106685
0.383543489704
0.49613186806
0.633208811075
0.79962572546
1.00114178338
1.2447028914
1.53823053708
1.89214667341
2.31656427878
2.82915513501
3.44809000117
4.25114585342
5.54733155281
8.81107562913
15.0085010034
0.0689420715944
0.110125394499
0.161425892664
0.224935453037
0.303150877578
0.399052234126
0.516192580228
0.658806506232
0.831939531292
1.041583259
1.29495818631
1.60030777901
1.96847831708
2.40997358432
2.94342976113
3.58863161309
4.43273074488
5.82361981242
9.41463851092
15.9726335012
0.0717232663544
0.114569589579
0.167942992234
0.23401923946
0.315395184401
0.415170208543
0.537040014062
0.6854092004
0.865525673844
1.08362268326
1.34720756099
1.66485807732
2.04786612313
2.50714131668
3.06237220339
3.73521063668
4.6235690817
6.11954912868
10.0810661228
17.0149312507
0.07461800927
0.119193868331
0.17472230253
0.243466479053
0.328127812848
0.431930184255
0.558718140439
0.713073344774
0.900454683455
1.12734684402
1.40155653184
1.73200901756
2.13046410411
2.60825416211
3.18622296996
3.88820489799
4.82452012062
6.43762794095
10.8195008055
18.1401451277
0.0776301634761
0.124005475708
0.181775593008
0.253294872233
0.341373783091
0.449365880065
0.581270897893
0.741854882114
0.936796683528
1.17284277746
1.45811227076
1.80189185792
2.21643319084
2.71351050442
3.31524523026
4.04804676662
5.03660264938
6.78083670634
11.6405925288
19.3540876794
0.0807658032002
0.129014152903
0.18911761154
0.263525519353
0.35516196358
0.467515569958
0.604747813267
0.771816811242
0.974630737046
1.22020878341
1.51699603396
1.87465512619
2.3059553971
2.823134582
3.44973714713
4.21522958008
5.26095492365
7.15237109426
12.5552345959
20.6623606194
0.0840329513343
0.134232919018
0.196767528724
0.274185193012
0.369528396272
0.486426575147
0.629209791386
0.803036388149
1.01405363628
1.26956500805
1.57835577197
1.95047965299
2.39925173863
2.937398496
3.59006296428
4.39036819681
5.49902402577
7.55627745678
13.5768541235
22.0731003439
0.0874400572333
0.139675279216
0.20474514849
0.285301529733
0.38451032225
0.506147918722
0.654720148102
0.835594291049
1.05516697533
1.32103825054
1.64234853204
2.02955838912
2.49655912842
3.05659517614
3.73661498871
4.57411895213
5.75225677599
7.99635223878
14.7180634599
23.5955043178
0.0909958413872
0.145354950368
0.213070671336
0.296902772537
0.400145845746
0.526729802285
0.681343809418
0.869573369286
1.09807529208
1.37475931038
1.70913688756
2.11209238577
2.5981274026
3.18104152172
3.88985198713
4.76736817462
6.02299625969
8.47930885311
16.0007298783
25.2461138968
0.0947093484419
0.151286561758
0.221765407554
0.309018420197
0.41647448736
0.548223940839
0.709147242544
0.905057890234
1.14288420971
1.43085938023
1.77888261675
2.19827882237
2.70419660424
3.31103059452
4.05014579403
4.97066049714
6.31189432116
9.00569945415
16.8526419079
27.037245065
0.0985881089041
0.157482219315
0.230847251169
0.321673628837
0.433530494986
0.57067585385
0.738189954633
0.942124645241
1.18969188748
1.489463038
1.85174323852
2.28831810151
2.81502781726
3.44692811096
4.21817303235
5.18581737704
6.62501436278
9.59450716616
17.6944818621
29.0260919804
0.102648304608
0.163966834624
0.240352321111
0.33491831051
0.451380532184
0.594172530975
0.768583380381
0.980914312707
1.23867356516
1.55078580445
1.9279813975
2.38251762091
2.93097329436
3.58908464542
4.39400870852
5.41141984145
6.95408850625
10.2165946106
18.5517042707
31.2217764546
0.106845591996
0.170673767634
0.250183707684
0.348618674004
0.469845817121
0.618480838952
0.800029126909
1.02105126267
1.2893635729
1.61426007749
2.00691306208
2.48010039827
3.05116826106
3.73680345705
4.57810552508
5.6537418397
7.32725002685
10.962896138
19.5802082416
33.5960083396
0.111427372345
0.177983669506
0.260896626256
0.363543445708
0.489955440639
0.644945244578
0.834250795136
1.06471062874
1.34446939146
1.68320849019
2.09258646566
2.58582282874
3.18125892429
3.89601444727
4.77531608336
5.90672827342
7.6932525383
11.6502199542
20.4881229417
36.6414432457
0.115974374344
0.185249654164
0.271547439464
0.378384949675
0.509957702119
0.671274666977
0.868307227949
1.10817266128
1.3993463974
1.75190612696
2.17797093706
2.69135904191
3.31113772095
4.05584645933
4.97525598121
6.17444155862
8.11677822649
12.4850863623
21.4808004583
38.3156538408
1.91736165239
2.99977811609
2.05104437428
3.20862645811
2.1973719035
3.43574552465
2.35821382475
3.68232529828
2.53527245816
3.94947101199
2.72997127843
4.23814739529
2.94327429395
4.54916337694
3.17563827366
4.88331939184
3.426967666
5.24139962554
3.696546936
5.62464980348
3.98623075465
6.03459466046
4.29526091464
6.47258251118
4.62345628145
6.94043271699
4.97076426022
7.44045451516
5.33820771964
7.9754765619
5.72659007541
8.54843528606
6.1360887338
9.16268831421
6.56826115652
9.82177297798
7.02238566447
10.529322548
7.4998912427
11.28942536
8.00014087675
12.1060737726
8.52396515535
12.9838548341
9.07156322104
13.9273571183
9.64469939412
14.9422546668
10.2442061013
16.0320183424
10.8736638512
17.2073496633
11.5393975722
18.4589212627
12.2377744315
19.8275855248
13.0154635425
21.2238049405
13.7537226487
22.8855215262
14.646775979
24.2699106974
15.8216425273
26.7425642737
)
;

boundaryField
{
    inletfuel
    {
        type            zeroGradient;
    }
    inletair
    {
        type            zeroGradient;
    }
    outlet
    {
        type            zeroGradient;
    }
    axis
    {
        type            empty;
    }
    leftside
    {
        type            zeroGradient;
    }
    burnerwall
    {
        type            zeroGradient;
    }
    front
    {
        type            wedge;
    }
    back
    {
        type            wedge;
    }
    procBoundary1to0
    {
        type            processor;
        value           nonuniform List<scalar> 
27
(
0.000273939525389
0.000827072986686
0.00139367405024
0.00168614769722
1.16889429429
1.41197281123
1.70943501783
2.07291626923
2.53496944821
3.35575600845
5.93103518308
0.00634052807136
0.00996640192302
0.0145253034044
0.037934670019
0.12530585
0.467134224403
1.98856796986
0.689933878343
0.667151788539
0.802739918892
0.910176043188
0.914939958935
1.02379460782
1.02379460782
1.79412597606
2.80644131366
)
;
    }
}


// ************************************************************************* //
