/*--------------------------------*- C++ -*----------------------------------*\
  =========                 |
  \\      /  F ield         | OpenFOAM: The Open Source CFD Toolbox
   \\    /   O peration     | Website:  https://openfoam.org
    \\  /    A nd           | Version:  7
     \\/     M anipulation  |
\*---------------------------------------------------------------------------*/
FoamFile
{
    version     2.0;
    format      ascii;
    class       volScalarField;
    location    "0.01";
    object      ed::R_H2O;
}
// * * * * * * * * * * * * * * * * * * * * * * * * * * * * * * * * * * * * * //

dimensions      [1 -3 -1 0 0 0 0];

internalField   nonuniform List<scalar> 
815
(
0.172368377733
0.173456483567
0.175352403145
0.163118894999
0.16411063389
0.165980285506
0.237043116132
0.245110543139
0.263800588919
0.779066479466
0.805621010132
0.866053270045
3.03995204385
3.12542578871
3.32456932813
12.6053535613
12.9595717973
13.8008205371
8.02408428918
7.87263051315
7.56416275122
3.3661183413
3.31851832733
3.23105329112
2.23316608473
2.23364635388
2.23570385418
1.74383148648
1.73287590623
1.71195759881
1.29716483187
1.29313315891
1.28536923291
1.13923519765
1.13773253848
1.13480162167
1.08334896156
1.08280912516
1.0817137611
1.064260108
1.06406055827
1.06364873091
1.05818825126
1.05812477935
1.05796404152
1.05668224189
1.05663125752
1.05655549253
1.05663646515
1.05660592335
1.05655318004
1.05705907299
1.05703130046
1.05698253109
1.05759804558
1.05757762171
1.05752714526
1.05818024935
1.05816046716
1.05810438485
1.05870915327
1.05871538961
1.05866946078
1.05936894621
1.05933324465
1.059283875
1.05998325154
1.05997932972
1.05993655086
1.06079576141
1.0607485229
1.06070338522
1.06168080539
1.06164660548
1.06159302728
1.06272618368
1.06269004432
1.06263083548
1.06390175806
1.06387486839
1.06381238867
1.06534486316
1.06531576103
1.06524426076
1.06631411621
1.06633335232
1.06629005452
1.06991485256
1.06977303776
1.06963759114
1.07066655204
1.07065937654
1.07057696296
0.177199677826
0.168010002139
0.292412870957
0.95677049327
3.62492121933
15.1355891495
7.15644082583
3.12099516805
2.23574686638
1.6823095323
1.27458816806
1.13080552951
1.08024630886
1.06311353901
1.05777227064
1.05647841383
1.0565158975
1.05695566496
1.05750236298
1.05807625312
1.05865041278
1.05925453919
1.05991653969
1.06067487049
1.06156268236
1.0625973289
1.06377896008
1.06520523613
1.06628242723
1.06955307942
1.07053407053
1.07436397365
1.06512757568
1.0604653386
1.06031495556
1.07237818084
1.17991522725
1.74465128671
0.179729590669
0.179089025321
0.24304969521
0.501713777491
1.23295416818
3.54859508982
7.89805101872
2.27195721396
1.7617725278
1.69831761465
1.42939027474
1.1910275795
1.10110947727
1.07242064608
1.06468854749
1.06037236532
1.06046037823
1.07368664756
1.18701698997
1.77680566183
0.17577938743
0.245893333484
0.440691426712
0.941830468643
2.272569664
6.46043621585
6.03076336695
2.11934261874
1.79703525184
1.76478139745
1.35098684527
1.16109701891
1.09215461239
1.07000235836
1.06385958408
1.05999673113
1.06044039372
1.0751906229
1.19513557331
1.78963576248
0.365134514351
0.577722335525
1.05849880322
2.19988031571
5.31249101061
11.5315606801
3.73670566203
2.06496439909
1.80882188306
1.60232517817
1.26874245435
1.13145410768
1.08321285036
1.06719614969
1.06264567601
1.05935053052
1.06028319065
1.0769993395
1.2045199308
1.79321698295
1.18130890046
1.79693194429
3.15442295151
6.47917435345
14.564192594
5.48668105644
2.45236912004
1.97950917345
1.83481363516
1.41445206324
1.19505295441
1.10567216622
1.07505470975
1.06423024334
1.06114963993
1.05850498908
1.06006719073
1.07924280691
1.21542411089
1.79858824648
4.37750580049
6.46932081048
11.3035537879
12.5266299233
5.85115973837
2.8789962165
2.15874867542
1.90696477023
1.56191863642
1.26748482429
1.13777410311
1.08567994276
1.06817302442
1.06133156722
1.05952284825
1.05755452285
1.05989578415
1.082015592
1.22803974388
1.80611462631
15.813072329
12.9233818727
8.24894972627
4.82725167639
2.89219236387
2.27151470022
1.99213934578
1.65266231713
1.3228152385
1.16770749797
1.09898365541
1.07170673308
1.06276378413
1.05871966253
1.0579406794
1.05661047764
1.05987987806
1.08536052634
1.24248662996
1.81615207975
6.25744251021
4.8005057776
3.46619057735
2.61638491842
2.28324078189
2.04008055591
1.64060731218
1.3362634999
1.18278355799
1.10807087247
1.07557441043
1.06271622108
1.05877756903
1.05656672581
1.05656111658
1.05579620377
1.06009676925
1.08930930537
1.25876719968
1.82899438952
2.88720496451
2.57932340855
2.39778463897
2.20033998822
1.94675640724
1.53631640799
1.30399072377
1.17627434046
1.10901867883
1.07642008591
1.06277766428
1.05735728408
1.0560664576
1.05498209719
1.05549719239
1.05521940676
1.06058387309
1.09389383641
1.27664884007
1.84485212887
2.22383224548
2.16682782395
1.94227597672
1.62198054587
1.39170483912
1.24283758069
1.15264468865
1.10114406621
1.07410244722
1.06133719721
1.05641600251
1.05446130748
1.05443359193
1.05399478962
1.05480478296
1.05492994218
1.06135556642
1.09907644144
1.29586998059
1.86397178185
1.61272705329
1.49484614673
1.36905511186
1.25947750498
1.17769807259
1.12271009103
1.08862968826
1.06923873354
1.0594127948
1.05501555184
1.05367412921
1.05318411262
1.05365984257
1.05354367679
1.05447845667
1.05493148621
1.06243596284
1.10482775884
1.31695423701
1.88680481854
1.25016335741
1.20863226478
1.16443747903
1.12558230919
1.09617321661
1.07626653923
1.06405102448
1.05732410991
1.05417909899
1.0529491563
1.05287439207
1.05291187182
1.05350995739
1.05351646308
1.05447402024
1.05518841034
1.063814206
1.11110770695
1.33988724554
1.913191388
1.12202773064
1.10702832555
1.0912040036
1.07736198383
1.06693965647
1.05999263245
1.05588160086
1.05377462674
1.05296051997
1.05277732022
1.05304152135
1.05320630069
1.0537678589
1.05377969994
1.05471853975
1.05564743986
1.06545412764
1.11788797575
1.36467355438
1.94293778997
1.07709249303
1.07166891338
1.06600979566
1.06112986596
1.05752326498
1.05520226474
1.05391952054
1.05335647663
1.05325124627
1.05334163414
1.053629824
1.05377173794
1.0542526041
1.05421480945
1.05512956663
1.05625456399
1.06731806924
1.12517315232
1.39142742806
1.97596605807
1.06198748507
1.06004137319
1.0580339157
1.05634068997
1.05512828367
1.05439350342
1.0540376439
1.05393887308
1.05400342399
1.05412293703
1.05435450596
1.0544345791
1.05483707803
1.05473607959
1.05563860754
1.05696668567
1.0693824969
1.13300462777
1.42036774541
2.01226204449
1.05737181091
1.0566815177
1.05597960829
1.05540696592
1.05501653934
1.05480357267
1.05472865997
1.05474642481
1.05482528589
1.05491480239
1.0550854266
1.05510690869
1.05544779985
1.05528993479
1.05619887465
1.05775480316
1.07164169209
1.14145430046
1.45179990534
2.05181795317
1.0563324768
1.05609062122
1.05585077536
1.05566567987
1.05554911577
1.05549843599
1.05549827457
1.05553258748
1.05559204671
1.05564809792
1.05577221547
1.05574954183
1.05604738842
1.05584564876
1.05678217886
1.05860392794
1.07411196546
1.15064313719
1.48620006381
2.0946923745
1.0564535786
1.05636737941
1.05628750622
1.05623254085
1.05620307659
1.05619826713
1.05621227743
1.05623989964
1.0562793875
1.05631080624
1.0564034942
1.05635085203
1.05662162697
1.05638937196
1.0573751698
1.05951129021
1.07682371105
1.16070268923
1.52399647622
2.14086013557
1.05691820468
1.0568832522
1.05685642359
1.05684285869
1.05683880671
1.05684423562
1.05685696841
1.05687557496
1.05690067529
1.05691607803
1.05698851664
1.05691651096
1.05717224903
1.05692061163
1.05797712732
1.0604865381
1.07982785754
1.17180932863
1.56579482901
2.19031638403
1.05746938179
1.057449202
1.05743876228
1.05743713175
1.05743926023
1.05744514942
1.05745410412
1.05746581475
1.05748155246
1.057487007
1.0575465292
1.05746217576
1.05771130499
1.05744879951
1.05859741403
1.06155012971
1.08318929579
1.18415350316
1.61215769008
2.24300733912
1.05803964284
1.05802173071
1.05801585726
1.05801699296
1.058020007
1.0580243935
1.05803031734
1.05803752368
1.0580475154
1.05804703933
1.05809842742
1.05800630319
1.05825490168
1.05798838352
1.05925185928
1.06273126902
1.08698625107
1.19794322322
1.66368437356
2.29880271414
1.05861801267
1.05860033474
1.05859511866
1.05859623443
1.05859899495
1.05860196231
1.05860610724
1.05861075847
1.05861765612
1.0586141647
1.05866095661
1.0585644691
1.05881769767
1.05855380097
1.05995853453
1.06406570445
1.09131323379
1.21342259854
1.72104922867
2.35767468444
1.05922141019
1.05920244659
1.0591970091
1.05919781902
1.05920058677
1.05920282763
1.05920634387
1.05920989564
1.05921553947
1.05921104571
1.05925574558
1.05915719967
1.05941932109
1.0591644499
1.06074074645
1.06559550136
1.09626812257
1.23081689143
1.78479581197
2.41952881279
1.05988613178
1.05986613353
1.05986015126
1.05986062657
1.059863515
1.05986538119
1.05986877876
1.05987190646
1.05987714263
1.0598725807
1.05991647799
1.05981684532
1.06009099895
1.05985134282
1.06163481825
1.06738180308
1.10198751552
1.25043604164
1.85565955038
2.48452273338
1.0606454497
1.06062470358
1.06061792544
1.0606181916
1.0606212846
1.06062309221
1.06062666775
1.06062980996
1.06063510776
1.06063099329
1.06067485823
1.06057441795
1.06086317114
1.06064514924
1.06267635954
1.06948174024
1.10857815726
1.27247953195
1.93407991377
2.55285627126
1.06152773689
1.06150494445
1.06149761477
1.0614981221
1.06150159974
1.06150371736
1.06150771618
1.06151124713
1.06151694495
1.0615136742
1.06155816978
1.06145724513
1.06176385961
1.06157674035
1.06391020997
1.07199028591
1.11628548439
1.29753376124
2.0215082924
2.62541106335
1.06255739058
1.0625326802
1.0625243759
1.06252485106
1.06252827153
1.06253043098
1.06253443025
1.06253802328
1.06254369051
1.06254083857
1.06258576439
1.06248331838
1.0628096407
1.0626612482
1.0653477487
1.07490885537
1.12500597398
1.32516400185
2.0469418932
2.70245615266
1.0637352723
1.06370928425
1.06370031556
1.06370124719
1.06370506031
1.06370783602
1.06371235942
1.06371667471
1.06372298911
1.06372137702
1.06376806835
1.06366584956
1.06401894157
1.06393022695
1.06707128708
1.07849660368
1.13556120311
1.35756248483
2.06616117504
2.78845764696
1.06514806159
1.06511528589
1.06510416875
1.06510466268
1.06510784241
1.06511037799
1.06511438177
1.06511833218
1.06512382814
1.06512152137
1.06516823716
1.06506011873
1.06543675986
1.06540216196
1.0690004191
1.08232166885
1.14628334063
1.39003885857
2.08255501152
2.88268745471
1.06626163781
1.06624340065
1.06623213071
1.06623520614
1.06624031831
1.06624565204
1.06625243589
1.0662604805
1.06627102059
1.06627647564
1.06633313812
1.06624309971
1.06667199172
1.06678951732
1.07114874807
1.08748049482
1.16147953271
1.43419999452
2.11295832933
2.98115233696
1.06941769209
1.06934550841
1.06932450943
1.06931832585
1.06931249444
1.06930646308
1.06929907851
1.06929044144
1.06928004411
1.06925815629
1.06929146218
1.06913877287
1.0695769913
1.06966336603
1.07451641248
1.09263523804
1.17276078717
1.46556630045
2.12549083369
3.12455463687
1.07044976583
1.0703950299
1.07037401724
1.07036853593
1.07036279158
1.07035636889
1.07034743979
1.070336473
1.07032230917
1.07029696899
1.07031984214
1.07017735117
1.07062902237
1.07091840065
1.07664536441
1.09841002659
1.18986635892
1.5101768752
2.14241265737
3.14042853875
2.30438354078
3.50999347325
2.36977074622
3.60967167856
2.44066609662
3.71621436876
2.51798851468
3.82942215044
2.60227290732
3.94895031197
2.69361729425
4.07428090707
2.79158456946
4.20474203583
2.89525654454
4.33967111809
3.00329032161
4.47841169274
3.11395319285
4.6207098529
3.22778409481
4.76649765272
3.34315449841
4.91551137448
3.45905908831
5.0677995339
3.5746941425
5.22367597684
3.69008231501
5.3836841891
3.8050643155
5.54827753173
3.91907529995
5.71802032567
4.03245135532
5.89341055982
4.14411017634
6.07483139659
4.25432695179
6.26276013385
4.36219145592
6.45744498809
4.46768431069
6.6592906732
4.57045847321
6.86852588011
4.67096842748
7.08573855587
4.76915729976
7.31029752552
4.86619563068
7.54470682068
4.96424227104
7.7825133958
5.06099182988
8.03844540796
5.17443126531
8.27403874819
5.25658357213
8.57926714256
5.38163666954
8.74894421064
5.59174196746
9.27042003014
)
;

boundaryField
{
    inletfuel
    {
        type            calculated;
        value           nonuniform 0();
    }
    inletair
    {
        type            calculated;
        value           nonuniform 0();
    }
    outlet
    {
        type            calculated;
        value           uniform 0;
    }
    axis
    {
        type            empty;
    }
    leftside
    {
        type            calculated;
        value           uniform 0;
    }
    burnerwall
    {
        type            calculated;
        value           nonuniform 0();
    }
    front
    {
        type            wedge;
    }
    back
    {
        type            wedge;
    }
    procBoundary1to0
    {
        type            processor;
        value           uniform 0;
    }
}


// ************************************************************************* //
