/*--------------------------------*- C++ -*----------------------------------*\
  =========                 |
  \\      /  F ield         | OpenFOAM: The Open Source CFD Toolbox
   \\    /   O peration     | Website:  https://openfoam.org
    \\  /    A nd           | Version:  7
     \\/     M anipulation  |
\*---------------------------------------------------------------------------*/
FoamFile
{
    version     2.0;
    format      ascii;
    class       volScalarField;
    location    "0.01";
    object      ed::R_O2;
}
// * * * * * * * * * * * * * * * * * * * * * * * * * * * * * * * * * * * * * //

dimensions      [1 -3 -1 0 0 0 0];

internalField   nonuniform List<scalar> 
815
(
-0.153079193039
-0.154045532487
-0.155729285869
-0.144864789842
-0.145745546459
-0.147405971441
-0.210516391754
-0.217681019236
-0.234279522763
-0.691883682891
-0.715466582373
-0.769136064575
-2.69976089506
-2.77566955105
-2.95252758449
-11.1947294307
-11.5093082557
-12.2564155843
-7.12613510677
-6.99163003036
-6.71768189268
-2.9894269827
-2.94715373151
-2.86947662311
-1.98325972935
-1.98368625314
-1.98551350527
-1.54868497492
-1.53895539803
-1.52037799037
-1.15200333328
-1.14842283173
-1.14152774145
-1.01174709092
-1.01041258945
-1.007809662
-0.962114901788
-0.961635476729
-0.960662691298
-0.945162219766
-0.944985000994
-0.944619259894
-0.939769844771
-0.939713475795
-0.939570725615
-0.938432368016
-0.938387089136
-0.938319802757
-0.938391714001
-0.938364590032
-0.938317749057
-0.938767029167
-0.938742364575
-0.938699052828
-0.939245687089
-0.939227548788
-0.93918272099
-0.939762738329
-0.939745169897
-0.939695363576
-0.940232454334
-0.940237992787
-0.940197203701
-0.940818411988
-0.940786705675
-0.94074286082
-0.941363972406
-0.941360489468
-0.941322497847
-0.942085556936
-0.942043604737
-0.942003518265
-0.942871558524
-0.942841185818
-0.942793603375
-0.943799951926
-0.943767856807
-0.943715273839
-0.944843971601
-0.944820091067
-0.944764603254
-0.9461255835
-0.946099738097
-0.946036239187
-0.946986370597
-0.94700345406
-0.946965001571
-0.950184160247
-0.950058215478
-0.949937926251
-0.950851739485
-0.95084536697
-0.950772176025
-0.157369838047
-0.149208549086
-0.259689897351
-0.849701418317
-3.21926807214
-13.4418145813
-6.35558680225
-2.77173474674
-1.98555170412
-1.49404774259
-1.13195315051
-1.00426075953
-0.959359456866
-0.944143959586
-0.939400415189
-0.938251349692
-0.938284638679
-0.9386751932
-0.939160712016
-0.939670379983
-0.940180287302
-0.940716807882
-0.941304726061
-0.941978194529
-0.94276665426
-0.943685516873
-0.944734915548
-0.946001581682
-0.946958227826
-0.949862871962
-0.950734083546
-0.954135394667
-0.945932611958
-0.941792110672
-0.941658556509
-0.952371825468
-1.04787475067
-1.54941303396
-0.15961663657
-0.159047754807
-0.215850794097
-0.445568619979
-1.09497827618
-3.15148335161
-7.01420580981
-2.01770986943
-1.56461829263
-1.50826441249
-1.26943185677
-1.05774355572
-0.977887895934
-0.95240953856
-0.945542713983
-0.941709541731
-0.9417877054
-0.953533865936
-1.05418177822
-1.57796911752
-0.156108487731
-0.218376210059
-0.391375082062
-0.836433283269
-2.01825378218
-5.73746980511
-5.35588024764
-1.88217387734
-1.59593487989
-1.56729044947
-1.19980230017
-1.03116242684
-0.969935140871
-0.950261873557
-0.944806517178
-0.941375943541
-0.941769957293
-0.954869536284
-1.0613918373
-1.58936344332
-0.324273498089
-0.513071307426
-0.94004564387
-1.95369886252
-4.71798741523
-10.2411012194
-3.31854308133
-1.83388094744
-1.60640250753
-1.42301417746
-1.12676161161
-1.00483675743
-0.961994022352
-0.947769698578
-0.943728453607
-0.940802057138
-0.941630346302
-0.956475845295
-1.06972602185
-1.59254390105
-1.04911246245
-1.59584313315
-2.80142173565
-5.75411101866
-12.9343611564
-4.87268441942
-2.17793246572
-1.75798873825
-1.62948560716
-1.25616533195
-1.06131846401
-0.9819399892
-0.954748832737
-0.945135697167
-0.942399834067
-0.940051137489
-0.941438518233
-0.958468253555
-1.07940995061
-1.59731408395
-3.88763335986
-5.74536015364
-10.0386098371
-11.1248154991
-5.19637547716
-2.556817111
-1.91717013035
-1.69356254331
-1.38712940041
-1.12564471885
-1.01044950271
-0.964185030461
-0.948637254433
-0.942561402463
-0.940955091354
-0.939207034849
-0.941286293211
-0.96093074528
-1.09061380912
-1.60399821108
-14.043482821
-11.4771682278
-7.32583658394
-4.28704963715
-2.56853652042
-2.01731687597
-1.76920550905
-1.46771825087
-1.17478328631
-1.03703314868
-0.975999967886
-0.951775517244
-0.943833344635
-0.940241787536
-0.939549977876
-0.938368634665
-0.941272167118
-0.963901358902
-1.10344399116
-1.61291240574
-5.55719246503
-4.26329678492
-3.07830046019
-2.3235937894
-2.02773072997
-1.81178177424
-1.45701228233
-1.1867265965
-1.05042209585
-0.984070264033
-0.9552103754
-0.943791104214
-0.940293213907
-0.938329778964
-0.938324797443
-0.937645483535
-0.941464786719
-0.967408242909
-1.11790265526
-1.62431757438
-2.5641072447
-2.2906797126
-2.12945635644
-1.95410709456
-1.7289012276
-1.36439223412
-1.15806536181
-1.04464130369
-0.984912004468
-0.955961414082
-0.943845671499
-0.939031868425
-0.93788549414
-0.936922480975
-0.937379933546
-0.937133234009
-0.941897380349
-0.971479733987
-1.13378321942
-1.63840072568
-1.9749704097
-1.92434516763
-1.72492218749
-1.44046997686
-1.23596367571
-1.10375566813
-1.02365596938
-0.97791861414
-0.953903134807
-0.94256640242
-0.938195922619
-0.936459971147
-0.936435357155
-0.936045659791
-0.936765009404
-0.936876162465
-0.94258271599
-0.976082370541
-1.1508533846
-1.65538076047
-1.43225201256
-1.32756277496
-1.21584860579
-1.1185334726
-1.04590571058
-0.997071255248
-0.966804679536
-0.949583703511
-0.940857353624
-0.93695219183
-0.935760883446
-0.935325703018
-0.935748195571
-0.935645029524
-0.936475201229
-0.936877533705
-0.943542208763
-0.981190076703
-1.16957817043
-1.67565862626
-1.110261641
-1.07337815791
-1.03412906693
-0.999622052814
-0.97350403616
-0.95582505032
-0.944976534101
-0.939002406671
-0.936209343693
-0.93511703989
-0.935050642286
-0.935083927802
-0.935615083552
-0.935620861216
-0.936471261272
-0.937105706293
-0.944766217206
-0.986767256247
-1.18994482055
-1.69909236053
-0.996465255584
-0.983144385148
-0.96909091162
-0.956797907273
-0.947541908681
-0.941372303528
-0.937721324118
-0.935850134623
-0.935127131892
-0.934964433428
-0.935199068672
-0.935345408094
-0.935844124147
-0.935854640099
-0.936688417394
-0.937513367314
-0.946222620551
-0.99278876721
-1.21195737416
-1.72550993938
-0.956558574316
-0.951741929829
-0.946716105566
-0.942382272935
-0.939179274946
-0.937118010298
-0.935978813823
-0.935478778325
-0.935385323953
-0.935465596814
-0.935721536287
-0.935847569096
-0.936274623091
-0.936241057911
-0.937053447591
-0.938052550159
-0.947877974503
-0.999258683357
-1.23571730883
-1.75484212139
-0.943143918675
-0.941415589847
-0.939632780406
-0.938129038059
-0.937052308208
-0.936399754819
-0.936083718382
-0.935996000688
-0.936053327913
-0.936159466638
-0.936365121442
-0.936436233859
-0.936793690437
-0.936703994405
-0.937505523392
-0.938684980614
-0.949711378782
-1.00621376385
-1.26141900936
-1.78707634199
-0.939044769608
-0.938431724863
-0.937808363856
-0.937299804026
-0.936953068823
-0.936763934558
-0.936697405097
-0.93671318193
-0.936783217924
-0.936862716919
-0.937014247134
-0.937033325227
-0.937336068371
-0.937195869471
-0.938003092828
-0.939384902439
-0.951717754786
-1.01371786115
-1.28933369848
-1.82220567754
-0.938121743996
-0.937906953692
-0.937693948198
-0.937529566144
-0.93742604635
-0.937381037983
-0.937380894628
-0.937411367693
-0.937464173029
-0.937513951728
-0.937624179693
-0.937604043386
-0.937868558927
-0.937689395297
-0.938521121365
-0.940139004428
-0.953911587891
-1.02187840503
-1.31988424706
-1.86028216178
-0.93822929369
-0.938152740766
-0.93808180593
-0.938032991553
-0.938006824543
-0.938002553294
-0.938014995748
-0.938039526843
-0.938074595747
-0.938102498523
-0.938184814073
-0.938138062918
-0.938378536313
-0.938172272204
-0.939047752614
-0.940944826737
-0.95631987085
-1.03081222531
-1.35345098585
-1.90128343883
-0.938641924976
-0.938610883914
-0.938587057602
-0.938575010713
-0.938571412172
-0.938576233548
-0.938587541456
-0.938604065811
-0.93862635724
-0.938640036314
-0.938704368549
-0.938640420795
-0.938867540047
-0.938644062575
-0.939582347026
-0.941810937805
-0.95898783307
-1.04067595681
-1.39057182089
-1.94520519933
-0.93913142165
-0.93911350011
-0.939104228668
-0.939102780605
-0.939104670891
-0.939109901043
-0.939117853653
-0.939128253779
-0.939142230335
-0.939147074478
-0.939199935738
-0.93912502202
-0.93934627201
-0.939113142661
-0.940133219463
-0.942755506336
-0.961973103696
-1.05163873491
-1.43174636493
-1.99199968096
-0.939637866637
-0.939621958995
-0.939616742826
-0.939617751427
-0.939620428176
-0.939624323796
-0.939629584725
-0.939635984623
-0.9396448582
-0.939644435412
-0.939690072823
-0.939608257918
-0.939829036557
-0.939592343582
-0.940714427873
-0.943804468181
-0.965345154058
-1.06388529224
-1.4775068648
-2.04155117698
-0.940151512978
-0.94013581333
-0.940131180966
-0.940132171868
-0.940134623471
-0.940137258759
-0.940140939848
-0.940145070576
-0.940151196327
-0.940148095623
-0.940189651199
-0.940103961293
-0.940328851884
-0.940094486998
-0.941342021395
-0.944989571285
-0.969187918213
-1.07763242099
-1.5284522055
-2.09383497651
-0.940687386248
-0.940670544804
-0.940665715802
-0.940666435087
-0.940668893106
-0.940670883198
-0.940674005945
-0.940677160254
-0.940682172498
-0.940678181621
-0.940717879272
-0.940630361316
-0.940863149584
-0.940636800192
-0.942036698526
-0.946348173601
-0.9735883215
-1.09308017512
-1.58506511594
-2.14876721047
-0.941277721006
-0.941259960695
-0.941254647878
-0.941255069998
-0.941257635192
-0.941259292547
-0.941262309906
-0.941265087591
-0.941269737799
-0.941265686376
-0.941304671268
-0.941216188161
-0.941459662154
-0.94124682516
-0.942830717654
-0.947934576099
-0.97866767578
-1.11050381003
-1.64799872379
-2.20648787274
-0.941952066124
-0.941933641638
-0.941927622016
-0.941927858388
-0.94193060526
-0.94193221059
-0.941935386004
-0.941938176578
-0.94194288152
-0.941939227486
-0.941978183642
-0.941888983305
-0.942145423062
-0.941951799289
-0.943755703445
-0.949799516121
-0.98452078023
-1.13008048501
-1.7176433193
-2.26717442658
-0.942735619425
-0.942715377611
-0.942708868173
-0.942709318731
-0.942712407199
-0.942714287836
-0.942717839163
-0.94272097498
-0.94272603517
-0.942723130444
-0.942762646664
-0.942673016167
-0.942945318418
-0.942779139065
-0.944851477687
-0.952027338604
-0.991365605446
-1.15233097696
-1.79528787235
-2.3316098478
-0.943650047917
-0.943628102794
-0.943620727802
-0.943621149784
-0.943624187488
-0.943626105274
-0.943629656999
-0.943632847944
-0.943637880979
-0.94363534819
-0.943675246509
-0.943584264896
-0.943874069549
-0.94374228317
-0.946128146134
-0.954619300447
-0.999110213399
-1.17686920718
-1.81787528158
-2.40003307168
-0.944696116727
-0.944673036915
-0.944665071877
-0.944665899254
-0.944669285659
-0.944671750746
-0.94467576795
-0.944679600332
-0.944685208104
-0.944683776419
-0.944725242677
-0.944634462857
-0.94494804149
-0.944869254634
-0.947658808933
-0.957805555505
-1.00848424116
-1.20564208128
-1.83494379609
-2.47641041839
-0.94595080536
-0.945921697477
-0.945911824424
-0.945912263074
-0.945915086975
-0.94591733881
-0.945920894539
-0.945924402872
-0.94592928379
-0.945927235164
-0.945968723142
-0.945872703895
-0.946207196342
-0.946176470185
-0.949372058063
-0.961202570065
-1.01800649913
-1.23448412963
-1.84950305163
-2.56009527474
-0.946939764885
-0.946923568582
-0.946913559824
-0.946916291093
-0.946920831179
-0.946925568029
-0.946931592721
-0.946938737083
-0.946948097667
-0.946952942259
-0.94700326383
-0.946923301324
-0.947304197424
-0.94740857111
-0.951279974527
-0.965784088598
-1.03150213476
-1.27370333645
-1.876504033
-2.64754127218
-0.949742635388
-0.949678529555
-0.9496598805
-0.949654388901
-0.949649210069
-0.949643853658
-0.949637295473
-0.949629624947
-0.949620391148
-0.949600952723
-0.94963053146
-0.949494929113
-0.949884107944
-0.949960816763
-0.954270774562
-0.970361981264
-1.04152094072
-1.30155954107
-1.88763406555
-2.77489588698
-0.950659213115
-0.950610602506
-0.950591941298
-0.950587073392
-0.95058197187
-0.950576267923
-0.950568338049
-0.950558598514
-0.950546019715
-0.950523515273
-0.950543828761
-0.950417283497
-0.950818409637
-0.951075404531
-0.956161482399
-0.975490532002
-1.05671228355
-1.34117789145
-1.90266222296
-2.78899339211
-2.04650747146
-3.11720151644
-2.10457740734
-3.20572505789
-2.1675390896
-3.30034490206
-2.23620860727
-3.40088396899
-2.31106100757
-3.50703612261
-2.39218334118
-3.61834137832
-2.47918741716
-3.73420302636
-2.5712577986
-3.85403263375
-2.66720186694
-3.9772472018
-2.76548081609
-4.10362123755
-2.86657327194
-4.23309439872
-2.96903294879
-4.3654324794
-3.07196703291
-4.50067856606
-3.17466174416
-4.6391113831
-3.27713720148
-4.7812135966
-3.37925194016
-4.92738783343
-3.48050432605
-5.07813526322
-3.5811928357
-5.23389814655
-3.68035628112
-5.39501676738
-3.7782390556
-5.5619150107
-3.87403279379
-5.73481331592
-3.9677202862
-5.91407110671
-4.05899332636
-6.09989148195
-4.14825553846
-6.29279659343
-4.2354564133
-6.49222589894
-4.32163550014
-6.70040321207
-4.40871005977
-6.9115976266
-4.49463269006
-7.13888911944
-4.59537748713
-7.348117975
-4.66833639641
-7.61918925221
-4.7793952083
-7.7698783113
-4.96598830549
-8.23299746743
)
;

boundaryField
{
    inletfuel
    {
        type            calculated;
        value           nonuniform 0();
    }
    inletair
    {
        type            calculated;
        value           nonuniform 0();
    }
    outlet
    {
        type            calculated;
        value           uniform 0;
    }
    axis
    {
        type            empty;
    }
    leftside
    {
        type            calculated;
        value           uniform 0;
    }
    burnerwall
    {
        type            calculated;
        value           nonuniform 0();
    }
    front
    {
        type            wedge;
    }
    back
    {
        type            wedge;
    }
    procBoundary1to0
    {
        type            processor;
        value           uniform 0;
    }
}


// ************************************************************************* //
