/*--------------------------------*- C++ -*----------------------------------*\
  =========                 |
  \\      /  F ield         | OpenFOAM: The Open Source CFD Toolbox
   \\    /   O peration     | Website:  https://openfoam.org
    \\  /    A nd           | Version:  7
     \\/     M anipulation  |
\*---------------------------------------------------------------------------*/
FoamFile
{
    version     2.0;
    format      ascii;
    class       volScalarField;
    location    "0.01";
    object      ed::R_H2;
}
// * * * * * * * * * * * * * * * * * * * * * * * * * * * * * * * * * * * * * //

dimensions      [1 -3 -1 0 0 0 0];

internalField   nonuniform List<scalar> 
815
(
-0.0192891846946
-0.0194109510805
-0.0196231172759
-0.0182541051566
-0.0183650874312
-0.0185743140644
-0.0265267243783
-0.0274295239033
-0.0295210661557
-0.0871827965746
-0.090154427759
-0.0969172054699
-0.340191148793
-0.349756237661
-0.372041743641
-1.41062413061
-1.45026354166
-1.5444049528
-0.897949182411
-0.88100048279
-0.846480858538
-0.376691358608
-0.371364595816
-0.361576668007
-0.24990635538
-0.249960100739
-0.250190348907
-0.195146511567
-0.193920508203
-0.191579608435
-0.14516149859
-0.144710327178
-0.143841491464
-0.127488106734
-0.127319949033
-0.126991959662
-0.121234059768
-0.121173648432
-0.121051069801
-0.119097888234
-0.119075557272
-0.119029471011
-0.118418406489
-0.118411303554
-0.118393315906
-0.118249873877
-0.118244168382
-0.118235689768
-0.118244751151
-0.118241333317
-0.118235430985
-0.11829204382
-0.118288935887
-0.118283478265
-0.11835235849
-0.118350072921
-0.118344424265
-0.118417511021
-0.11841529726
-0.118409021271
-0.118476698939
-0.118477396828
-0.118472257082
-0.118550534222
-0.118546538976
-0.118541014179
-0.118619279134
-0.118618840256
-0.118614053012
-0.118710204471
-0.118704918163
-0.118699866952
-0.118809246865
-0.118805419665
-0.118799423902
-0.11892623175
-0.118922187512
-0.118915561644
-0.119057786457
-0.119054777322
-0.11904778542
-0.119219279656
-0.119216022932
-0.119208021569
-0.119327745614
-0.119329898265
-0.119325052949
-0.119730692311
-0.119714822277
-0.119699664887
-0.119814812556
-0.119814009569
-0.119804786933
-0.019829839779
-0.0188014530531
-0.0327229736054
-0.107069074953
-0.405653147187
-1.6937745682
-0.800854023579
-0.349260421309
-0.250195162263
-0.188261789713
-0.142635017552
-0.126544769982
-0.120886851993
-0.118969579427
-0.11837185545
-0.118227064142
-0.118231258817
-0.118280471764
-0.118341650961
-0.118405873142
-0.118470125482
-0.118537731304
-0.118611813627
-0.118696675962
-0.118796028101
-0.118911812032
-0.119044044535
-0.11920365445
-0.119324199403
-0.119690207455
-0.11979998698
-0.120228578986
-0.119194963721
-0.118673227929
-0.118656399052
-0.120006355369
-0.132040476575
-0.195238252744
-0.0201129540992
-0.0200412705139
-0.0271989011124
-0.0561451575116
-0.137975891998
-0.397111738209
-0.883845208913
-0.254247344522
-0.197154235165
-0.190053202159
-0.15995841797
-0.133284023784
-0.123221581332
-0.120011107516
-0.119145833504
-0.118662823592
-0.11867267283
-0.120152781626
-0.13283521175
-0.198836544314
-0.0196708996988
-0.0275171234256
-0.0493163446508
-0.105397185375
-0.254315881815
-0.722966410742
-0.674883119308
-0.2371687414
-0.201100371955
-0.197490947985
-0.151184545107
-0.129934592068
-0.122219471521
-0.1197404848
-0.119053066905
-0.118620787591
-0.118670436429
-0.120321086616
-0.133743736014
-0.20027231916
-0.0408610162625
-0.0646510280986
-0.118453159349
-0.246181453199
-0.59450359538
-1.29045946073
-0.418162580702
-0.231083451649
-0.202419375531
-0.179311000713
-0.141980842738
-0.126617350256
-0.121218828006
-0.119426451113
-0.118917222399
-0.118548473382
-0.118652844344
-0.12052349421
-0.134793908947
-0.200673081899
-0.132196438013
-0.201088811143
-0.353001215866
-0.725063334794
-1.62983143758
-0.613996637028
-0.274436654321
-0.221520435207
-0.205328027996
-0.158286731293
-0.133734490402
-0.123732177017
-0.120305877017
-0.119094546177
-0.118749805866
-0.118453851588
-0.118628672495
-0.120774553352
-0.136014160287
-0.201274162536
-0.489872440629
-0.723960656839
-1.26494395078
-1.40181442426
-0.654784261217
-0.322179105503
-0.241578545074
-0.213402226921
-0.174789236008
-0.141840105447
-0.127324600395
-0.121494912295
-0.119535769988
-0.118770164757
-0.118567756899
-0.118347488003
-0.118609490943
-0.121084846716
-0.137425934754
-0.202116415231
-1.76958950797
-1.44621364487
-0.923113142324
-0.540202039248
-0.323655843448
-0.254197824248
-0.222933836725
-0.184944066262
-0.148031952194
-0.130674349285
-0.12298368752
-0.119931215833
-0.118930439495
-0.118477874996
-0.118390701527
-0.118241842973
-0.118607710944
-0.121459167443
-0.139042638801
-0.203239674008
-0.70025004518
-0.537208992679
-0.387890117158
-0.292791129019
-0.255510051921
-0.22829878167
-0.183595029855
-0.1495369034
-0.132361462142
-0.124000608434
-0.12036403503
-0.118925116869
-0.118484355124
-0.118236946848
-0.118236319137
-0.118150720232
-0.118631982532
-0.121901062464
-0.140864544422
-0.204676815138
-0.323097719802
-0.288643695955
-0.268328282526
-0.246232893654
-0.217855179636
-0.17192417387
-0.145925361958
-0.131633036773
-0.124106674363
-0.120458671823
-0.118931992777
-0.118325415653
-0.118180963459
-0.118059616211
-0.11811725884
-0.118086172754
-0.118686492738
-0.122414102426
-0.142865620656
-0.206451403187
-0.248861835778
-0.242482656316
-0.217353789224
-0.181510569002
-0.155741163403
-0.139081912556
-0.128988719271
-0.123225452068
-0.120199312414
-0.118770794791
-0.118220079894
-0.118001336328
-0.117998234771
-0.117949129832
-0.118039773552
-0.118053779714
-0.11877285043
-0.122994070904
-0.145016595993
-0.208591021384
-0.180475040736
-0.167283371774
-0.153206506072
-0.140944032379
-0.131792362006
-0.125638835784
-0.121825008723
-0.11965503003
-0.118555441175
-0.118063360013
-0.117913245768
-0.117858409605
-0.117911646996
-0.117898647261
-0.118003255438
-0.118053952501
-0.118893754081
-0.123637682133
-0.147376066573
-0.211146192278
-0.139901716409
-0.135254106872
-0.130308412098
-0.12596025638
-0.122669180453
-0.120441488914
-0.119074490377
-0.11832170324
-0.117969755294
-0.117832116406
-0.117823749785
-0.117827944022
-0.117894873833
-0.117895601864
-0.118002758973
-0.118082704045
-0.119047988791
-0.124340450707
-0.149942424991
-0.21409902747
-0.125562475051
-0.123883940398
-0.122113091982
-0.120564076557
-0.119397747791
-0.118620328921
-0.118160276743
-0.11792449212
-0.117833388078
-0.117812886789
-0.117842452679
-0.1178608926
-0.117923734753
-0.117925059846
-0.118030122355
-0.118134072547
-0.119231507089
-0.125099208543
-0.152716180221
-0.217427850594
-0.120533918718
-0.119926983555
-0.11929369009
-0.118747593025
-0.118343990037
-0.118084254447
-0.117940706713
-0.1178776983
-0.117865922313
-0.117876037326
-0.117908287716
-0.117924168843
-0.117977981012
-0.117973751535
-0.118076119037
-0.118202013834
-0.119440094733
-0.125914468964
-0.155710119234
-0.221123936685
-0.118843566391
-0.118625783338
-0.118401135299
-0.118211651912
-0.118075975466
-0.117993748596
-0.117953925514
-0.117942872394
-0.117950096076
-0.117963470392
-0.117989384518
-0.117998345243
-0.118043387588
-0.118032085182
-0.118133084151
-0.118281705056
-0.11967111812
-0.126790863918
-0.158948736048
-0.225185702509
-0.118327041304
-0.118249792835
-0.118171244436
-0.118107161889
-0.118063470521
-0.118039638113
-0.118031254877
-0.118033242882
-0.118042067969
-0.118052085469
-0.11807117947
-0.11807358346
-0.118111731483
-0.118094065316
-0.118195781821
-0.118369900721
-0.119923937309
-0.127736439314
-0.162466206865
-0.229612275633
-0.118210732803
-0.118183667532
-0.118156827161
-0.118136113727
-0.118123069417
-0.118117398008
-0.118117379944
-0.11812121979
-0.118127873679
-0.118134146187
-0.11814803578
-0.118145498446
-0.118178829489
-0.11815625346
-0.118261057499
-0.118464923515
-0.120200377569
-0.128764732155
-0.166315816746
-0.234410212717
-0.118224284912
-0.11821463864
-0.118205700292
-0.118199549296
-0.118196252046
-0.118195713835
-0.118197281682
-0.118200372794
-0.118204791752
-0.118208307722
-0.11821868013
-0.118212789116
-0.118243090659
-0.118217099755
-0.118327417186
-0.118566463476
-0.120503840201
-0.129890463915
-0.170545490364
-0.239576696744
-0.118276279706
-0.118272368287
-0.118269365984
-0.118267847981
-0.118267394537
-0.118268002068
-0.118269426954
-0.118271509153
-0.118274318048
-0.118276041719
-0.118284148088
-0.118276090167
-0.118304708983
-0.11827654906
-0.118394780295
-0.118675600296
-0.120840024466
-0.131133371817
-0.175223008117
-0.245111184701
-0.118337960144
-0.118335701889
-0.118334533614
-0.118334351147
-0.118334589338
-0.118335248378
-0.11833625047
-0.118337560968
-0.118339322124
-0.118339932524
-0.118346593459
-0.11833715374
-0.118365032983
-0.118335656848
-0.118464194564
-0.118794623375
-0.121216192091
-0.132514768251
-0.18041132515
-0.25100765816
-0.118401776204
-0.118399771716
-0.118399114437
-0.118399241529
-0.11839957882
-0.118400069699
-0.118400732618
-0.118401539055
-0.118402657196
-0.118402603921
-0.118408354595
-0.118398045272
-0.11842586512
-0.11839603994
-0.118537431404
-0.118926800834
-0.12164109701
-0.134057930987
-0.186177508759
-0.257251537159
-0.118466499691
-0.118464521411
-0.118463937697
-0.118464062558
-0.11846437148
-0.118464703547
-0.118465167393
-0.118465687897
-0.11846645979
-0.118466069077
-0.118471305407
-0.118460507804
-0.11848884579
-0.118459313968
-0.118616513133
-0.119076133165
-0.122125315578
-0.135790177547
-0.192597023172
-0.263839707933
-0.118534023946
-0.118531901791
-0.118531293299
-0.118531383934
-0.118531693664
-0.118531944431
-0.118532337922
-0.11853273539
-0.118533366972
-0.11853286409
-0.118537866307
-0.118526838355
-0.118556171511
-0.118527649704
-0.118704047926
-0.119247327763
-0.12267980107
-0.137736716306
-0.199730696036
-0.270761602317
-0.118608410778
-0.118606172838
-0.118605503382
-0.118605556572
-0.118605879807
-0.118606088646
-0.118606468857
-0.118606818868
-0.118607404831
-0.118606894319
-0.118611806723
-0.118600657154
-0.118631336796
-0.118604517657
-0.118804100594
-0.11944722698
-0.123319839738
-0.139932231615
-0.207660826587
-0.278034860642
-0.118693383577
-0.118691061946
-0.118690303426
-0.118690333211
-0.118690679339
-0.118690881623
-0.11869128175
-0.118691633384
-0.118692226244
-0.118691765807
-0.11869667459
-0.118685434644
-0.118717748075
-0.118693349953
-0.118920656093
-0.11968222412
-0.124057377025
-0.142399046941
-0.21643659447
-0.285681844679
-0.118792117468
-0.11878956684
-0.118788746599
-0.118788803373
-0.118789192544
-0.118789429519
-0.118789877014
-0.118790272152
-0.118790909776
-0.118790543757
-0.118795523113
-0.118784228964
-0.118818541193
-0.118797601285
-0.119058732283
-0.119962947309
-0.124919878945
-0.145202784276
-0.226220420048
-0.293801215549
-0.118907342664
-0.118904577405
-0.118903648098
-0.118903701271
-0.118904084046
-0.118904325702
-0.118904773248
-0.118905175332
-0.118905809534
-0.118905490382
-0.118910517885
-0.118899053485
-0.118935571155
-0.118918965033
-0.119219602568
-0.120289554928
-0.12589576058
-0.148294794662
-0.229066611616
-0.302423080981
-0.119039155578
-0.11903624734
-0.119035243682
-0.119035347938
-0.119035774652
-0.119036085272
-0.119036591471
-0.119037074382
-0.119037781005
-0.119037600602
-0.119042825677
-0.119031386704
-0.119070900083
-0.119060972318
-0.119412478144
-0.120691048175
-0.127076961951
-0.151920403549
-0.231217378955
-0.312047228573
-0.119197256233
-0.119193588411
-0.119192344328
-0.119192399601
-0.119192755435
-0.119193039184
-0.119193487234
-0.119193929312
-0.119194544346
-0.119194286203
-0.119199514015
-0.119187414833
-0.119229563518
-0.11922569178
-0.119628361036
-0.121119098781
-0.128276841498
-0.155554728938
-0.23305195989
-0.32259217997
-0.119321872927
-0.119319832065
-0.119318570883
-0.119318915044
-0.119319487131
-0.119320084011
-0.11932084317
-0.119321743416
-0.119322922923
-0.11932353338
-0.119329874295
-0.119319798389
-0.119367794299
-0.119380946206
-0.119868773546
-0.121696406221
-0.129977397943
-0.160496658071
-0.23645429633
-0.333611064783
-0.119675056699
-0.119666978859
-0.119664628931
-0.119663936946
-0.119663284373
-0.119662609423
-0.11966178304
-0.119660816493
-0.119659652961
-0.119657203567
-0.119660930721
-0.119643843756
-0.119692883356
-0.119702549272
-0.12024563792
-0.122273256775
-0.131239846449
-0.16400675938
-0.237856768144
-0.349658749891
-0.119790552716
-0.119784427396
-0.119782075937
-0.119781462542
-0.11978081971
-0.119780100968
-0.119779101741
-0.119777874483
-0.119776289456
-0.119773453719
-0.119776013378
-0.119760067678
-0.119810612732
-0.119842996114
-0.120483882008
-0.122919494584
-0.133154075364
-0.168998983749
-0.23975043441
-0.351435146636
-0.257876069323
-0.392791956813
-0.265193338876
-0.403946620664
-0.273127007022
-0.4158694667
-0.281779907413
-0.428538181451
-0.291211899741
-0.441914189361
-0.301433953076
-0.455939528745
-0.312397152303
-0.470539009468
-0.323998745944
-0.485638484341
-0.336088454662
-0.501164490934
-0.348472376762
-0.517088615353
-0.361210822878
-0.533403254001
-0.374121549617
-0.550078895084
-0.387092055408
-0.567120967837
-0.400032398333
-0.584564593733
-0.412945113533
-0.602470592499
-0.425812375343
-0.620889698296
-0.438570973905
-0.639885062445
-0.451258519617
-0.659512413265
-0.463753895219
-0.679814629218
-0.476087896188
-0.700845123152
-0.488158662122
-0.72263167217
-0.499964024489
-0.745219566487
-0.511465146845
-0.768634398162
-0.522712889018
-0.792941962437
-0.533700886453
-0.818071626575
-0.544560130546
-0.844303608613
-0.555532211268
-0.870915769204
-0.566359139816
-0.899556288519
-0.579053778186
-0.92592077319
-0.588247175723
-0.960077890351
-0.602241461243
-0.979065899332
-0.625753661973
-1.03742256271
)
;

boundaryField
{
    inletfuel
    {
        type            calculated;
        value           nonuniform 0();
    }
    inletair
    {
        type            calculated;
        value           nonuniform 0();
    }
    outlet
    {
        type            calculated;
        value           uniform 0;
    }
    axis
    {
        type            empty;
    }
    leftside
    {
        type            calculated;
        value           uniform 0;
    }
    burnerwall
    {
        type            calculated;
        value           nonuniform 0();
    }
    front
    {
        type            wedge;
    }
    back
    {
        type            wedge;
    }
    procBoundary1to0
    {
        type            processor;
        value           uniform 0;
    }
}


// ************************************************************************* //
