/*--------------------------------*- C++ -*----------------------------------*\
  =========                 |
  \\      /  F ield         | OpenFOAM: The Open Source CFD Toolbox
   \\    /   O peration     | Website:  https://openfoam.org
    \\  /    A nd           | Version:  7
     \\/     M anipulation  |
\*---------------------------------------------------------------------------*/
FoamFile
{
    version     2.0;
    format      ascii;
    class       volScalarField;
    location    "0.01";
    object      epsilon;
}
// * * * * * * * * * * * * * * * * * * * * * * * * * * * * * * * * * * * * * //

dimensions      [0 2 -3 0 0 0 0];

internalField   nonuniform List<scalar> 
815
(
6930.31303529
7058.20178853
7290.44780823
6236.25377526
6334.62088456
6515.98761102
5266.22793586
5326.50004542
5433.49799103
3677.18757567
3696.84539316
3720.14251288
1852.12111087
1850.26229686
1830.33335111
629.429915405
624.856429574
608.001619716
171.794894052
169.288943483
164.318137422
56.8502826419
56.2119813322
55.0774290293
27.3136643254
27.159220553
26.9060227745
19.4744283062
19.4468040678
19.4132709137
17.7660348976
17.7697737854
17.7851349809
17.7188847371
17.7270366943
17.7455078214
17.9897104831
17.9957631034
18.0078313999
18.226157619
18.2294491682
18.2355101385
18.3789209887
18.3804289409
18.3828809307
18.4718161814
18.4723193807
18.4728050191
18.5319892001
18.531782259
18.5309697575
18.574994312
18.5744526264
18.5729793307
18.6103058413
18.6095753607
18.6076935238
18.6429551976
18.6420265095
18.6397531319
18.672807628
18.6721477294
18.6702272633
18.7043308088
18.703742434
18.7018497327
18.7375719048
18.7370364984
18.7352446894
18.7731018752
18.7726893061
18.7710473218
18.8138139801
18.8130978948
18.8109147567
18.8570833359
18.8562445208
18.8538273987
18.9032259147
18.902288864
18.8997094716
18.9581861331
18.9568964256
18.9539427327
18.9825346577
18.9825523708
18.9812486853
19.1434102284
19.1383062663
19.1324068963
19.1348371283
19.1340136962
19.1313677357
7533.1139662
6710.90303456
5542.4627264
3727.25670167
1790.46046527
581.458496647
156.997711009
53.3841255407
26.512334081
19.3517888779
17.8006897873
17.7687421848
18.0237776272
18.2441447022
18.386989336
18.4744977297
18.5312885975
18.5726269956
18.6069605925
18.6386936837
18.6693910711
18.7010567905
18.7345556956
18.770519301
18.8100443022
18.8528104434
18.8986053739
18.952530431
18.9813261419
19.1289608924
19.1299142324
19.0870211646
18.9573698446
18.7811410351
18.7165270593
18.5013946106
17.7818653653
16.9371388351
7890.46830305
7783.8757872
6831.77642518
5184.62143413
3213.52219885
1387.45113026
324.353414029
72.5874604705
26.8409907575
18.9430116607
18.4779202488
19.0311315472
19.2538578002
19.1013696971
18.9602552385
18.7834845039
18.7176148944
18.493851838
17.7623912714
17.1242603404
7008.45303425
6940.63507798
6108.70672429
4525.28629809
2560.60347594
943.631790565
217.347419866
56.3847964035
24.6266881726
18.9324273789
18.7420922501
19.1699197441
19.276797998
19.0848781797
18.9437573702
18.7733350103
18.7097036967
18.4783742231
17.7387453434
17.3537720109
5684.32623486
5446.31244599
4535.74847393
3026.02046476
1462.93482507
445.826762907
117.113225481
39.395338723
21.9874396585
18.8636487353
18.9513625068
19.2379088001
19.2439233499
19.0322401756
18.9045921809
18.7489129173
18.6911670042
18.4533758713
17.7108053141
17.6365081978
3679.04210883
3257.44996765
2412.938655
1376.48591359
551.631934167
176.947173526
59.9788956985
27.9901724166
20.0682160509
18.8488748427
19.0760312962
19.217339583
19.1524632509
18.9473779921
18.8448900362
18.7112676687
18.6621791858
18.4188636119
17.6801780505
17.9835217671
1677.33410953
1340.9800523
863.533290969
427.847471543
176.744626622
70.9662571277
33.6988111011
21.9805327732
19.1046820247
18.8676878752
19.08331429
19.1063482821
19.0148275309
18.8408543363
18.7714452962
18.6639754188
18.6247706395
18.3764042985
17.6499833679
18.4067547637
515.094554775
376.920001239
233.961743863
125.847390566
63.8587244097
34.7872102505
23.1955346882
19.4610989586
18.7387391243
18.8430356446
18.9779783092
18.9357996039
18.8578396345
18.7285721398
18.6940081972
18.6121552894
18.582291996
18.3288076682
17.6248166605
18.9179320445
138.529879353
106.3041863
73.1681128252
47.0765945858
30.9213312686
22.7500221472
19.4868480788
18.6012026125
18.5970097683
18.741481332
18.807200981
18.7533001117
18.7097658739
18.6259338789
18.6220679554
18.5616347206
18.5388974536
18.2799436826
17.6096582562
19.5277288829
48.8360832743
40.8467994375
32.3699748092
25.4738043678
21.1621513222
19.074757088
18.3882520558
18.3526972119
18.4984703815
18.6006036152
18.6354843694
18.5994838251
18.590885174
18.5440381335
18.5626173574
18.5181887225
18.4979599115
18.2336035794
17.6075315889
20.246756486
25.3805246464
23.3077842081
21.1421910283
19.4427693368
18.4757716071
18.1284841213
18.1428930616
18.282369054
18.4120625467
18.4769096619
18.5067881428
18.4937468508
18.5094850886
18.4879584698
18.5194170455
18.4853485213
18.4622360204
18.1929139787
17.620775218
21.0918729522
19.1374384092
18.7055287816
18.2823095054
18.0077613717
17.9336301781
18.0084463729
18.1443240206
18.2707220286
18.3599793227
18.4035376498
18.4341173544
18.4371994536
18.4643666039
18.4568556543
18.4931871238
18.4643245734
18.4344677661
18.1593912149
17.6551510815
22.0881186897
17.8122535235
17.8065310823
17.8220697925
17.8809512286
17.9820883871
18.1014862785
18.2111867188
18.293784362
18.3503859539
18.3812686659
18.4094032471
18.4190880638
18.4481937764
18.4464004704
18.4824477123
18.4542434529
18.4155467881
18.1337781454
17.7125468089
23.2448946217
17.8131318903
17.8801138132
17.9605640386
18.0504293921
18.1415595536
18.2239448391
18.2900600129
18.3376730284
18.3718481239
18.3932310977
18.4159714719
18.4258109472
18.4521276581
18.4506540793
18.4841389057
18.453162289
18.4047144431
18.1160823671
17.7928768277
24.5717781398
18.0565461036
18.1093445623
18.1684337051
18.2279405049
18.2821434339
18.3274198066
18.3624871775
18.3881877269
18.408036963
18.4220239487
18.4388277616
18.4457885495
18.4680860157
18.4642250021
18.4946015566
18.4588586316
18.4004185125
18.1057616033
17.8963654461
26.0838801361
18.2622421832
18.2920589651
18.3244204244
18.3558306984
18.3832744163
18.4056096851
18.4229693408
18.4363043618
18.4475256292
18.4561173295
18.4680009537
18.4715220435
18.490154092
18.4831435226
18.5106828208
18.4693316405
18.4009911106
18.1020153761
18.0237611177
27.8020055268
18.3956420383
18.4101544532
18.4256551912
18.4405148331
18.4532797795
18.4636690927
18.4719681362
18.4787793304
18.4850647887
18.490069783
18.4984105461
18.4990509474
18.5148694086
18.5049113256
18.5301821937
18.4830252324
18.4049826144
18.1039674254
18.1760003159
29.7492658119
18.4781533655
18.4845594957
18.4913916987
18.497998353
18.5036645669
18.5083741199
18.5123201374
18.5158244813
18.5193718335
18.5221438538
18.5281256654
18.5266855071
18.5405579762
18.5281589373
18.5517754088
18.4988701456
18.4113116356
18.1110296233
18.3553529315
31.9542138824
18.5323359332
18.5348413368
18.5376450899
18.5404814236
18.5429493615
18.5450923709
18.5470073734
18.5488538713
18.5508937181
18.5523262309
18.5568027545
18.5539653116
18.5666017128
18.5522560418
18.5747439981
18.5161627729
18.419150095
18.1227187945
18.5633770731
34.4433193888
18.5724238345
18.5731555627
18.5741844453
18.575376319
18.57645238
18.5774517952
18.5784129931
18.5794130257
18.5806112656
18.5812515278
18.5847834363
18.5810357585
18.5929587019
18.5770414475
18.5987991782
18.5345147947
18.4279792233
18.1389086964
18.8029731697
37.2439718571
18.6061064206
18.606033272
18.6063049233
18.6067976831
18.6072764361
18.6077599629
18.6082606386
18.6088140622
18.6095317398
18.6097050003
18.6126439954
18.6083035054
18.6198759762
18.6026282496
18.6239160921
18.5537489198
18.4374753235
18.1597005193
19.076452421
40.3793541521
18.6373654163
18.6368899252
18.6368445575
18.6370419894
18.6372651507
18.6375085758
18.6377798911
18.6380898072
18.6385281889
18.6384276319
18.6409920729
18.6362558988
18.6477268056
18.6292778768
18.6502381609
18.5738507127
18.4474979406
18.1853655105
19.3857973343
43.8654965137
18.6682079177
18.6676183292
18.6674216178
18.6674783446
18.6675833071
18.6677032036
18.6678533519
18.6680249094
18.6682996126
18.6680425782
18.670372803
18.6653626775
18.6769128981
18.6573141225
18.6780073335
18.5949265617
18.4580874009
18.2165540643
19.7334468043
47.7135702422
18.6999209763
18.6992738421
18.6990052176
18.6990026297
18.6990611307
18.6991211495
18.699212293
18.6993088016
18.6994917886
18.6991525336
18.7013412796
18.6961260843
18.7078858368
18.6871168498
18.7075095129
18.6171285826
18.4693151647
18.2537476831
20.1195927186
51.9221629104
18.7335115138
18.7328465858
18.7325326463
18.7325004292
18.7325393537
18.7325682723
18.732630592
18.732686447
18.7328183612
18.7324401754
18.7345465783
18.7291568745
18.7412204147
18.7192040582
18.7391878798
18.6407668103
18.4814751154
18.2980572538
20.5461965651
56.4843280086
18.7696489404
18.7690063224
18.7686553177
18.7686076612
18.7686394817
18.7686550257
18.7687063798
18.7687445181
18.7688514192
18.7684625357
18.7705284274
18.7649693307
18.7774009656
18.7539987661
18.7733450552
18.6660405828
18.4946258035
18.3494333196
21.0101830157
61.3721048187
18.8088536331
18.8081319125
18.8077622007
18.8077235551
18.8077652824
18.8077891818
18.8078491134
18.8078942377
18.8080026017
18.8076331129
18.8097040403
18.8039904042
18.8168773864
18.7919614445
18.8104708265
18.6933206108
18.5095436871
18.4115557173
21.5223212556
66.5841238231
18.8514231393
18.8506370537
18.8502378502
18.8502000097
18.8502436142
18.8502739097
18.850339058
18.8503919505
18.8505017352
18.8501520166
18.8522409328
18.8463248272
18.8596673132
18.8329616459
18.8500800101
18.7222739867
18.5248711216
18.478600947
22.0629956716
72.0019973654
18.8970894346
18.8962735264
18.8958575662
18.8958392393
18.8959026769
18.895961264
18.8960529319
18.8961413667
18.8962849192
18.8959957343
18.8981704974
18.8921165818
18.906100332
18.8775783075
18.8932427991
18.7539858558
18.5449326366
18.5714085294
22.7253353232
77.8420845071
18.9504233688
18.9492811053
18.9487683349
18.9487214866
18.9487587377
18.9488059947
18.9488808243
18.948957745
18.9490727087
18.948756636
18.9509403545
18.9444140481
18.9587294042
18.9274691824
18.9398872588
18.7886437942
18.5615020686
18.6454394656
23.316802135
83.5824374835
18.9813332672
18.9810791456
18.9806281313
18.9807164406
18.9808767261
18.9810755243
18.9813165581
18.9816199583
18.9820214976
18.9821268634
18.9848298219
18.9790357244
18.9946950188
18.962954608
18.973800359
18.8129628981
18.5880924788
18.8100307256
24.2848048215
89.8430797132
19.1230608855
19.1198250139
19.118815467
19.118376334
19.1179600804
19.1175428156
19.1170450768
19.1164703394
19.1157882522
19.1144651748
19.115974362
19.1066302337
19.1216591307
19.0813968984
19.0878500849
18.9096945562
18.6630391961
18.9286671034
24.8651912903
96.6960940266
19.1271788127
19.1251210391
19.1241796748
19.1237915587
19.1234153956
19.1229950247
19.1224438634
19.1217620626
19.1208981101
19.1193942555
19.1202741587
19.1111159138
19.124499168
19.0832712647
19.0827299747
18.9029821155
18.6832544529
19.1348521286
25.7955643159
101.159705866
35.3760189874
171.428704832
38.3392820302
193.666905226
41.7584744645
219.587200382
45.7440156885
249.745026233
50.4209216808
284.743228509
55.9297399282
325.217129707
62.4205097766
371.820449896
70.0507353269
425.247039214
78.9780337183
486.223826004
89.3493043891
555.648625686
101.477862918
634.575141264
115.593717053
724.08665921
131.992068587
825.50577358
151.018483196
940.449490107
173.157439274
1070.8988165
199.000423479
1219.08712093
229.202490925
1387.65580033
264.695354486
1579.60180216
306.432874597
1798.24151133
355.736543175
2047.43803923
414.130946259
2331.31793032
483.507192176
2654.69548891
566.350097441
3022.73984944
665.785670928
3441.74654124
786.003242868
3916.85919556
932.258700032
4459.10210593
1113.6747434
5064.19455586
1336.0998284
5769.81667349
1630.88989468
6500.04286034
1965.24431578
7481.80979841
2481.5170769
8183.32296327
2716.17057498
9954.98825484
)
;

boundaryField
{
    inletfuel
    {
        type            turbulentMixingLengthDissipationRateInlet;
        mixingLength    0.005;
        phi             phi;
        k               k;
        value           nonuniform 0();
    }
    inletair
    {
        type            turbulentMixingLengthDissipationRateInlet;
        mixingLength    0.005;
        phi             phi;
        k               k;
        value           nonuniform 0();
    }
    outlet
    {
        type            inletOutlet;
        inletValue      uniform 200;
        value           nonuniform List<scalar> 
26
(
19.1348371283
19.1340136962
19.1313677357
19.1299142324
19.1271788127
19.1251210391
19.1241796748
19.1237915587
19.1234153956
19.1229950247
19.1224438634
19.1217620626
19.1208981101
19.1193942555
19.1202741587
19.1111159138
19.124499168
19.0832712647
19.0827299747
18.9029821155
18.6832544529
19.1348521286
25.7955643159
101.159705866
2716.17057498
9954.98825484
)
;
    }
    axis
    {
        type            empty;
    }
    leftside
    {
        type            epsilonWallFunction;
        value           nonuniform List<scalar> 
32
(
171.428704832
193.666905226
219.587200382
249.745026233
284.743228509
325.217129707
371.820449896
425.247039214
486.223826004
555.648625686
634.575141264
724.08665921
825.50577358
940.449490107
1070.8988165
1219.08712093
1387.65580033
1579.60180216
1798.24151133
2047.43803923
2331.31793032
2654.69548891
3022.73984944
3441.74654124
3916.85919556
4459.10210593
5064.19455586
5769.81667349
6500.04286034
7481.80979841
8183.32296327
9954.98825484
)
;
    }
    burnerwall
    {
        type            epsilonWallFunction;
        value           nonuniform 0();
    }
    front
    {
        type            wedge;
    }
    back
    {
        type            wedge;
    }
    procBoundary1to0
    {
        type            processor;
        value           nonuniform List<scalar> 
27
(
7650.90633278
7803.64880768
8072.92553995
8336.00495755
19.0405431329
18.9280860969
18.7580714167
18.6975942034
18.4918616152
17.7869262342
16.771571633
8676.54517433
8320.09168965
6981.75782051
5092.45531973
3184.81372229
1501.27446826
380.884073853
79.7189270376
27.4460859873
18.7232543811
18.1669270076
18.8385295833
19.1808234562
19.1808234562
32.7704667166
152.214041557
)
;
    }
}


// ************************************************************************* //
