/*--------------------------------*- C++ -*----------------------------------*\
  =========                 |
  \\      /  F ield         | OpenFOAM: The Open Source CFD Toolbox
   \\    /   O peration     | Website:  https://openfoam.org
    \\  /    A nd           | Version:  7
     \\/     M anipulation  |
\*---------------------------------------------------------------------------*/
FoamFile
{
    version     2.0;
    format      ascii;
    class       volScalarField;
    location    "0.01";
    object      H2O;
}
// * * * * * * * * * * * * * * * * * * * * * * * * * * * * * * * * * * * * * //

dimensions      [0 0 0 0 0 0 0];

internalField   nonuniform List<scalar> 
815
(
0.240551754266
0.240836010425
0.241429027854
0.242384930417
0.242573780983
0.242968526299
0.244023232742
0.244130281608
0.244351712815
0.243922373468
0.243900765666
0.243833975459
0.233660608886
0.233310771794
0.232465163113
0.185471764243
0.184122546384
0.180849601358
0.0931820195276
0.0918093750499
0.0890775659719
0.0438855874609
0.0432864736174
0.0421218050354
0.0232996230198
0.0230565051076
0.0225785001842
0.0144868161806
0.0143814994388
0.0141731939654
0.0107085974289
0.010664509923
0.0105769488262
0.00914905713513
0.00913118135214
0.00909542571728
0.00852538820998
0.00851834578384
0.00850408664713
0.00828313527741
0.00828042341446
0.00827484408999
0.00819202438222
0.0081909957135
0.00818884993706
0.00815943553577
0.00815904999192
0.00815823452156
0.00814901420897
0.00814886586696
0.00814854815236
0.00814675723263
0.00814669246714
0.00814655221865
0.00814741478087
0.00814737679732
0.00814729383508
0.00814909421716
0.00814906166063
0.00814899102804
0.00815112090721
0.00815109029435
0.00815102264639
0.00815331130749
0.00815328006865
0.00815321061519
0.00815561725979
0.00815558489232
0.00815551289868
0.00815803840193
0.00815800541127
0.00815793179945
0.00816061598493
0.0081605786441
0.00816049720436
0.00816335105013
0.00816330901271
0.00816321880705
0.00816624719993
0.00816620026139
0.00816610090334
0.00816939402987
0.00816933978261
0.00816922761776
0.00817230580595
0.00817225737162
0.00817215181248
0.00817685966033
0.0081767729821
0.00817661855071
0.00818051115727
0.00818043392352
0.00818027696005
0.242194445651
0.243479448895
0.244628709804
0.243691001354
0.23114651205
0.175764094626
0.0852847597498
0.0405216752861
0.0219194023644
0.0138893039319
0.010459148248
0.00904778932568
0.00848519263614
0.00826746894183
0.00818602276909
0.00815716887467
0.00814814354889
0.00814638482768
0.00814720462632
0.00814892097667
0.0081509561596
0.00815314157068
0.00815544029231
0.00815785651429
0.00816041433352
0.00816312720321
0.00816599990839
0.00816911307939
0.00817204207839
0.00817646385031
0.00818011199467
0.0082783752495
0.00819298339455
0.00816987531315
0.00817598463832
0.00833158986185
0.0096063009987
0.0164632339743
0.243759934397
0.246153871202
0.248195440578
0.248931848988
0.246068974789
0.231373023813
0.165020369672
0.0738161833677
0.0356319601904
0.0200045960352
0.0127478190302
0.00964353878409
0.00854981213367
0.00824999838367
0.00818472670079
0.00816629431981
0.00817550641895
0.00834454653914
0.00968421214237
0.0167736051021
0.244527763613
0.246102109232
0.247176873621
0.246351974007
0.239803489963
0.214830873015
0.124558944632
0.0574333754987
0.0294749538717
0.0173465162681
0.0116302365035
0.00925096702037
0.00843859098339
0.00822207554226
0.00817568575515
0.00816184345305
0.00817474043809
0.00836078655535
0.00977394401179
0.0171128386266
0.24516464364
0.245660037547
0.24484805182
0.239973501069
0.222877893938
0.16319544089
0.0827989474877
0.041469287841
0.0232359354227
0.0146124433777
0.0105475226674
0.00888728689243
0.00833914888578
0.0081966788942
0.0081666077693
0.00815702485572
0.00817429968989
0.0083817588348
0.00987826891582
0.0174824633525
0.243228196418
0.24112974519
0.234908193732
0.217725582981
0.168989870839
0.0969347019701
0.0512737330579
0.0288641364492
0.0178688135956
0.0122569062495
0.00963754438234
0.00859257071688
0.00826026765437
0.00817571307032
0.00815830059546
0.00815244571803
0.00817498395749
0.00840883756627
0.00999960785292
0.0178863922731
0.227806303052
0.217838244528
0.195198948269
0.144397265494
0.0905671171424
0.0529693808175
0.0316344651776
0.0201033217865
0.0137818017585
0.0104916893761
0.00897204066984
0.0083842317498
0.00820487047945
0.0081598654498
0.00815126356399
0.00814853021433
0.00817753946845
0.00844277750639
0.0101393358098
0.0183271985752
0.162804141801
0.135300162291
0.102384685573
0.0704711176481
0.0461370314778
0.0301896788759
0.0203855995978
0.0144755280502
0.0110992472321
0.00934395337529
0.00855109633956
0.00825606077064
0.00817013857241
0.00814873977132
0.00814570849449
0.00814559145572
0.00818260510415
0.00848359526651
0.0102976329355
0.018805358183
0.0766123377183
0.0629455543869
0.0483959777963
0.0354925831506
0.0256618705507
0.0187361752299
0.0140951029319
0.0112029610257
0.00954161613524
0.00869019982813
0.00831880055176
0.00818658024565
0.00815032640399
0.00814143379648
0.00814166859634
0.0081439701002
0.00819028818847
0.00853095772351
0.0104731721656
0.0193194451103
0.0368790685297
0.0314261711012
0.0256256685654
0.0203358108672
0.016071716057
0.0129441795933
0.01082332572
0.00949382888464
0.00873844181931
0.00836263041805
0.00820595159538
0.00815293714208
0.00813993891171
0.00813703099158
0.00813908879607
0.00814374642885
0.00820041781105
0.00858451230266
0.0106623500492
0.0198663160131
0.0204329460775
0.0181489576862
0.0156617505583
0.0133795549929
0.0115357794002
0.0101784682267
0.00925643376589
0.00868457006208
0.00836805918458
0.00821679999776
0.00815719596874
0.00813837604348
0.00813508743981
0.00813479775863
0.00813781409254
0.00814482667899
0.00821267800398
0.00864327566442
0.0108612937767
0.0204424371942
0.0132644214361
0.0122885495574
0.0112425850064
0.0102862136075
0.00951402887164
0.00894757387934
0.00856755409714
0.00833747943636
0.00821475497983
0.00815896679416
0.00813869539027
0.00813312677093
0.00813341761538
0.0081341242047
0.00813761815305
0.00814702494253
0.00822683662804
0.00870661969586
0.0110737100065
0.021051118927
0.0102050246392
0.00979975077013
0.00936902263745
0.00897789498261
0.00866456305969
0.00843782727283
0.00828916147769
0.0082021244255
0.00815782959334
0.00813901834352
0.00813317745985
0.00813220248187
0.00813354130123
0.00813450763651
0.008138260225
0.0081501157353
0.00824261496257
0.00877391491153
0.0112983264152
0.021691966047
0.0089464226697
0.00878151588084
0.0086077378761
0.00845164489119
0.00832834899621
0.00824101538519
0.0081855457117
0.0081544386149
0.00813957122861
0.00813392851054
0.00813282158931
0.00813318716269
0.00813464745324
0.00813555679292
0.00813950369383
0.00815389072672
0.00825977276329
0.00884479517865
0.0115344975076
0.0223652884298
0.00844535317213
0.00837950890917
0.00831078059622
0.00824994202065
0.00820282649433
0.0081703853369
0.00815055250164
0.00814002503486
0.00813545839569
0.00813411963865
0.00813435282058
0.00813495491267
0.00813624599944
0.00813698671931
0.00814114946473
0.008158200061
0.00827820595102
0.00891934829603
0.0117826500486
0.0230731533241
0.00825204240943
0.00822627147793
0.00819965216578
0.00817649977096
0.00815899917541
0.00814735366858
0.00814057260423
0.00813725182396
0.00813606491485
0.00813598452187
0.0081364698997
0.00813698159224
0.00813804899866
0.00813861254669
0.00814305857679
0.00816296780945
0.00829797148402
0.00899808464782
0.0120441259574
0.0238186918547
0.00818014684535
0.00817027857776
0.00816020969588
0.00815163368827
0.00814533687101
0.00814132050417
0.00813913554746
0.00813821004124
0.00813803828101
0.00813824415993
0.0081386796271
0.00813903840502
0.00813990802495
0.00814033258742
0.00814515465378
0.00816818806429
0.0083192695981
0.00908183985826
0.0123210733315
0.0246061513448
0.00815496681009
0.0081512776458
0.00814757414431
0.00814450073077
0.00814232393658
0.00814101341568
0.00814037744277
0.00814019409513
0.00814027811595
0.00814049319553
0.00814082365556
0.00814104672162
0.00814176539984
0.00814210540822
0.00814741301754
0.00817391963429
0.0083424594634
0.00917189148478
0.0126169351835
0.0254414028821
0.00814731838128
0.00814596473929
0.00814464263544
0.00814358628917
0.00814287520692
0.00814248630246
0.00814234213657
0.00814236110768
0.00814247802924
0.00814264220836
0.00814287991836
0.00814300109512
0.00814361492375
0.00814392678237
0.00814984397841
0.00818026659525
0.0083679790695
0.00926957851203
0.0129347465076
0.0263296333817
0.00814605554286
0.00814555235105
0.00814509026351
0.00814474697138
0.00814453628096
0.00814444431243
0.00814444101774
0.00814449827203
0.0081445940619
0.00814470749374
0.00814487651991
0.00814492695167
0.00814547462242
0.00814581201163
0.00815248046699
0.00818737571993
0.00839639151052
0.00937659398056
0.0132787772426
0.0272774600412
0.00814704110428
0.00814683080039
0.00814666513422
0.00814656244568
0.00814651327324
0.00814650857112
0.00814653671378
0.0081465888689
0.00814665791556
0.00814673312984
0.0081468544766
0.00814685834932
0.00814737047216
0.00814778445378
0.00815536901387
0.00819542541507
0.00842832673533
0.00949468518917
0.0136529266783
0.0282904154399
0.00814880168733
0.0081486813641
0.00814861057996
0.00814858367186
0.00814858213502
0.00814859832883
0.00814862741504
0.008148667009
0.00814871494696
0.00814876391112
0.00814885304797
0.00814882796975
0.0081493285744
0.0081498698593
0.0081585655478
0.00820462207851
0.00846447937519
0.00962570371576
0.0140613961313
0.0293743853665
0.00815084447888
0.00815074473589
0.00815069946583
0.00815069317878
0.00815070306412
0.00815072099245
0.00815074458883
0.0081507732591
0.00815080651089
0.0081508381146
0.00815090575622
0.00815086425545
0.00815137291814
0.00815209524938
0.00816213696661
0.0082152131458
0.00850566219404
0.00977176676092
0.0145089313725
0.0305354664378
0.00815302529921
0.00815292335776
0.00815288094173
0.00815287799512
0.00815288891213
0.00815290418732
0.00815292244276
0.00815294323019
0.00815296675681
0.00815298710122
0.00815304052317
0.00815299153213
0.00815352536739
0.00815448882191
0.00816615924882
0.00822746631285
0.00855268185452
0.00993481395571
0.0149996383363
0.0317793936239
0.00815531679215
0.00815520607373
0.00815515955518
0.00815515500598
0.00815516451786
0.00815517686481
0.00815519118404
0.0081552066162
0.00815522383003
0.00815523698849
0.0081552811686
0.00815523133589
0.00815580700218
0.00815708277496
0.00817072944768
0.0082417348495
0.00860662032768
0.0101174436693
0.0155388544981
0.0331126659799
0.00815772682782
0.00815760627804
0.00815755373001
0.00815754643714
0.00815755432328
0.00815756438373
0.00815757605558
0.00815758793352
0.00815760108518
0.00815760976272
0.00815764819019
0.0081576027855
0.0081582379619
0.00815991099176
0.00817594796212
0.00825833595835
0.00866829489559
0.0103214215973
0.0161307598032
0.0345427916871
0.00816027293888
0.0081601409145
0.00816008196216
0.00816007209108
0.00816007879558
0.00816008743367
0.00816009755886
0.00816010729474
0.00816011805043
0.00816012430136
0.00816015984915
0.00816012408825
0.00816084039478
0.00816302102316
0.00818198677683
0.00827793193682
0.00873976190057
0.010551543599
0.0167844445643
0.0360786251904
0.00816297146099
0.00816282666552
0.00816276101817
0.008162748797
0.00816275467584
0.00816276255524
0.00816277188399
0.00816278047638
0.0081627899648
0.00816279524427
0.00816283022559
0.00816280889834
0.00816363079914
0.00816644108166
0.00818889444636
0.00830043977119
0.00882010385891
0.010804817561
0.0174893408031
0.0377301781124
0.00816582833851
0.00816566993391
0.00816559753017
0.0081655834439
0.00816558907008
0.00816559702735
0.00816560645632
0.00816561510423
0.00816562472131
0.00816563091736
0.0081656685142
0.00816566949619
0.0081666347953
0.00817027121314
0.00819715569481
0.00832801581535
0.00891639593289
0.011097704542
0.0182612993485
0.039518262438
0.00816891799624
0.00816874052448
0.00816865979784
0.00816864348133
0.00816864867439
0.00816865681462
0.00816866645654
0.00816867544329
0.00816868538255
0.00816869279242
0.00816873430133
0.00816876013044
0.00816989514302
0.00817445539727
0.00820606551356
0.00835652334242
0.00901396858597
0.0113954671939
0.0190491903637
0.0414590487769
0.00817185072505
0.00817166738187
0.00817158055751
0.00817156429913
0.00817157130472
0.0081715824017
0.00817159540652
0.0081716089563
0.00817162465114
0.00817164088781
0.00817169743129
0.008171777737
0.00817318156765
0.00817920354821
0.0082180828213
0.00839837041724
0.00915194295418
0.0117832971411
0.0199705060198
0.0435124882923
0.00817619865693
0.00817596665883
0.00817586393268
0.00817584036546
0.0081758415122
0.00817584742637
0.00817585419541
0.00817586091285
0.0081758682336
0.00817587536169
0.00817592900918
0.00817602065226
0.00817764900332
0.00818472974461
0.00822880414836
0.00842806395409
0.00924285223223
0.012063350037
0.0207810219364
0.0459100061918
0.00817982603639
0.00817956600838
0.0081794491273
0.00817941971681
0.00817941659563
0.00817941829768
0.00817941940428
0.00817941926086
0.00817941766184
0.00817941545075
0.00817946321283
0.00817960456989
0.00818158205622
0.0081906287928
0.00824379003597
0.0084774904998
0.00939674802001
0.0124449009332
0.0215363628673
0.047758566926
0.0564388153171
0.0793186394128
0.0579223408341
0.081267615088
0.0594965649597
0.0833108456384
0.06117298217
0.0854532631279
0.0629627213709
0.0877008023026
0.064874450617
0.0900588800666
0.0669129618417
0.0925320594332
0.0690795480052
0.0951244097224
0.0713712983514
0.0978396417868
0.0737810278579
0.100682180981
0.0763157328831
0.10365890069
0.0789757230538
0.106777804425
0.0817632245906
0.110047552583
0.0846813415519
0.113477814282
0.0877392202188
0.117079864638
0.0909481986529
0.12086612353
0.0943179007128
0.124849409004
0.0978650323623
0.12904314869
0.101599378817
0.133460140568
0.105536374198
0.138113037742
0.109688031123
0.143013740774
0.114065550785
0.148173452635
0.118682960402
0.153602749977
0.123552610541
0.15931269289
0.128686831423
0.165311110114
0.13409937466
0.171612771504
0.139815152371
0.178214675504
0.145812488962
0.185152566018
0.15226786995
0.192376153839
0.158739501965
0.200017258208
0.165697538763
0.207679286915
0.165507604458
0.213043056212
)
;

boundaryField
{
    inletfuel
    {
        type            fixedValue;
        value           nonuniform 0();
    }
    inletair
    {
        type            fixedValue;
        value           nonuniform 0();
    }
    outlet
    {
        type            zeroGradient;
    }
    axis
    {
        type            empty;
    }
    leftside
    {
        type            zeroGradient;
    }
    burnerwall
    {
        type            zeroGradient;
    }
    front
    {
        type            wedge;
    }
    back
    {
        type            wedge;
    }
    procBoundary1to0
    {
        type            processor;
        value           nonuniform List<scalar> 
27
(
0.238479239259
0.238876336447
0.239704226754
0.240771753004
0.00831029074503
0.00820435582794
0.00817663417288
0.00818016612412
0.00832523443966
0.00954328663077
0.0161864894362
0.242951925009
0.246308879537
0.249188083211
0.250720151183
0.249140543579
0.238809836826
0.19575432795
0.0872518074137
0.0407451443856
0.0222764987326
0.0137969763582
0.0100355912269
0.00866893716763
0.00866893716763
0.0550550708244
0.0774831378127
)
;
    }
}


// ************************************************************************* //
