/*--------------------------------*- C++ -*----------------------------------*\
  =========                 |
  \\      /  F ield         | OpenFOAM: The Open Source CFD Toolbox
   \\    /   O peration     | Website:  https://openfoam.org
    \\  /    A nd           | Version:  7
     \\/     M anipulation  |
\*---------------------------------------------------------------------------*/
FoamFile
{
    version     2.0;
    format      ascii;
    class       volScalarField;
    location    "0.01";
    object      HE;
}
// * * * * * * * * * * * * * * * * * * * * * * * * * * * * * * * * * * * * * //

dimensions      [0 0 0 0 0 0 0];

internalField   nonuniform List<scalar> 
815
(
0.0228054554754
0.022669682085
0.0223755839304
0.0208251888212
0.0206897138976
0.0203960826616
0.0176593446356
0.0175262716718
0.0172353679657
0.0130094227344
0.012887430283
0.0126146653547
0.00761789156808
0.00752601065928
0.00731154127986
0.00332406831148
0.00327236507537
0.00314875851121
0.00114673340234
0.00112206284079
0.00107345829469
0.000388856667751
0.000380305327343
0.000363888346534
0.000133597109716
0.00013069028139
0.000125074923796
4.56741962502e-05
4.46806284503e-05
4.27446989104e-05
1.53073887636e-05
1.49738772903e-05
1.43189013515e-05
5.03852993615e-06
4.92927263051e-06
4.71279042267e-06
1.65009653799e-06
1.6148364973e-06
1.54407441139e-06
5.44460314973e-07
5.33045280271e-07
5.09759846744e-07
1.8176911637e-07
1.78001796963e-07
1.70214046284e-07
6.1093775842e-08
5.98306866126e-08
5.71916991408e-08
2.04839587923e-08
2.00572517408e-08
1.91597447683e-08
6.79062532794e-09
6.64651175165e-09
6.34326716023e-09
2.21012374116e-09
2.16211630625e-09
2.06128310681e-09
7.03131714225e-10
6.87472203512e-10
6.54669707766e-10
2.18197628241e-10
2.13206452852e-10
2.02795518602e-10
6.59459208826e-11
6.44098295516e-11
6.11989547689e-11
1.9417937546e-11
1.89587474572e-11
1.79959305816e-11
5.57337606217e-12
5.44008873624e-12
5.15938900598e-12
1.56053959276e-12
1.52293275997e-12
1.44330242013e-12
4.26960347305e-13
4.16551434963e-13
3.94484200893e-13
1.14242765987e-13
1.11421621998e-13
1.05443271896e-13
2.99244969811e-14
2.9174900006e-14
2.75900111058e-14
7.68337776958e-15
7.48716067389e-15
7.07579577628e-15
1.93027775743e-15
1.88116181599e-15
1.77707246951e-15
4.77842919132e-16
4.65027977977e-16
4.38966121527e-16
0.0219699422699
0.0199912350228
0.0168332819237
0.0122360006651
0.00701307274929
0.00297652006236
0.00100796637207
0.000341804862216
0.000117510341758
4.0149444263e-05
1.34470578381e-05
4.42658988379e-06
1.45093646587e-06
4.79153782632e-07
1.59981789384e-07
5.37248484143e-08
1.79808030167e-08
5.94492319531e-09
1.92888307843e-09
6.11636555335e-10
1.89154646738e-10
5.70008147363e-11
1.67395756778e-11
4.79364091845e-12
1.33964351563e-12
3.65767176295e-13
9.7666478724e-14
2.55289170471e-14
6.54079687727e-15
1.64150855426e-15
4.05117276248e-16
1.6437680912e-07
1.85121270413e-08
1.31492987053e-09
5.10399937465e-11
1.02008642376e-12
1.40208603511e-14
1.53492855377e-16
0.0210715417825
0.0192331727958
0.0167223378663
0.0135969474608
0.00995686090553
0.00599118342786
0.00235833283167
0.00069647601206
0.000196502460485
5.54509777574e-05
1.52048366799e-05
3.76424389003e-06
7.64732917957e-07
1.17021041694e-07
1.24645847236e-08
8.46653434301e-10
3.19339427584e-11
6.01131110336e-13
7.77818455556e-15
8.01230297834e-17
0.0190946234819
0.0172736971817
0.0147929290951
0.0117010991419
0.00810630336116
0.00435109698145
0.00157396962336
0.000483133864012
0.000144008438109
4.19679942854e-05
1.15188542202e-05
2.76596118145e-06
5.34621029464e-07
7.73117720854e-08
7.80312390189e-09
5.06118809854e-10
1.84262428108e-11
3.3022547597e-13
4.07208225525e-15
3.99666682108e-17
0.015940984619
0.014132731703
0.0116837920442
0.00868619966152
0.00538820594966
0.00244145169739
0.000875076079381
0.000289800154724
9.25538870114e-05
2.80673072705e-05
7.74142047351e-06
1.81232403135e-06
3.35510574752e-07
4.6135815829e-08
4.43042432056e-09
2.74451802969e-10
9.58493836294e-12
1.66059473236e-13
1.98038125664e-15
1.88440462729e-17
0.011394961623
0.00970845676096
0.00749643325815
0.00498266826315
0.00264064609629
0.00112813451599
0.000431038380338
0.000155437282059
5.29256757738e-05
1.66239576827e-05
4.58739253713e-06
1.04691312787e-06
1.86200322715e-07
2.44639622861e-08
2.24338310983e-09
1.32786855306e-10
4.42011122817e-12
7.5522763204e-14
8.85441902972e-16
8.33467971962e-18
0.00635434765144
0.0050845477766
0.00356392073758
0.00208490906006
0.00104527346129
0.000469646555794
0.000195497581987
7.59120490556e-05
2.71841849744e-05
8.71307645072e-06
2.38557222972e-06
5.29769226323e-07
9.07440998184e-08
1.1439914086e-08
1.00483599964e-09
5.6825554456e-11
1.79063996674e-12
3.09262913723e-14
3.62856866535e-16
3.4509043027e-18
0.00259325706639
0.00193017843206
0.00127362415465
0.000743224317135
0.000390952505548
0.000188513318652
8.38929563784e-05
3.42881793477e-05
1.2637021161e-05
4.06436655801e-06
1.09436866478e-06
2.35901479857e-07
3.89745444069e-08
4.72773892122e-09
3.98368936771e-10
2.14733248088e-11
6.48397627124e-13
1.14688557365e-14
1.36994444908e-16
1.34299287022e-18
0.000862978273659
0.000646560563988
0.000434896037123
0.000263144335022
0.000145293691136
7.35722232623e-05
3.41293688047e-05
1.43286377153e-05
5.32317214081e-06
1.69619382034e-06
4.46527015422e-07
9.33429864815e-08
1.48970475075e-08
1.74152652708e-09
1.40786501677e-10
7.19492408822e-12
2.1685072014e-13
3.91789388345e-15
4.82358685226e-17
4.95587290525e-19
0.000292550799473
0.000221899928138
0.000152084890073
9.43609972947e-05
5.35474930953e-05
2.78179950727e-05
1.31321912656e-05
5.54653131553e-06
2.047290704e-06
6.40909561669e-07
1.64367439054e-07
3.33106674639e-08
5.13959759687e-09
5.79231827702e-10
4.47919816975e-11
2.23457591996e-12
6.78129724994e-14
1.25212792665e-15
1.6073380045e-17
1.75243991968e-19
0.000100831260674
7.69447887951e-05
5.32066944539e-05
3.34002606953e-05
1.91697660829e-05
1.00414639915e-05
4.75046417697e-06
1.99498354661e-06
7.25934550559e-07
2.22301434489e-07
5.54494912563e-08
1.0894102014e-08
1.62543291616e-09
1.76096307443e-10
1.3311433535e-11
6.57664541723e-13
2.00598459351e-14
3.80285111321e-16
5.14308436658e-18
5.99666778029e-20
3.45307959562e-05
2.637217043e-05
1.8267588869e-05
1.14961958821e-05
6.60824415245e-06
3.45763937188e-06
1.62624068e-06
6.74732544776e-07
2.4093341548e-07
7.19794108542e-08
1.74422708725e-08
3.31706972642e-09
4.80652149599e-10
5.09854781907e-11
3.7899701969e-12
1.85426084512e-13
5.68523196097e-15
1.1147031027e-16
1.60014055439e-18
2.00075125241e-20
1.15901504302e-05
8.83760897535e-06
6.11296457559e-06
3.84271361382e-06
2.20353579712e-06
1.14649713693e-06
5.33579929931e-07
2.17761380643e-07
7.60287260053e-08
2.21010521447e-08
5.21617697821e-09
9.67419143758e-10
1.37175920042e-10
1.42633388633e-11
1.04339773753e-12
5.05924897466e-14
1.56540239433e-15
3.19757757871e-17
4.88746132063e-19
6.53776307922e-21
3.82430411719e-06
2.91130389348e-06
2.01018337601e-06
1.26070074651e-06
7.19312617598e-07
3.7067985131e-07
1.70033804182e-07
6.80638163579e-08
2.32179727713e-08
6.58736435813e-09
1.5155023256e-09
2.74419315356e-10
3.80978511575e-11
3.88804822315e-12
2.80239256011e-13
1.35088912681e-14
4.24282576956e-16
9.07098889607e-18
1.47365420867e-19
2.09634285289e-21
1.25655378022e-06
9.55093099038e-07
6.5780672249e-07
4.10783922841e-07
2.32482073313e-07
1.1828839651e-07
5.33051683605e-08
2.08715100174e-08
6.9463908152e-09
1.92154599364e-09
4.31039855125e-10
7.62774493957e-11
1.0374938251e-11
1.04098466069e-12
7.41097218272e-14
3.56756050921e-15
1.14340628682e-16
2.56017016327e-18
4.39441387982e-20
6.59783756805e-22
4.15718499768e-07
3.15208713207e-07
2.16074471602e-07
1.3389286029e-07
7.48482092345e-08
3.74391100258e-08
1.6515731739e-08
6.31115391891e-09
2.04703773531e-09
5.51785022591e-10
1.20750424449e-10
2.09057758584e-11
2.78941237926e-12
2.75755493811e-13
1.94515117418e-14
9.39213158841e-16
3.08103702891e-17
7.20084325305e-19
1.295161109e-20
2.03710617842e-22
1.38869354716e-07
1.04821630577e-07
7.12805515508e-08
4.36475030232e-08
2.40004617751e-08
1.17596943134e-08
5.06554591335e-09
1.8865844422e-09
5.96072161572e-10
1.56598975769e-10
3.34647543901e-11
5.67626059493e-12
7.44277605167e-13
7.26598046557e-14
5.09387187421e-15
2.47483718284e-16
8.31106720434e-18
2.01541581216e-19
3.76595880019e-21
6.16608887296e-23
4.65842496025e-08
3.49289724025e-08
2.34921804775e-08
1.41673915912e-08
7.64012383127e-09
3.65898940637e-09
1.53714332329e-09
5.57765812009e-10
1.71721508924e-10
4.40123141308e-11
9.19759074238e-12
1.53091978815e-12
1.97653023154e-13
1.90956077724e-14
1.33365452233e-15
6.52918732406e-17
2.2397447257e-18
5.59655317706e-20
1.078190371e-21
1.82898859758e-23
1.55538083823e-08
1.15668633449e-08
7.67979264251e-09
4.55254011787e-09
2.40422944148e-09
1.12452634438e-09
4.606833579e-10
1.62950283653e-10
4.89355414848e-11
1.22538807351e-11
2.50855835054e-12
4.10451649579e-13
5.22763038855e-14
5.00669262295e-15
3.48855405389e-16
1.72080714977e-17
6.00870348226e-19
1.5370270336e-20
3.03462526902e-22
5.31603856487e-24
5.12581538788e-09
3.77789267034e-09
2.47427382709e-09
1.44081782454e-09
7.44960492777e-10
3.4037700275e-10
1.36076456809e-10
4.69723718435e-11
1.37800260359e-11
3.37721707511e-12
6.78507900305e-13
1.09317058377e-13
1.3756828846e-14
1.3076906991e-15
9.09565031034e-17
4.51532355023e-18
1.59876055123e-19
4.16398229276e-21
8.38837214797e-23
1.51452795704e-24
1.6570369553e-09
1.21026348318e-09
7.8192825191e-10
4.47397078435e-10
2.26599141592e-10
1.01228294597e-10
3.95397720852e-11
1.33394624958e-11
3.82927289182e-12
9.20183069464e-13
1.81754661588e-13
2.88787348144e-14
3.59537504893e-15
3.3946131377e-16
2.35681689086e-17
1.17553306445e-18
4.20589346737e-20
1.11075571767e-21
2.27638172867e-23
4.23183993292e-25
5.23453202303e-10
3.789783709e-10
2.41670884261e-10
1.35971159227e-10
6.75277161361e-11
2.95306196339e-11
1.12857319e-11
3.72709298938e-12
1.04872780335e-12
2.4752980136e-13
4.81454995509e-14
7.55398141148e-15
9.31290818745e-16
8.7367789849e-17
6.05213035618e-18
3.02782325974e-19
1.09154601486e-20
2.91448300893e-22
6.06508357411e-24
1.16061233948e-25
1.61273130955e-10
1.15797772062e-10
7.29396326758e-11
4.03939375148e-11
1.96938169791e-11
8.44210821642e-12
3.16132100603e-12
1.02360050503e-12
2.82777705521e-13
6.56613039609e-14
1.25941236091e-14
1.95336924118e-15
2.38632808782e-16
2.22470798337e-17
1.53675292855e-18
7.69980769582e-20
2.7908600459e-21
7.51896381112e-23
1.58719779286e-24
3.12714254898e-26
4.84264693354e-11
3.45047828798e-11
2.14863204306e-11
1.17249765013e-11
5.61862037983e-12
2.36409619209e-12
8.68676112492e-13
2.76176583855e-13
7.50190250665e-14
1.71613145674e-14
3.24984567733e-15
4.98717821939e-16
6.04013082321e-17
5.59586314024e-18
3.85236947964e-19
1.93075026455e-20
7.02516944412e-22
1.90734582242e-23
4.08227875597e-25
8.28572399502e-27
1.41744911664e-11
1.00281698496e-11
6.17856994762e-12
3.32578327655e-12
1.56828454071e-12
6.48529812438e-13
2.34137828996e-13
7.3191254649e-14
1.95746708305e-14
4.41698242726e-15
8.26671416428e-16
1.2560483618e-16
1.5086714678e-17
1.38889492016e-18
9.52462016039e-20
4.77050961995e-21
1.74064339596e-22
4.75904119437e-24
1.03272268977e-25
2.16105779721e-27
4.04676247155e-12
2.84437028829e-12
1.73532998138e-12
9.22305643841e-13
4.28447067232e-13
1.7433553885e-13
6.19160724403e-14
1.90539067774e-14
5.02326984152e-15
1.11927420994e-15
2.07210207484e-16
3.11899601724e-17
3.71634621954e-18
3.3995447881e-19
2.32143060506e-20
1.16121075906e-21
4.24596203513e-23
1.16858508303e-24
2.57173732423e-26
5.55350237427e-28
1.12783761469e-12
7.87989274092e-13
4.76399453418e-13
2.50235224228e-13
1.14632223905e-13
4.59462529647e-14
1.6070336009e-14
4.87392729817e-15
1.26796469303e-15
2.79241823762e-16
5.11724654558e-17
7.63435311764e-18
9.02556937808e-19
8.20317263863e-20
5.57625953684e-21
2.78441874466e-22
1.01989385004e-23
2.82551253381e-25
6.30973404487e-27
1.40747337911e-28
3.0715710212e-13
2.13418310998e-13
1.27949114316e-13
6.64753492109e-14
3.00583814526e-14
1.18793847009e-14
4.09607451716e-15
1.22554808406e-15
3.14917395134e-16
6.86043422681e-17
1.24527345138e-17
1.84209955544e-18
2.16126326736e-19
1.95177209101e-20
1.32059426288e-21
6.5812464033e-23
2.41431251951e-24
6.73261346505e-26
1.52636413752e-27
3.52050061451e-29
8.1823799024e-14
5.65626656783e-14
3.36483239199e-14
1.73045887648e-14
7.73016832302e-15
3.01504050295e-15
1.02581091247e-15
3.03059122764e-16
7.69831720476e-17
1.66011509636e-17
2.98629859871e-18
4.38152114568e-19
5.10217755456e-20
4.57769772309e-21
3.08214287071e-22
1.53260364148e-23
5.63150275984e-25
1.58153167546e-26
3.64301282035e-28
8.699209625e-30
2.13416483563e-14
1.46834747992e-14
8.6725583424e-15
4.41802488002e-15
1.9513429098e-15
7.51766881943e-16
2.52603462878e-16
7.37510120528e-17
1.85348885893e-17
3.95934283291e-18
7.06226239295e-19
1.02816627186e-19
1.18871863873e-20
1.05994700591e-21
7.10412756332e-23
3.52546497634e-24
1.29715611322e-25
3.66679623313e-27
8.58008342175e-29
2.12361411352e-30
5.45591972968e-15
3.73707112793e-15
2.19253634067e-15
1.10702430005e-15
4.83769654662e-16
1.84218187297e-16
6.1175981037e-17
1.76628577074e-17
4.39426674317e-18
9.3021987219e-19
1.64557660164e-19
2.3770813106e-20
2.72784859519e-21
2.41594618046e-22
1.61059813878e-23
7.97246119909e-25
2.94147529567e-26
8.38817315183e-28
1.99759675425e-29
5.13116190908e-31
1.36782703463e-15
9.33266628542e-16
5.44291814039e-16
2.72589427201e-16
1.17968401306e-16
4.44431959321e-17
1.46007083362e-17
4.17275837532e-18
1.02865095549e-18
2.15984306915e-19
3.79260158601e-20
5.44048982578e-21
6.20262488155e-22
5.46242963641e-23
3.62634360381e-24
1.79161785717e-25
6.61687643451e-27
1.89727220289e-28
4.58938301682e-30
1.22568347696e-31
3.36626141672e-16
2.28751559118e-16
1.32636566329e-16
6.59051256526e-17
2.82553377602e-17
1.05353444224e-17
3.4253163742e-18
9.69304433782e-19
2.36821168598e-19
4.93235664417e-20
8.59582481798e-21
1.22406409114e-21
1.38567359132e-22
1.21242557841e-23
8.00841298111e-25
3.94563139175e-26
1.46005543013e-27
4.23595942678e-29
1.04520970962e-30
2.90318260323e-32
8.39500253931e-18
1.13273215549e-18
4.26028700249e-18
5.68302128536e-19
2.08421919343e-18
2.76090026441e-19
9.77508377884e-19
1.29554227736e-19
4.37821235549e-19
5.86131744144e-20
1.87125592489e-19
2.55574240765e-20
7.65198457938e-20
1.07534218334e-20
3.008780623e-20
4.37581092975e-21
1.14398292025e-20
1.72622665924e-21
4.22640006729e-21
6.61499777364e-22
1.52235475425e-21
2.4658830206e-22
5.35578766545e-22
8.94753049931e-23
1.84170646653e-22
3.16150232475e-23
6.19180007956e-23
1.08820360446e-23
2.03541422404e-23
3.65079362763e-24
6.54408422457e-24
1.19463190651e-24
2.05894485173e-24
3.81632123841e-25
6.34350599067e-25
1.19151914839e-25
1.91574691393e-25
3.64006004228e-26
5.67647809974e-26
1.08948384996e-26
1.6520759925e-26
3.19868213238e-27
4.72755327974e-27
9.22320067851e-28
1.33139351278e-27
2.61481211594e-28
3.69331829024e-28
7.29588235679e-29
1.00987377618e-28
2.00518994957e-29
2.72313069691e-29
5.43204408342e-30
7.24224660924e-30
1.45106843583e-30
1.90019321879e-30
3.82254554876e-31
4.90867560167e-31
9.92955364356e-32
1.25315511885e-31
2.54105705346e-32
3.14536425334e-32
6.43231446679e-33
7.98481564698e-33
1.68237890238e-33
)
;

boundaryField
{
    inletfuel
    {
        type            fixedValue;
        value           nonuniform 0();
    }
    inletair
    {
        type            fixedValue;
        value           nonuniform 0();
    }
    outlet
    {
        type            zeroGradient;
    }
    axis
    {
        type            empty;
    }
    leftside
    {
        type            zeroGradient;
    }
    burnerwall
    {
        type            zeroGradient;
    }
    front
    {
        type            wedge;
    }
    back
    {
        type            wedge;
    }
    procBoundary1to0
    {
        type            processor;
        value           nonuniform List<scalar> 
27
(
0.0240839745589
0.0239469921521
0.0236496748262
0.0232382065889
2.21246553577e-07
2.6342569657e-08
1.95008597615e-09
7.74087044697e-11
1.65616169585e-12
2.44167052597e-14
2.85897603244e-16
0.0223244117178
0.0204254528862
0.0178121601662
0.0145716167479
0.0108605460342
0.00687004578411
0.00298067994401
0.000872124272545
0.000237244243692
6.57342414065e-05
1.82352260594e-05
4.70009800496e-06
1.01241768612e-06
1.01241768612e-06
1.61320749091e-17
2.20491443387e-18
)
;
    }
}


// ************************************************************************* //
