/*--------------------------------*- C++ -*----------------------------------*\
  =========                 |
  \\      /  F ield         | OpenFOAM: The Open Source CFD Toolbox
   \\    /   O peration     | Website:  https://openfoam.org
    \\  /    A nd           | Version:  7
     \\/     M anipulation  |
\*---------------------------------------------------------------------------*/
FoamFile
{
    version     2.0;
    format      ascii;
    class       volScalarField;
    location    "0.01";
    object      k;
}
// * * * * * * * * * * * * * * * * * * * * * * * * * * * * * * * * * * * * * //

dimensions      [0 2 -2 0 0 0 0];

internalField   nonuniform List<scalar> 
815
(
14.3441164027
14.512778804
14.8230476022
13.8567480853
13.9901508767
14.2366475214
12.4553898982
12.5291549364
12.6550485819
9.27088978166
9.27760795496
9.2616867435
5.06004861576
5.03603496389
4.9547349798
1.92888699644
1.91012221957
1.85451570918
0.644797852449
0.636155272633
0.619513914552
0.314928043938
0.313056840769
0.310005897369
0.246830788297
0.246749979582
0.246930612332
0.243839012558
0.24413295931
0.244879736168
0.254084820331
0.25435707883
0.254964791449
0.263699090289
0.263875777474
0.264248184987
0.270132850782
0.270230860626
0.270427878319
0.273894967436
0.273942503143
0.274034360511
0.275965827556
0.275986724371
0.276024503482
0.277118036537
0.277125487
0.277136484785
0.277819884706
0.27781902539
0.277814399997
0.278301765508
0.278297180202
0.278285116632
0.278687927874
0.278681366139
0.278665075578
0.279040360681
0.279031869482
0.279011815618
0.279362484747
0.27935663519
0.279340195519
0.279701396017
0.279696181123
0.279680034928
0.28005821751
0.280053500375
0.280038388807
0.280439268172
0.280435736326
0.280422111254
0.280873688049
0.280867193124
0.280848351471
0.281335009016
0.281327450602
0.281306587526
0.28182657723
0.28181822579
0.281796065879
0.282409606789
0.282398089243
0.282372509126
0.282678245642
0.28267941458
0.282670400603
0.284351924021
0.284305281488
0.284250938971
0.284284700003
0.284279331346
0.284258158302
15.1540198168
14.5007517975
12.7710978702
9.19983425567
4.82134227331
1.77167387914
0.596075924262
0.305760523544
0.247198803994
0.245910311677
0.255787240343
0.264746545297
0.270692090948
0.274161968381
0.276081951097
0.277159997971
0.277820380988
0.278283016972
0.278658752196
0.27900218971
0.279332904332
0.279673222473
0.280032643454
0.280417967535
0.280840794946
0.281297673673
0.281786412215
0.282359890772
0.282672873145
0.284217620827
0.284245840519
0.283838574839
0.282482362439
0.280589741698
0.27981179129
0.276832567922
0.264434488405
0.233372820035
15.6621279343
15.6246634573
14.3686352847
11.8018117857
8.17142327875
4.12085638865
1.20582722567
0.390998805496
0.2542762278
0.250862009156
0.268119783496
0.280810517059
0.285141283914
0.283963160733
0.282480441991
0.280591278445
0.279799607759
0.276674859609
0.26388794998
0.234033985953
14.9012007105
14.7719913567
13.4237675573
10.6334783037
6.71592336655
2.89964503125
0.844428487204
0.33694633164
0.253368326897
0.256619355657
0.272727110236
0.282797048075
0.285465137153
0.283763749355
0.282274904159
0.280460853266
0.279689506784
0.276415555553
0.26324594926
0.234960604737
12.8800017298
12.3093400982
10.5498798197
7.54957758255
4.09399359066
1.48836008477
0.519976565803
0.287680797995
0.253587806637
0.263173470779
0.277042115233
0.284066045851
0.28519950032
0.283185689021
0.281833389413
0.28018106034
0.279464308338
0.276033919847
0.262497604161
0.236215058966
8.96132058495
7.96073377448
6.11557125416
3.7710430224
1.72642091018
0.686882539297
0.343356620497
0.262296671354
0.257490434028
0.269732971496
0.280289906004
0.284328527774
0.284300077941
0.282270123237
0.281179707392
0.279763920262
0.2791252276
0.275526587808
0.261650955859
0.237858134045
4.4845592992
3.63187520529
2.45960283113
1.3489490125
0.667913753144
0.369831678267
0.273641266802
0.256504494522
0.264133192019
0.274996464661
0.281831969916
0.283504892278
0.282889857724
0.281128593053
0.280386024083
0.279247629617
0.278692223108
0.274908270762
0.26073165562
0.239953080438
1.57397125292
1.19201333755
0.804557841168
0.510635820871
0.344366891462
0.274278695299
0.256568561563
0.260729443204
0.270343007
0.277944587737
0.281646573231
0.281913406913
0.281253134623
0.279929324828
0.279555042962
0.278685991648
0.278198740944
0.274208988682
0.259782966506
0.242558227861
0.539657228824
0.448290827602
0.360305384163
0.296806433901
0.26410717612
0.254896000014
0.258760684662
0.26687288525
0.27420574845
0.278625786243
0.28034161353
0.280090743053
0.279696193467
0.278835525165
0.278786428917
0.27813934531
0.27768851684
0.273470581316
0.258855866068
0.245721298325
0.294742756805
0.277106556672
0.261781389442
0.253365389077
0.252884670165
0.257790995469
0.264772630892
0.271192923444
0.275704449113
0.277973530818
0.278758631058
0.278509854579
0.278441545384
0.277964636139
0.27815327337
0.277667957668
0.277197913592
0.27273349016
0.257988322515
0.249493436759
0.247270061732
0.247220519303
0.248958346073
0.252772776211
0.258157920352
0.264048042379
0.269374517418
0.273379668627
0.275878841037
0.27702141026
0.277493793829
0.277409264644
0.277582265942
0.277369937976
0.277694480105
0.277308774543
0.276756979407
0.272033144064
0.257211627081
0.253981464918
0.247996185237
0.251255137451
0.255458418106
0.260137082545
0.26477015889
0.268894311413
0.272157732093
0.274402724867
0.275755931892
0.276384224964
0.276763205194
0.276819099079
0.27710801133
0.27704183588
0.277416867821
0.277074394266
0.276394738626
0.271386280288
0.256560368221
0.259295879936
0.257514571514
0.260294434922
0.263516422231
0.266754743912
0.269677974873
0.272084580814
0.2738785179
0.275071409389
0.275814576342
0.27620175988
0.276518785326
0.276633329147
0.276941399305
0.276933828929
0.277304058211
0.276955429469
0.276120708032
0.270801035235
0.256048304206
0.265438390786
0.265800475884
0.267529053851
0.26944728703
0.271294956076
0.272892103484
0.274156279882
0.275074966238
0.27569009807
0.276102247666
0.276350881379
0.276598612849
0.276710393513
0.276988362828
0.276982474466
0.277323120647
0.276931088793
0.275926758543
0.270276478256
0.255666128945
0.27239707155
0.271250523556
0.272175402375
0.27317542145
0.274116018465
0.274908700107
0.275524142189
0.27597174038
0.276282894626
0.27651099643
0.276668014367
0.276848682933
0.27692801129
0.277162823031
0.277130202119
0.277434976791
0.276977505631
0.275795828099
0.26980392261
0.255402593442
0.28018165688
0.274431050717
0.274879706384
0.275356319959
0.275798762859
0.276166582827
0.276451093619
0.276661903727
0.276817113598
0.276942649924
0.2770377423
0.277164677415
0.277206523454
0.277401840973
0.277334634277
0.277606032511
0.277073070831
0.275709031959
0.269370150266
0.255247205627
0.288825328572
0.276202591685
0.276405211345
0.276618106949
0.276814925172
0.27697775657
0.277104930017
0.277202537599
0.277279897343
0.277349196711
0.277404440671
0.277493085111
0.277503758714
0.277668606362
0.27756913143
0.277812847759
0.277200818397
0.275649264601
0.268959700627
0.255187149556
0.298351871181
0.277209969232
0.277295857348
0.277385995347
0.277470121221
0.277540078585
0.277596147462
0.277641547295
0.277680753759
0.277719572978
0.277750343221
0.277813564043
0.277801747562
0.277945373179
0.277819133353
0.278041295292
0.277348830918
0.275602642879
0.268557983375
0.25521501196
0.308788481786
0.277836243647
0.277869312563
0.277905353297
0.2779403354
0.277970040117
0.277995006734
0.278016704114
0.278037189834
0.278059436578
0.27807559583
0.278122592272
0.278095658289
0.278225654371
0.278077977067
0.278283668941
0.27750895776
0.275557580812
0.268151032231
0.25531809288
0.320128156317
0.278283366598
0.278293373683
0.278306379296
0.278320584607
0.278333245388
0.2783446902
0.278355479536
0.27836653969
0.278379593075
0.278387114126
0.278423918297
0.278387123058
0.278509088305
0.278343981781
0.278536772965
0.277676199346
0.275505060347
0.267726628515
0.255488686782
0.33232767022
0.278651534536
0.278651447171
0.278654853382
0.278660428634
0.278665929285
0.278671396966
0.278676997371
0.278683126419
0.278690944122
0.278693362445
0.278723761698
0.278680538672
0.2787983601
0.278618350664
0.278800141403
0.277847591152
0.275437644912
0.267274438327
0.255715943857
0.345302797652
0.278989907908
0.278984978548
0.278984408866
0.278986399532
0.27898888246
0.278991614181
0.278994653533
0.278998105021
0.279002880215
0.2790022941
0.27902864349
0.278981131789
0.279097462195
0.278903821636
0.279075007589
0.278021669377
0.275349331535
0.266785306505
0.255985303817
0.358897283664
0.279322230148
0.279315927437
0.279313510478
0.279313830369
0.279314935896
0.279316282968
0.279317975521
0.279319908043
0.279322896867
0.279320580937
0.279344394081
0.279293917782
0.279410660318
0.27920375594
0.279363548527
0.278197943926
0.275235255509
0.266252711465
0.256284824288
0.372908303056
0.279663140432
0.279656208038
0.279652920366
0.279652524648
0.279653075467
0.279653754083
0.279654784772
0.279655889955
0.279657871813
0.279654632284
0.2796769076
0.27962421927
0.279742712264
0.279522065651
0.279668313722
0.278376206493
0.275090794477
0.265669858818
0.256590658199
0.387053654217
0.280023603084
0.280016512675
0.280012693815
0.280011930347
0.280012235123
0.280012567067
0.280013268242
0.280013922167
0.280015338629
0.280011647394
0.280033020306
0.279978458621
0.280099630181
0.279864056759
0.279993337744
0.278557347813
0.274912133366
0.265033449002
0.256889736748
0.401006926241
0.280410785647
0.280403984193
0.280399755839
0.280398786599
0.280398987449
0.280399166855
0.280399734362
0.280400186156
0.280401320222
0.280397484945
0.280418401391
0.280362028846
0.280486458838
0.280234007709
0.280341124568
0.278741202534
0.274694438837
0.264334352479
0.257140675002
0.414316596424
0.280830323
0.280822685052
0.28081822815
0.280817309552
0.280817590659
0.280817848156
0.280818492103
0.280819005295
0.280820140765
0.28081648428
0.280837423175
0.28077939462
0.280907859177
0.280636502792
0.280715689925
0.27892741539
0.274433718464
0.263584547706
0.257383187893
0.426660109785
0.281285284807
0.281276943622
0.281272138374
0.281271183679
0.281271466345
0.281271783892
0.28127247468
0.281273061862
0.281274204856
0.28127073866
0.281291834525
0.281231645361
0.281363974547
0.281070018744
0.281111535751
0.279112369662
0.27412047489
0.262749822962
0.257501026651
0.437112435123
0.281772863893
0.28176417264
0.281759147417
0.281758347493
0.281758821815
0.281759428525
0.281760392564
0.281761346275
0.281762839225
0.281759994363
0.281781952122
0.281720257226
0.281858131752
0.281540008598
0.281536757018
0.279294494436
0.273759812344
0.261938970513
0.257957098054
0.446141629434
0.282340593001
0.282328478922
0.282322358594
0.282321202396
0.282321392627
0.282321877207
0.282322667936
0.282323501643
0.282324701601
0.282321576988
0.282343582687
0.282276904041
0.282416855723
0.282064182157
0.281994778276
0.279499007632
0.273349721105
0.260941149407
0.257793856866
0.450834906398
0.282675333249
0.282672544797
0.282667155739
0.282667346846
0.282668809638
0.282670867241
0.282673395036
0.282676588483
0.282680780995
0.282682040242
0.282709426071
0.28265014828
0.282802225768
0.282434950817
0.282300477333
0.279514391011
0.272807989844
0.260277441816
0.259160690883
0.455707895666
0.284160471552
0.28412671564
0.284115132427
0.284109770971
0.284105257251
0.284100928441
0.284095815738
0.284089920344
0.284082903349
0.284069410686
0.284084285892
0.283988355236
0.284131665241
0.283668964592
0.283450612676
0.280351690141
0.273025589956
0.259908303811
0.259049495135
0.453447213947
0.284221645014
0.28420021456
0.284189208632
0.284184272998
0.284180136388
0.284175743733
0.284170052965
0.284163012893
0.284154076378
0.284138640094
0.284146911269
0.284052325919
0.284175870351
0.283688978688
0.283335781014
0.279996807777
0.272324347745
0.259770378811
0.262334215258
0.461090477422
0.193661145751
0.467086483061
0.200786932048
0.50664960939
0.208756030857
0.550898377241
0.217746123802
0.600243471867
0.227948577521
0.655080232547
0.239570031653
0.715764995849
0.252817057929
0.782599508764
0.267887419005
0.855869083367
0.284958969149
0.935835401901
0.304169569443
1.02290944801
0.325904493915
1.11760076452
0.350383276295
1.22035152606
0.377895917271
1.33177225629
0.408772600347
1.45265948015
0.443499143344
1.58402013336
0.482669240664
1.7269143548
0.526909950792
1.8825748205
0.577140253616
2.05231399143
0.634253957452
2.23746419096
0.699501192322
2.43954035726
0.774300212547
2.65997223041
0.860391105468
2.90041627503
0.960049207445
3.16246184298
1.07609166571
3.44814759645
1.21231366478
3.75839135639
1.37317389501
4.09752841132
1.56690523173
4.46011439582
1.79746827731
4.86521526715
2.09191422032
5.26731497058
2.42141177742
5.78521812248
2.91499117897
6.14109465607
3.10254633831
6.9986373685
)
;

boundaryField
{
    inletfuel
    {
        type            turbulentIntensityKineticEnergyInlet;
        intensity       0.05;
        value           nonuniform 0();
    }
    inletair
    {
        type            turbulentIntensityKineticEnergyInlet;
        intensity       0.05;
        value           nonuniform 0();
    }
    outlet
    {
        type            inletOutlet;
        inletValue      uniform 1;
        value           nonuniform List<scalar> 
26
(
0.284284700003
0.284279331346
0.284258158302
0.284245840519
0.284221645014
0.28420021456
0.284189208632
0.284184272998
0.284180136388
0.284175743733
0.284170052965
0.284163012893
0.284154076378
0.284138640094
0.284146911269
0.284052325919
0.284175870351
0.283688978688
0.283335781014
0.279996807777
0.272324347745
0.259770378811
0.262334215258
0.461090477422
3.10254633831
6.9986373685
)
;
    }
    axis
    {
        type            empty;
    }
    leftside
    {
        type            kqRWallFunction;
        value           nonuniform List<scalar> 
32
(
0.467086483061
0.50664960939
0.550898377241
0.600243471867
0.655080232547
0.715764995849
0.782599508764
0.855869083367
0.935835401901
1.02290944801
1.11760076452
1.22035152606
1.33177225629
1.45265948015
1.58402013336
1.7269143548
1.8825748205
2.05231399143
2.23746419096
2.43954035726
2.65997223041
2.90041627503
3.16246184298
3.44814759645
3.75839135639
4.09752841132
4.46011439582
4.86521526715
5.26731497058
5.78521812248
6.14109465607
6.9986373685
)
;
    }
    burnerwall
    {
        type            kqRWallFunction;
        value           nonuniform 0();
    }
    front
    {
        type            wedge;
    }
    back
    {
        type            wedge;
    }
    procBoundary1to0
    {
        type            processor;
        value           nonuniform List<scalar> 
27
(
14.6622976989
14.8473202932
15.1787168391
15.512679935
0.283395523461
0.282226494984
0.280389558307
0.279653815205
0.276816727934
0.264806058245
0.23282516256
15.9770543782
15.6858541418
14.0828048163
11.3891109443
8.08109822015
4.46354497434
1.42345123085
0.420618782051
0.252226631883
0.245548409495
0.263612630193
0.278373349614
0.284319216321
0.284319216321
0.187194783651
0.431500766305
)
;
    }
}


// ************************************************************************* //
