/*--------------------------------*- C++ -*----------------------------------*\
  =========                 |
  \\      /  F ield         | OpenFOAM: The Open Source CFD Toolbox
   \\    /   O peration     | Website:  https://openfoam.org
    \\  /    A nd           | Version:  7
     \\/     M anipulation  |
\*---------------------------------------------------------------------------*/
FoamFile
{
    version     2.0;
    format      ascii;
    class       volScalarField;
    location    "0.01";
    object      N2;
}
// * * * * * * * * * * * * * * * * * * * * * * * * * * * * * * * * * * * * * //

dimensions      [0 0 0 0 0 0 0];

internalField   nonuniform List<scalar> 
815
(
0.542406411217
0.544377007329
0.548584712942
0.562260296667
0.563983152969
0.5676814069
0.593002851912
0.594512453815
0.597786939714
0.637753413103
0.639050326151
0.641931779639
0.690327289238
0.691283188161
0.693500298957
0.732957598855
0.733495168797
0.734773090273
0.754993883641
0.755251964151
0.755760709155
0.762830540438
0.762920272069
0.763091916558
0.765442324991
0.765468796924
0.765520794752
0.766404452612
0.766415832733
0.766438324999
0.76681383503
0.766818564807
0.766827952781
0.766981614893
0.766983520621
0.766987330493
0.767048276625
0.76704902383
0.767050536049
0.767074018172
0.767074305294
0.767074895747
0.767083644203
0.767083753487
0.767083981272
0.767087063191
0.767087104836
0.76708719273
0.767088141731
0.767088158544
0.767088194322
0.76708836189
0.767088370004
0.767088387302
0.767088276814
0.767088282175
0.767088293578
0.767088084979
0.767088089823
0.767088100036
0.767087856911
0.767087861573
0.767087871525
0.767087611384
0.767087616132
0.767087626318
0.767087353186
0.76708735807
0.767087368559
0.767087082165
0.767087087126
0.767087097811
0.767086793652
0.767086799107
0.767086810681
0.76708648751
0.767086493497
0.767086506065
0.767086163333
0.767086169876
0.767086183482
0.767085811099
0.767085818467
0.767085833521
0.76708548515
0.767085491875
0.767085506203
0.767084975477
0.767084986491
0.767085006304
0.76708456674
0.767084576704
0.767084596814
0.554249344106
0.572700886371
0.60226308603
0.645907542752
0.696574664512
0.73654947508
0.7564453555
0.763320934469
0.765592507835
0.766468989682
0.766840586992
0.766992407165
0.767052539635
0.767075675797
0.767084280874
0.767087307076
0.767088239434
0.76708840769
0.767088305896
0.76708811046
0.767087881643
0.767087636762
0.767087379423
0.767087108991
0.767086822723
0.767086519099
0.767086197582
0.767085849152
0.767085521311
0.767085026461
0.767084618134
0.767073294157
0.767082700663
0.767085286247
0.767084604651
0.767067182163
0.766924445926
0.766156752971
0.566451187809
0.589287005292
0.616981585441
0.647448741394
0.679826958045
0.713644597907
0.744829074781
0.759650969004
0.764094601603
0.765801384835
0.766588193345
0.76692470782
0.767043576053
0.767076023218
0.767083256532
0.767085329104
0.767084300819
0.767065364265
0.766915279094
0.766121228781
0.583597252681
0.604156848504
0.630003193316
0.659883460939
0.692844717017
0.726515983251
0.751545596944
0.761612168188
0.764758176364
0.766085951712
0.766708011209
0.766966759725
0.767055341684
0.767079081538
0.767084303316
0.76708586921
0.767084428418
0.767063587219
0.766905277399
0.766083285953
0.612072267809
0.631139904409
0.655817835318
0.684831901974
0.715889483138
0.743304297028
0.757977568535
0.763416537665
0.765438320755
0.766382529458
0.766825499675
0.76700637645
0.767066290896
0.767082137563
0.767085577375
0.767086666455
0.767084735537
0.767061503815
0.766893916954
0.766042437673
0.654681782208
0.671893319216
0.693955597396
0.718520450186
0.741065965095
0.7555548726
0.762237589148
0.764815110881
0.766026658379
0.76663987531
0.766925067233
0.767038898994
0.767075248624
0.767084748844
0.767086763422
0.767087430482
0.767084910124
0.767058731847
0.766880651858
0.765997780906
0.703337367175
0.716216145581
0.731447858475
0.746090642082
0.756318830515
0.761942712402
0.764508503543
0.765782475696
0.766474765964
0.766832990838
0.76699807291
0.767062018044
0.767081629395
0.767086714364
0.76708771708
0.767088029506
0.767084784408
0.767055099278
0.766865219044
0.765948821816
0.740494148888
0.747260859948
0.753925206222
0.759270526834
0.762767844138
0.764671367218
0.765752899087
0.766400347106
0.766767970554
0.766958322141
0.767044216964
0.767076255019
0.767085640299
0.76708806396
0.767088422267
0.767088438298
0.767084296954
0.767050613954
0.766847607599
0.765895507995
0.757958828581
0.760200312742
0.762367115637
0.764068437627
0.765174409839
0.765935479658
0.76644296388
0.766757583551
0.766937518071
0.767029503428
0.767069633382
0.767083965578
0.767087919679
0.767088927585
0.767088908843
0.767088652393
0.767083469548
0.767045347736
0.766828007138
0.765838064963
0.763826744889
0.764528610739
0.765181495857
0.765761862985
0.766228337693
0.766569191755
0.766799395931
0.766943154058
0.767024598094
0.767065069093
0.767081957883
0.767087694053
0.76708910712
0.767089437019
0.767089209323
0.767088688471
0.767082346963
0.767039366486
0.766806852996
0.76577690071
0.765754318007
0.766003204505
0.766274291997
0.766522665627
0.766722784591
0.766869636137
0.766969093836
0.76703062309
0.76706462161
0.76708086551
0.767087274637
0.767089305514
0.767089658154
0.767089691845
0.767089355157
0.767088570545
0.767080977999
0.767032794119
0.766784595615
0.765712442208
0.76653652215
0.766642047168
0.766755149235
0.766858436352
0.766941654014
0.767002562791
0.767043345834
0.767068000743
0.767081141618
0.767087116501
0.767089288337
0.76708988498
0.767089847065
0.767089768337
0.767089377726
0.76708832516
0.767079394311
0.76702570679
0.766760827493
0.765644333019
0.766867853579
0.766911345643
0.766957575408
0.766999526539
0.767033090035
0.767057346323
0.76707323431
0.767082529174
0.767087257382
0.76708926473
0.767089885053
0.767089985336
0.767089833688
0.767089725784
0.767089306152
0.767087979597
0.767077629096
0.767018177012
0.766735693614
0.765572622626
0.767003212687
0.767020789497
0.767039319639
0.76705596377
0.767069104999
0.767078408851
0.767084315674
0.767087626604
0.767089207352
0.767089805138
0.767089918049
0.767089874288
0.767089710304
0.767089608885
0.767089167521
0.767087557725
0.767075709773
0.767010246309
0.766709266934
0.765497278016
0.767056764354
0.767063743157
0.767071032303
0.767077488346
0.767082489347
0.767085932906
0.767088037582
0.767089153614
0.767089635817
0.767089774503
0.76708974494
0.767089676672
0.767089532107
0.767089449657
0.767088984149
0.767087076331
0.767073648
0.767001904865
0.766681499738
0.765418068154
0.76707730664
0.767080026782
0.767082837965
0.767085285221
0.767087136231
0.767088368153
0.76708908494
0.767089434796
0.767089557985
0.767089563452
0.767089508093
0.767089450592
0.767089331259
0.767089268669
0.767088771447
0.76708654377
0.767071437258
0.766993095417
0.766652241695
0.765334642475
0.767084902568
0.767085941841
0.767087001826
0.767087905383
0.767088569222
0.767088992517
0.767089222196
0.767089318434
0.767089334581
0.767089310495
0.767089261492
0.767089221327
0.767089124206
0.767089077142
0.767088537809
0.767085960551
0.767069054989
0.766983724299
0.766621252242
0.765246525404
0.767087542321
0.767087931308
0.767088320495
0.76708864344
0.767088872181
0.767089009643
0.767089075821
0.767089094006
0.767089083705
0.767089059381
0.767089022375
0.767088997476
0.76708891726
0.767088879594
0.767088285889
0.767085319989
0.767066460899
0.766973648442
0.766588145967
0.765153059726
0.76708833042
0.767088474521
0.767088613617
0.767088724431
0.767088798904
0.767088839396
0.767088853984
0.76708885121
0.767088837932
0.767088819552
0.767088793004
0.767088779533
0.767088711034
0.767088676441
0.767088014484
0.767084610393
0.767063605929
0.766962717965
0.766552583188
0.765053664914
0.767088446954
0.767088502212
0.767088551296
0.767088587376
0.76708860939
0.767088618822
0.767088618817
0.767088612311
0.76708860162
0.767088588996
0.767088570158
0.767088564609
0.767088503484
0.767088465961
0.767087719906
0.767083815338
0.767060427071
0.766950743416
0.766514086094
0.764947600508
0.76708832801
0.767088352833
0.767088371023
0.767088381995
0.767088387176
0.767088387582
0.767088384445
0.767088378686
0.767088371056
0.767088362733
0.767088349238
0.767088348895
0.767088291718
0.767088245564
0.767087396974
0.767082914886
0.76705685386
0.7669375293
0.766472218387
0.764834247497
0.767088128132
0.767088143721
0.767088152097
0.76708815522
0.76708815549
0.767088153802
0.767088150684
0.767088146385
0.767088141138
0.767088135759
0.76708812587
0.767088128761
0.767088072848
0.767088012405
0.767087039466
0.767081885976
0.767052808605
0.766922868467
0.766426509987
0.764712947369
0.767087898651
0.767087912231
0.767087918026
0.767087919052
0.767087918183
0.767087916379
0.767087913913
0.767087910853
0.767087907256
0.767087903821
0.767087896337
0.76708790106
0.767087844227
0.767087763496
0.767086639928
0.767080700957
0.767048200391
0.766906524039
0.766376429888
0.764583018004
0.767087654358
0.767087668287
0.767087673854
0.767087674575
0.767087673635
0.767087672152
0.767087670295
0.767087668122
0.767087665614
0.76708766344
0.767087657546
0.767087663103
0.76708760344
0.767087495709
0.767086189888
0.767079329899
0.767042938984
0.766888279003
0.766321518678
0.764443817736
0.767087397865
0.767087412815
0.767087418872
0.767087419794
0.767087419024
0.767087417876
0.767087416463
0.76708741489
0.767087413089
0.767087411718
0.767087406858
0.767087412505
0.767087348153
0.767087205465
0.767085678505
0.767077733293
0.767036903332
0.766867842627
0.766261179119
0.764294619369
0.767087128149
0.767087144218
0.76708715096
0.767087152196
0.767087151612
0.767087150722
0.767087149606
0.76708714843
0.767087147083
0.767087146214
0.767087141996
0.767087147146
0.76708707613
0.767086888984
0.767085094556
0.767075875657
0.767030001995
0.766845017347
0.766194943501
0.764134582771
0.767086843211
0.767086860576
0.767086868039
0.767086869566
0.767086869115
0.767086868384
0.76708686744
0.767086866504
0.767086865424
0.767086864826
0.767086860929
0.767086864998
0.767086784902
0.767086540954
0.767084418804
0.767073682888
0.767022004878
0.766819266508
0.766121794604
0.763962717123
0.767086541212
0.767086560017
0.767086568232
0.767086570022
0.767086569663
0.767086569017
0.767086568162
0.767086567353
0.767086566414
0.767086565923
0.76708656209
0.767086564542
0.767086472628
0.767086158223
0.767083645822
0.76707116428
0.767013014654
0.766790924951
0.766042915087
0.763777902133
0.767086221487
0.767086241826
0.7670862508
0.767086252798
0.767086252467
0.767086251811
0.767086250944
0.767086250128
0.767086249174
0.767086248579
0.767086244452
0.767086244407
0.767086136446
0.7670857296
0.767082721372
0.767068078542
0.76700223961
0.766758150644
0.76595653122
0.763577808805
0.767085875709
0.767085898192
0.7670859081
0.767085910347
0.767085910064
0.767085909386
0.767085908494
0.767085907639
0.767085906648
0.767085905917
0.76708590135
0.767085898524
0.767085771572
0.767085261352
0.767081724342
0.767064888571
0.766991321282
0.766724830796
0.765868364685
0.763360627693
0.767085547485
0.767085570641
0.767085581233
0.767085583474
0.767085582987
0.767085581978
0.767085580708
0.767085579341
0.767085577705
0.767085575984
0.767085569734
0.767085560812
0.767085403779
0.767084729998
0.767080379594
0.767060205925
0.766975881996
0.76668143227
0.765765267635
0.763130840256
0.7670850609
0.767085089507
0.76708510188
0.767085104938
0.767085105105
0.767085104674
0.767085104101
0.767085103497
0.767085102796
0.767085102093
0.767085096166
0.767085085973
0.767084903816
0.767084111565
0.767079179844
0.767056883232
0.766965709317
0.76665009428
0.765674569843
0.762862549476
0.767084654937
0.767084686698
0.767084700659
0.76708470437
0.767084705014
0.767084705053
0.767084705113
0.767084705275
0.767084705571
0.767084705912
0.767084700643
0.767084684887
0.767084463664
0.767083451428
0.767077502926
0.767051352486
0.766948488539
0.76660739875
0.765590046996
0.762655691477
0.761682092813
0.759120852568
0.761513970085
0.758900200824
0.76133748419
0.758671494736
0.761150934159
0.758433285542
0.760952021934
0.758183504103
0.760739151881
0.757920859426
0.760511664886
0.757644786521
0.760269527035
0.757355010546
0.760013204025
0.757051292996
0.759743595536
0.75673324678
0.759459968604
0.756400154662
0.759162310394
0.756051142002
0.75885037995
0.755685246896
0.758523832446
0.755301389307
0.758181644879
0.754898307742
0.757822548376
0.754474612164
0.757445465803
0.754028867971
0.757048527575
0.753559572447
0.756630638664
0.753065293432
0.756190071975
0.752544615033
0.755725483327
0.751996205592
0.755235619355
0.751418811508
0.754718910444
0.750811249259
0.754173974583
0.750172281196
0.753599432026
0.749501031266
0.752993743916
0.748795846613
0.752354122505
0.74805706315
0.751682993266
0.747280680738
0.750960606791
0.746472327231
0.750236401178
0.745617250429
0.749457764433
0.744759832102
0.749479016151
0.744159591985
)
;

boundaryField
{
    inletfuel
    {
        type            fixedValue;
        value           nonuniform 0();
    }
    inletair
    {
        type            fixedValue;
        value           nonuniform 0();
    }
    outlet
    {
        type            zeroGradient;
    }
    axis
    {
        type            empty;
    }
    leftside
    {
        type            zeroGradient;
    }
    burnerwall
    {
        type            zeroGradient;
    }
    front
    {
        type            wedge;
    }
    back
    {
        type            wedge;
    }
    procBoundary1to0
    {
        type            processor;
        value           nonuniform List<scalar> 
27
(
0.528599741467
0.53090664964
0.535816418249
0.542388490975
0.767070169656
0.76708190292
0.767085000721
0.767084606007
0.767068372636
0.766932069537
0.766188674135
0.556438449068
0.582294528742
0.613005462749
0.645064518179
0.676975733871
0.70887254029
0.740176838517
0.758097718327
0.763545380564
0.765558788638
0.766475551317
0.766882636301
0.767031017388
0.767031017388
0.761839106912
0.75932927241
)
;
    }
}


// ************************************************************************* //
