/*--------------------------------*- C++ -*----------------------------------*\
  =========                 |
  \\      /  F ield         | OpenFOAM: The Open Source CFD Toolbox
   \\    /   O peration     | Website:  https://openfoam.org
    \\  /    A nd           | Version:  7
     \\/     M anipulation  |
\*---------------------------------------------------------------------------*/
FoamFile
{
    version     2.0;
    format      ascii;
    class       volScalarField;
    location    "0.01";
    object      nut;
}
// * * * * * * * * * * * * * * * * * * * * * * * * * * * * * * * * * * * * * //

dimensions      [0 2 -1 0 0 0 0];

internalField   nonuniform List<scalar> 
815
(
0.00267200495696
0.00268565109686
0.00271245980215
0.0027710309262
0.00278078029622
0.00279948229297
0.00265129169236
0.00265243123764
0.0026527152377
0.00210363099563
0.00209547871742
0.00207521504711
0.00124417796758
0.00123363500302
0.00120712758879
0.000531996407952
0.000525514350001
0.000509094970091
0.00021781080604
0.00021514941869
0.000210212790085
0.000157011894092
0.000156913392673
0.000157039448441
0.000200752610828
0.000201762039063
0.000203958998458
0.000274779401989
0.000275833558318
0.000278003005815
0.000327046449393
0.000327678741996
0.000328962026173
0.000353202191481
0.000353513023211
0.00035414254455
0.000365067472466
0.000365209554348
0.000365497167166
0.000370437967671
0.000370499650878
0.000370624935377
0.000372934973835
0.000372960854432
0.000373013207932
0.000374164429086
0.000374174355511
0.000374194216891
0.000374841031656
0.000374842898601
0.000374846851894
0.000375271638019
0.000375270215817
0.000375267447857
0.000375599765122
0.000375596820963
0.000375590891064
0.000375890892068
0.000375886740277
0.000375878550714
0.000376156920238
0.000376154461073
0.000376148877886
0.000376434658691
0.000376432463235
0.000376427095448
0.000376726211027
0.000376724284927
0.000376719655682
0.000377037131584
0.000377035920818
0.000377032262604
0.000377387731427
0.000377384642089
0.000377377803206
0.000377759631749
0.000377756137693
0.000377748533816
0.000378155548649
0.000378151882364
0.00037814401633
0.000378620965647
0.00037861584046
0.000378606243204
0.000378855051764
0.000378857831548
0.000378859689536
0.000380132976084
0.000380109622877
0.000380081487233
0.000380123494663
0.000380125495687
0.000380121439876
0.00274361818863
0.00281995763384
0.00264847693118
0.00204368149005
0.00116845959967
0.000485837857203
0.000203681859232
0.00015761342371
0.000207437503083
0.000281238564526
0.000330798422947
0.000355014774067
0.000365887710421
0.000370794616686
0.000373085109779
0.000374223424307
0.000374856542314
0.00037526890406
0.000375588639587
0.000375873979504
0.000376146088701
0.000376424717707
0.00037671805196
0.000377031725815
0.000377374958585
0.000377744969676
0.000378140198624
0.000378600616875
0.000378864771371
0.000380060844907
0.000380117376292
0.000379880664901
0.000378832386396
0.000377280287174
0.000376486377344
0.000372796997457
0.000353916968211
0.000289402987691
0.00279795847099
0.0028227210113
0.00271981839548
0.00241781366054
0.00187006464688
0.00110153873567
0.000403454168122
0.000189553482678
0.000216798107594
0.000298994552126
0.000350144364738
0.000372910521193
0.000380053687798
0.000379928613177
0.000378769585079
0.000377237348964
0.000376431713387
0.000372524235345
0.000352841935372
0.000287864789153
0.00285143102733
0.00282957616374
0.00265486279189
0.00224878091788
0.00158530066761
0.000801917363549
0.000295266225564
0.000181218260742
0.000234607096831
0.000313050952961
0.000357175005324
0.000375467160638
0.000380464172963
0.000379723036328
0.00037854797211
0.000377090491137
0.000376294565247
0.000372137735637
0.000351595254423
0.000286311455339
0.00262660857127
0.00250385686902
0.00220845508443
0.00169518052191
0.00103112626139
0.000447190328986
0.000207780176053
0.000189068605059
0.000263223453963
0.000330446399975
0.000364496749121
0.000377505514344
0.000380405170783
0.000379223466883
0.000378146498826
0.000376828695227
0.000376061428673
0.000371613589263
0.000350150610722
0.00028473776164
0.00196449885121
0.00175093875798
0.0013949874158
0.000929808928866
0.000486280085878
0.000239973802378
0.000176902876786
0.000221219035387
0.000297341782165
0.000347396270955
0.000370654604037
0.000378608288734
0.000379814752457
0.000378462815566
0.00037758684146
0.000376463354699
0.000375732130296
0.000370942594341
0.000348498189643
0.000283141663783
0.00107910193887
0.000885282800124
0.000630512052651
0.00038277591979
0.000227162721236
0.000173459793721
0.000199982095526
0.000269397929294
0.000328661365483
0.000360726499549
0.000374601247214
0.000378604642198
0.000378778110532
0.000377530423935
0.000376927237804
0.000376025542294
0.000375319627028
0.000370132809962
0.000346645633272
0.000281525632278
0.000432861682159
0.000339277887351
0.000249007371115
0.000186475099997
0.00016713409378
0.000194628778617
0.000255414177344
0.000314380284629
0.000351020454759
0.000368984466083
0.000376185027869
0.000377737690481
0.000377524650443
0.000376560389561
0.000376248470093
0.000375557224082
0.000374846577224
0.000369208481815
0.000344619021507
0.000279898692883
0.000189206063979
0.000170142123087
0.000159684278246
0.000168416288354
0.000203022760841
0.000257031722265
0.000309241302083
0.000344596123856
0.000363875236276
0.000372804553951
0.000376091467947
0.000376497691014
0.000376311307424
0.000375682237141
0.000375627915337
0.000375103523566
0.00037434707927
0.000368204323434
0.000342458227075
0.000278276399326
0.000160098759314
0.000169191320562
0.000190536281341
0.000226800117917
0.000271974195289
0.00031355879047
0.000343121745726
0.000360661110403
0.000369823274703
0.000373871498424
0.00037528263588
0.000375338185964
0.000375327608787
0.000374987931695
0.000375121233161
0.000374710217526
0.000373851037091
0.000367152881755
0.000340207693487
0.000276697541782
0.000216812835247
0.000235999210207
0.000263843194854
0.000295763776022
0.00032464658003
0.000346136121453
0.00035995564406
0.000367910737926
0.000372029050331
0.000373800472222
0.000374470840199
0.000374506640855
0.000374655062509
0.000374517685968
0.000374756946626
0.000374405387678
0.000373383716953
0.000366086644505
0.000337908169525
0.000275252587578
0.000289233574103
0.000303740302396
0.000321256474877
0.000338210676422
0.000351813395884
0.000361351192057
0.000367403315487
0.000370905811861
0.000372752056925
0.000373566306307
0.000373970086276
0.00037405861138
0.000374288305856
0.000374261804061
0.000374538505627
0.000374198350378
0.000372967895025
0.000365020286371
0.000335544567215
0.000273952340019
0.000335063606687
0.000342446674673
0.000350670909915
0.000358159268156
0.000363993256565
0.000368074843027
0.000370697963582
0.000372245845307
0.000373105571962
0.000373525202166
0.000373811002186
0.00037392404378
0.000374166087047
0.000374182004535
0.00037445141308
0.000374081327674
0.000372611151074
0.000363961001875
0.000333123527152
0.000272798764653
0.000356955217498
0.000360258418162
0.000363806260752
0.000366976632158
0.000369445029968
0.000371190210553
0.000372331273368
0.000373027303139
0.000373447491981
0.000373685451511
0.000373893462378
0.000373995901119
0.000374213202439
0.000374227177793
0.000374468631045
0.000374037490513
0.000372306881936
0.000362906482187
0.00033063035905
0.000271775806172
0.000366732161824
0.000368160782754
0.000369664941327
0.000370999852688
0.000372042339023
0.000372786777173
0.000373284733581
0.00037360405004
0.000373817687188
0.000373958210824
0.000374105527799
0.000374178696173
0.000374360977987
0.000374351125085
0.000374558757054
0.000374047421574
0.000372040477614
0.000361844712337
0.00032804111226
0.000270863017304
0.000371154652085
0.000371762237447
0.000372393729606
0.000372952131451
0.000373389319925
0.000373705015067
0.000373922502946
0.000374071406013
0.000374183018361
0.000374265715586
0.000374367711693
0.000374409379031
0.000374559362205
0.00037451989348
0.000374694974948
0.000374093330859
0.000371794773783
0.000360756792612
0.000325326229079
0.000270045494775
0.000373235597567
0.000373488755607
0.000373749636948
0.00037398008213
0.000374161182706
0.000374294121439
0.000374389570491
0.000374460488361
0.000374520295254
0.000374568090583
0.000374638517636
0.000374654368417
0.000374779146058
0.000374712200618
0.000374858594566
0.000374160958383
0.000371553001708
0.000359619452331
0.000322449560685
0.000269292209226
0.000374284318187
0.000374386488725
0.00037449150665
0.000374584860648
0.000374659005777
0.00037471502644
0.000374757704009
0.000374792604982
0.000374825591914
0.000374852546183
0.000374902135187
0.000374899384064
0.000375006337531
0.000374916493356
0.00037503831394
0.000374239810677
0.000371299646863
0.000358406190818
0.00031936859136
0.000268557049006
0.000374878162722
0.000374916720976
0.000374957264068
0.000374994291948
0.000375024531032
0.00037504855733
0.000375068374046
0.000375086307329
0.000375105082809
0.000375119715072
0.000375155998692
0.000375140701595
0.000375235944374
0.000375127558825
0.000375227892058
0.000374322154776
0.000371020280286
0.000357090341752
0.000316044841764
0.000267784390288
0.000375273952035
0.0003752861565
0.000375300443938
0.000375314673776
0.000375327078138
0.000375337751782
0.000375347429918
0.000375357053965
0.000375368049304
0.000375375397486
0.000375403300722
0.00037537978056
0.000375467843288
0.000375344132008
0.00037542456282
0.000374402380012
0.000370701169247
0.000355643186335
0.000312434749739
0.000266882148703
0.000375586424961
0.000375587666044
0.0003755913647
0.000375596447214
0.000375601611392
0.000375606590355
0.000375611580979
0.000375616931966
0.000375623519601
0.000375626541328
0.00037564916526
0.000375620261948
0.000375704291074
0.000375567182534
0.000375627588825
0.00037447610086
0.000370328938281
0.00035403702157
0.000308503794363
0.000265756157109
0.000375867673775
0.00037586398112
0.00037586336107
0.000375864743189
0.000375866932817
0.000375869384153
0.00037587210193
0.000375875151741
0.000375879177483
0.000375879626143
0.000375898907231
0.000375866403024
0.000375948526026
0.000375798825989
0.000375837419715
0.000374539694837
0.000369890427193
0.00035224455485
0.000304220802356
0.000264277264393
0.000376141179373
0.000376136084151
0.000376133538201
0.000376133256759
0.000376134119334
0.000376135331553
0.000376136864699
0.000376138612772
0.000376141127472
0.000376140069036
0.000376157252965
0.000376122256352
0.000376203957112
0.000376041605652
0.000376055067153
0.000374589736471
0.000369371971248
0.000350238884375
0.000299561047952
0.000262303872051
0.00037642044046
0.000376414805297
0.000376411362332
0.000376410349158
0.000376410654334
0.000376411272985
0.000376412212869
0.000376413245295
0.000376414896917
0.000376413005324
0.000376428911315
0.00037639205729
0.000376474323034
0.000376298426518
0.00037628166957
0.000374622653531
0.000368760022114
0.000347996628412
0.000294513363745
0.000259676158621
0.000376714725392
0.000376709019158
0.00037670505724
0.000376703650908
0.000376703688189
0.000376703999782
0.000376704633156
0.000376705269404
0.000376706427832
0.00037670410127
0.000376719249226
0.000376680829978
0.000376764271389
0.000376573175974
0.000376519210521
0.000374634676403
0.00036803887428
0.000345492722555
0.000289071035478
0.000256223105605
0.00037702989577
0.000377024514249
0.000377020194411
0.00037701854528
0.000377018446195
0.000377018616404
0.000377019110934
0.000377019559771
0.000377020462062
0.000377017960168
0.000377032709166
0.000376992785066
0.000377077681634
0.000376868901669
0.000376768398511
0.000374621451618
0.000367194946125
0.000342710228785
0.000283239770078
0.000251730681751
0.000377370703549
0.000377364656553
0.000377360096209
0.000377358402795
0.000377358321074
0.000377358533598
0.000377359061785
0.000377359535653
0.000377360413097
0.000377357999451
0.000377372723559
0.000377331407184
0.000377418109043
0.000377188736996
0.000377030268765
0.000374574716866
0.000366202864819
0.000339618951113
0.00027702167513
0.000246057100321
0.000377739493607
0.000377732842181
0.000377727935366
0.000377726129457
0.000377726014897
0.000377726260708
0.000377726810604
0.000377727327811
0.000377728197827
0.000377725895903
0.000377740698345
0.000377697589157
0.000377785654288
0.000377531273255
0.000377299862604
0.000374491599996
0.000365065056781
0.000336246898226
0.000270480499303
0.000238827475816
0.000378134169238
0.000378127168752
0.000378122004717
0.000378120224451
0.000378120228101
0.000378120684141
0.000378121437284
0.000378122227405
0.000378123361904
0.000378121513074
0.000378136929695
0.000378092484709
0.000378182726928
0.000377899631167
0.000377577590863
0.00037434641201
0.000363711169464
0.000332504784159
0.000263528247838
0.000230130165832
0.000378590958177
0.000378581290819
0.000378575121495
0.000378572956705
0.00037857272265
0.000378573078085
0.000378573703705
0.000378574402811
0.000378575324099
0.000378573259067
0.000378588647709
0.00037854021411
0.000378629552786
0.000378308277141
0.000377874210651
0.000374203303394
0.000362298604806
0.000328666187898
0.000256518475508
0.000218858060439
0.000378871223704
0.000378868821273
0.000378863377666
0.000378862127258
0.000378862849096
0.000378864396679
0.000378866361639
0.000378868866128
0.000378872089881
0.000378873362323
0.000378892822876
0.000378849572416
0.000378944694495
0.000378593699045
0.000378017066667
0.000373760718525
0.000360347784296
0.000324135100765
0.000248912180984
0.000208032402887
0.000380025230627
0.000379999249121
0.000379988330093
0.000379982716609
0.000379978916016
0.000379975630173
0.000379971846989
0.000379967500629
0.000379962287819
0.000379952493645
0.000379962286863
0.000379891411676
0.000379976038568
0.00037953863499
0.000378826449925
0.000374079882349
0.000359473474758
0.000321190569937
0.000242893674662
0.000191375815244
0.000380107018692
0.000380090591907
0.000380079861768
0.000380074373298
0.000380070784544
0.000380067389548
0.000380063121748
0.000380057841265
0.000380051108435
0.000380039708077
0.000380044343833
0.000379973371527
0.000380037835878
0.000379554909434
0.000378621132398
0.000373265925437
0.000357242339688
0.00031739249579
0.00024010839882
0.000189150397279
9.54154153083e-05
0.000114539046763
9.4638842857e-05
0.000119289583192
9.39238630722e-05
0.000124387996826
9.32844140279e-05
0.000129837621937
9.27482026021e-05
0.000135636974403
9.2355909621e-05
0.0001417783795
9.21569184679e-05
0.00014824784171
9.22007485487e-05
0.000155030050367
9.25338973989e-05
0.000162108285804
9.31929071488e-05
0.000169479293461
9.420021519e-05
0.00017714660548
9.5586160817e-05
0.000185106581566
9.73731173677e-05
0.00019336698294
9.95808802558e-05
0.000201945732198
0.000102232016063
0.000210870324051
0.0001053629096
0.000220165550422
0.000109017439387
0.000229860975506
0.000113255400984
0.000239984117662
0.000118149945486
0.00025055707906
0.000123791534691
0.000261606033327
0.000130293749383
0.000273146230168
0.000137794345092
0.000285199306032
0.000146468595378
0.000297777806421
0.000156533249546
0.000310910450086
0.000168286071544
0.000324570131176
0.000182035940375
0.000338874616782
0.000198412760798
0.000353528249832
0.000217633662195
0.000369219488967
0.000241493592394
0.000384153563844
0.000268511729248
0.000402601438206
0.00030817665078
0.000414767196281
0.000318949571248
0.000442821542183
)
;

boundaryField
{
    inletfuel
    {
        type            calculated;
        value           nonuniform 0();
    }
    inletair
    {
        type            calculated;
        value           nonuniform 0();
    }
    outlet
    {
        type            calculated;
        value           nonuniform List<scalar> 
26
(
0.000380123494663
0.000380125495687
0.000380121439876
0.000380117376292
0.000380107018692
0.000380090591907
0.000380079861768
0.000380074373298
0.000380070784544
0.000380067389548
0.000380063121748
0.000380057841265
0.000380051108435
0.000380039708077
0.000380044343833
0.000379973371527
0.000380037835878
0.000379554909434
0.000378621132398
0.000373265925437
0.000357242339688
0.00031739249579
0.00024010839882
0.000189150397279
0.000318949571248
0.000442821542183
)
;
    }
    axis
    {
        type            empty;
    }
    leftside
    {
        type            nutkWallFunction;
        Cmu             0.09;
        kappa           0.41;
        E               9.8;
        value           nonuniform List<scalar> 
32
(
6.23212680397e-06
6.96147896347e-06
7.74007755941e-06
8.56774020416e-06
9.44352522353e-06
1.03655646613e-05
1.13310915213e-05
1.23372155044e-05
1.33809201742e-05
1.44612692355e-05
1.55783630288e-05
1.6731249254e-05
1.79206516023e-05
1.91487676355e-05
2.04191428382e-05
2.17348871658e-05
2.30997392793e-05
2.45171010028e-05
2.59895680944e-05
2.75202840384e-05
2.91108390559e-05
3.07636999838e-05
3.24800631119e-05
3.42633039374e-05
3.61091629148e-05
3.80329566147e-05
3.99942987391e-05
4.20851032353e-05
4.40649836986e-05
4.65017279889e-05
4.80967533921e-05
5.17898107306e-05
)
;
    }
    burnerwall
    {
        type            nutkWallFunction;
        Cmu             0.09;
        kappa           0.41;
        E               9.8;
        value           nonuniform 0();
    }
    front
    {
        type            wedge;
    }
    back
    {
        type            wedge;
    }
    procBoundary1to0
    {
        type            processor;
        value           nonuniform List<scalar> 
27
(
0.00252891184408
0.00254238283642
0.00256851248494
0.00259811403655
0.000379620055697
0.000378731450484
0.000377205483416
0.000376442177303
0.000372946500536
0.000354811296815
0.000290889856697
0.00264782393601
0.00266152617546
0.00255656035247
0.00229242390873
0.00184543708751
0.00119437922534
0.00047877876528
0.000199736937952
0.00020861425004
0.00028982471829
0.00034426547149
0.000370212278456
0.000379304231952
0.000379304231952
9.62381726091e-05
0.000110090776433
)
;
    }
}


// ************************************************************************* //
