/*--------------------------------*- C++ -*----------------------------------*\
  =========                 |
  \\      /  F ield         | OpenFOAM: The Open Source CFD Toolbox
   \\    /   O peration     | Website:  https://openfoam.org
    \\  /    A nd           | Version:  7
     \\/     M anipulation  |
\*---------------------------------------------------------------------------*/
FoamFile
{
    version     2.0;
    format      ascii;
    class       volScalarField;
    location    "0.01";
    object      O2;
}
// * * * * * * * * * * * * * * * * * * * * * * * * * * * * * * * * * * * * * //

dimensions      [0 0 0 0 0 0 0];

internalField   nonuniform List<scalar> 
815
(
0
0
0
0
0
0
0.000493257817549
0.000535069134081
0.00063284369255
0.00392296516864
0.00405908715353
0.00437638814098
0.0173759078869
0.0177749904653
0.0187293152178
0.0639504766655
0.0652003898525
0.0682289906313
0.147985309191
0.149230248151
0.15170757058
0.19255078045
0.193092562755
0.194145706916
0.21112445488
0.211344007687
0.21177563014
0.219063057011
0.2191579872
0.219345736337
0.222462260152
0.222501951393
0.222580779492
0.223864289442
0.223880368755
0.223912530999
0.224424685068
0.22443101555
0.22444383323
0.224642302091
0.224644738247
0.224649750403
0.224724149645
0.224725072797
0.224726998577
0.22475344018
0.224753785341
0.224754515557
0.224762823576
0.224762955532
0.224763238366
0.224764874087
0.224764930883
0.224765054137
0.224764306195
0.224764338865
0.224764410526
0.224762820101
0.224762847829
0.224762908281
0.224761021964
0.22476104792
0.224761105626
0.224759077243
0.224759103735
0.224759163006
0.224757029534
0.224757057019
0.224757118524
0.224754879427
0.224754907457
0.224754970385
0.224752590361
0.224752622248
0.224752692114
0.224750161439
0.22475019749
0.224750275127
0.224747589467
0.224747629862
0.224747715614
0.224744794871
0.22474484175
0.224744938861
0.224742209044
0.224742250753
0.224742341985
0.224738164863
0.224738240527
0.224738375146
0.224734922103
0.224734989373
0.224735126226
0
0
0.000785744452491
0.00485784724776
0.0201816860379
0.0729146880639
0.155145029869
0.19559216142
0.212370579459
0.219601556941
0.222686817702
0.223955376919
0.224460816792
0.224656376107
0.224729536375
0.224755470325
0.224763599037
0.224765201538
0.224764487549
0.224762967952
0.224761162008
0.22475922161
0.224757180268
0.22475503449
0.224752762942
0.224750353697
0.22474780251
0.224745037769
0.224742436611
0.224738509689
0.224735269871
0.224648166216
0.22472429743
0.224744837125
0.22473941066
0.224601227974
0.223469253075
0.217380013055
0
0
0.000391743104568
0.00200016325698
0.00675057876392
0.0220963534997
0.0833578982823
0.165661540888
0.200076935746
0.214138568152
0.220648782788
0.223427989152
0.22440584708
0.224673861377
0.224732004303
0.224748375729
0.22474019273
0.224590089195
0.223400508763
0.217105166117
2.3663971691e-05
0.000415147115851
0.0015554229582
0.00459081829274
0.012884463179
0.0376593097455
0.119894443304
0.180441078571
0.205622861326
0.216525564025
0.221650233434
0.223779507293
0.224505532712
0.224698765608
0.224740003126
0.224752286831
0.224740831126
0.224575626226
0.22332077859
0.21680387542
0.00117744275821
0.00237365398361
0.00514372825424
0.0118378850668
0.0295596923836
0.0848705169577
0.157574944182
0.19482437434
0.211233189935
0.218976959857
0.222619236237
0.224104524334
0.224594224708
0.224721137407
0.224747810425
0.224756308415
0.224740964763
0.22455673735
0.22322781413
0.216475098974
0.00604817722645
0.00941597509544
0.016849376496
0.0342322142318
0.0794861767712
0.144787379403
0.185981751847
0.206165315387
0.21605160235
0.221086594482
0.223432800993
0.224367483376
0.224664297521
0.224739513622
0.224754933739
0.224760123667
0.224740105914
0.224532430587
0.223119740289
0.216115826821
0.0237659337578
0.0337874919887
0.0552748223708
0.101728476967
0.150491191951
0.184432986927
0.203661533697
0.214038290468
0.219716248092
0.22266660671
0.224027500848
0.224553220437
0.224713409381
0.224753408746
0.224761018351
0.224763440223
0.224737676122
0.224502123216
0.222995445146
0.215723979608
0.08480024407
0.109869036342
0.139740091082
0.168604530786
0.19057215908
0.204950440588
0.213777608359
0.219089836664
0.222120145193
0.223693660117
0.224403592327
0.224667448309
0.224744182154
0.224763191541
0.22476586884
0.224765970225
0.224733097941
0.22446579078
0.222854759466
0.215299133822
0.163000046686
0.175364716225
0.188510271625
0.200155367518
0.209018425919
0.215254772889
0.219427803819
0.222025126786
0.223515542622
0.22427860055
0.224611119539
0.224729360833
0.22476173902
0.224769636877
0.22476942242
0.224767377499
0.224726242263
0.22442369454
0.222698820696
0.214842489926
0.198883885026
0.203807908994
0.209040750687
0.21380796515
0.217646398757
0.220458810657
0.222364146158
0.223557470526
0.224234912796
0.22457165958
0.224711926154
0.224759335494
0.224770948829
0.22477353141
0.224771701836
0.224767565098
0.224717235226
0.224376121212
0.222530796955
0.214356783277
0.213711904655
0.21577089302
0.218010750751
0.220064379119
0.221722266243
0.222941854172
0.223769721934
0.224282811864
0.22456659327
0.224702112191
0.224755473945
0.224772307549
0.224775252781
0.22477551022
0.224772830737
0.224766602776
0.224706343997
0.224323930216
0.222354110608
0.213845120598
0.220164525618
0.221043031104
0.22198399817
0.222843853845
0.22353770887
0.22404640569
0.224387473828
0.224593845088
0.224703862469
0.224753844726
0.22477199883
0.224776984932
0.224776734839
0.224776107407
0.224773004117
0.224764649897
0.224693769061
0.224267673514
0.2221654625
0.213304548054
0.222915531631
0.223280065978
0.22366728899
0.224018735765
0.224300143369
0.224503679907
0.224637070632
0.224715128639
0.224754836996
0.224771694825
0.224776932271
0.224777811214
0.224776624874
0.224775766565
0.224772433622
0.224761904667
0.224679755942
0.224207908076
0.221965979971
0.212735411327
0.22404654034
0.224194783318
0.224350932301
0.224491130638
0.224601826692
0.224680205084
0.22472996858
0.224757866718
0.224771198202
0.224776259764
0.224777258846
0.224776938275
0.224775642205
0.224774834318
0.224771328785
0.224758551548
0.224664517464
0.224144958512
0.221756235559
0.212137433554
0.224496625921
0.224555792841
0.224617529294
0.224672158849
0.224714451677
0.224743563469
0.224761356611
0.22477080048
0.224774898841
0.224776103937
0.224775901809
0.224775368339
0.224774221883
0.224773563622
0.224769866386
0.224754723608
0.224648146049
0.224078746839
0.221535850214
0.211508778522
0.224670235232
0.224693386531
0.224717293794
0.224738081115
0.224753789745
0.22476424074
0.22477032594
0.224773307069
0.224774375053
0.224774451474
0.224774021887
0.224773567795
0.224772619739
0.224772118784
0.224768169976
0.224750488421
0.224630591258
0.224008819935
0.221303632348
0.210846665671
0.224734811717
0.22474367476
0.224752717198
0.224760417281
0.224766069907
0.224769675219
0.224771637191
0.224772469638
0.224772626542
0.224772445189
0.224772058847
0.224771740262
0.224770967769
0.22477059027
0.224766307537
0.224745851385
0.224611675412
0.223934435843
0.221057674426
0.210147323251
0.224757444285
0.224760756117
0.224764081869
0.224766841662
0.224768796242
0.224769973283
0.224770545199
0.224770711342
0.224770638008
0.22477044738
0.224770153961
0.224769955801
0.22476931734
0.224769014997
0.224764301093
0.224740760376
0.224591079638
0.223854460073
0.22079491885
0.209405537392
0.224764335645
0.224765549173
0.224766736067
0.224767684727
0.224768323485
0.224768673177
0.224768803419
0.224768787519
0.22476868399
0.224768538227
0.224768327075
0.224768219372
0.224767674043
0.224767396777
0.224762141538
0.224735123011
0.224568415002
0.223767703523
0.220512670304
0.208616701704
0.224765492378
0.224765941659
0.224766355966
0.224766664212
0.224766853584
0.224766936525
0.22476694003
0.22476688937
0.224766804305
0.224766703507
0.224766553321
0.22476650844
0.224766021894
0.224765722028
0.224759799627
0.224728808942
0.224543181419
0.223672662604
0.220207136664
0.207774939451
0.224764629229
0.224764815157
0.224764963061
0.224765055112
0.224765099324
0.224765103746
0.224765078802
0.224765032432
0.224764971025
0.224764904137
0.224764796285
0.224764792756
0.22476433781
0.224763969982
0.224757234012
0.224721659699
0.224514819405
0.22356778551
0.219874854935
0.206875337063
0.224763069658
0.224763174535
0.224763237081
0.224763260973
0.224763262307
0.224763247839
0.22476322189
0.224763186602
0.224763143914
0.224763100329
0.224763021082
0.224763043269
0.224762598578
0.224762117736
0.224754394987
0.224713491945
0.22448271202
0.223451427817
0.219512093882
0.205912667265
0.224761256709
0.224761342918
0.224761382436
0.224761387729
0.224761378733
0.22476136262
0.224761341495
0.224761315887
0.224761286233
0.224761258064
0.224761197906
0.224761234684
0.224760782855
0.224760141255
0.224751223105
0.224704085897
0.224446137415
0.223321709201
0.21911463874
0.204881515559
0.224759320294
0.224759408321
0.224759445183
0.224759447418
0.224759437448
0.224759423658
0.224759407261
0.224759388647
0.224759367629
0.224759349459
0.22475930193
0.224759345365
0.224758871193
0.224758015469
0.224747650863
0.224693203788
0.224404379161
0.223176907041
0.218678842986
0.20377678864
0.224757285329
0.224757381101
0.224757421567
0.224757425197
0.224757416457
0.224757405259
0.224757392353
0.224757378494
0.224757363081
0.224757351293
0.224757311974
0.224757356159
0.224756844844
0.224755711761
0.224743592048
0.224680531857
0.22435647634
0.223014713704
0.218199966383
0.202592714651
0.224755145019
0.224755249501
0.224755295308
0.224755301366
0.224755294064
0.224755284894
0.224755274339
0.224755263636
0.224755251832
0.224755244024
0.224755209814
0.224755250069
0.224754685908
0.224753200025
0.224738957482
0.224665788385
0.224301703109
0.222833561056
0.217674296696
0.201322625542
0.224752883849
0.224752998509
0.224753049998
0.224753058343
0.22475305209
0.224753044183
0.224753035001
0.224753026201
0.224753016525
0.224753010873
0.224752979221
0.224753010913
0.224752374703
0.224750438023
0.224733594419
0.224648385175
0.224238233222
0.222629189893
0.217093760832
0.199958657687
0.224750487326
0.224750613317
0.224750670749
0.224750681181
0.224750675661
0.224750668428
0.224750659954
0.224750652171
0.224750643621
0.224750638832
0.224750607685
0.224750626559
0.224749896573
0.224747400695
0.224727459732
0.224628395949
0.224166881487
0.222404257488
0.21646774411
0.198491919755
0.224747950174
0.22474808824
0.22474815167
0.224748163758
0.224748158463
0.224748151162
0.2247481426
0.224748134768
0.224748126105
0.224748120503
0.224748087034
0.224748086097
0.224747228758
0.224743999187
0.224720122934
0.224603905642
0.224081364457
0.222144144814
0.215782169432
0.196903928757
0.224745206295
0.224745361283
0.224745432103
0.224745446171
0.224745441262
0.224745433799
0.224745425049
0.224745416918
0.224745407969
0.224745401291
0.224745364349
0.224745341346
0.224744333285
0.224740283251
0.224712210145
0.224578588086
0.223994710132
0.22187970201
0.215082444951
0.19518032353
0.22474260179
0.224742761978
0.224742838209
0.224742852227
0.224742845708
0.224742835621
0.224742823885
0.224742811703
0.224742797644
0.224742783128
0.224742732834
0.224742661451
0.224741414653
0.224736066453
0.224701537585
0.224541423658
0.223872175049
0.221535270589
0.214264226345
0.193356671452
0.224738740443
0.224738943834
0.224739034187
0.224739054696
0.224739053383
0.224739047899
0.224739041704
0.22473903559
0.224739028971
0.224739022545
0.224738974825
0.224738893375
0.22473744718
0.224731158691
0.224692016008
0.224515052814
0.223791438451
0.221286555683
0.213544408221
0.191227444332
0.224735519027
0.224735747293
0.224735850214
0.224735875913
0.22473587839
0.224735876649
0.224735875483
0.224735875464
0.224735876767
0.224735878637
0.224735836145
0.224735710544
0.22473395428
0.224725919779
0.224678707038
0.224471157014
0.223654763441
0.220947700316
0.212873590137
0.189585741597
0.18187909187
0.161560508019
0.180563689081
0.159832184088
0.17916595085
0.158017659626
0.177676083671
0.15611345133
0.176085256695
0.154115693594
0.174386397502
0.152020260507
0.172575373272
0.149823154046
0.17065092496
0.147520579731
0.168615497624
0.145109065217
0.166475376606
0.142584572239
0.164224298513
0.139940944648
0.161861966552
0.137171053573
0.15938639546
0.134267200521
0.156794826002
0.131220796411
0.154079134902
0.128021827621
0.151229252971
0.124659264306
0.148236633484
0.121121723025
0.145086440063
0.117397278864
0.141769982518
0.113474566
0.138273553828
0.109342347226
0.134586485551
0.104990053635
0.13069882986
0.100407735856
0.126598129154
0.0955860007637
0.122273414876
0.0905150259145
0.117713736551
0.08518785862
0.112906881424
0.0795913818832
0.107830725124
0.0737282613457
0.102504517772
0.0675667532442
0.0967715232593
0.0611515189299
0.0910240968569
0.0543654913624
0.0848446968038
0.0475608809825
0.0850133793909
0.0427973518028
)
;

boundaryField
{
    inletfuel
    {
        type            fixedValue;
        value           nonuniform 0();
    }
    inletair
    {
        type            fixedValue;
        value           nonuniform 0();
    }
    outlet
    {
        type            zeroGradient;
    }
    axis
    {
        type            empty;
    }
    leftside
    {
        type            zeroGradient;
    }
    burnerwall
    {
        type            zeroGradient;
    }
    front
    {
        type            wedge;
    }
    back
    {
        type            wedge;
    }
    procBoundary1to0
    {
        type            processor;
        value           nonuniform List<scalar> 
27
(
0
0
0
0
0.224619318353
0.22471371491
0.224738363156
0.224735227792
0.224606392923
0.223524643832
0.217624836429
0
0
4.09690179017e-05
0.00108420216248
0.0044744056729
0.0154528880356
0.0557057065413
0.153548683564
0.195472230807
0.212098978388
0.219709237099
0.223077072374
0.224299033027
0.224299033027
0.183105822264
0.163187589777
)
;
    }
}


// ************************************************************************* //
