/*--------------------------------*- C++ -*----------------------------------*\
  =========                 |
  \\      /  F ield         | OpenFOAM: The Open Source CFD Toolbox
   \\    /   O peration     | Website:  https://openfoam.org
    \\  /    A nd           | Version:  7
     \\/     M anipulation  |
\*---------------------------------------------------------------------------*/
FoamFile
{
    version     2.0;
    format      ascii;
    class       volScalarField;
    location    "0.01";
    object      one_over_tauStar;
}
// * * * * * * * * * * * * * * * * * * * * * * * * * * * * * * * * * * * * * //

dimensions      [0 0 -1 0 0 0 0];

internalField   nonuniform List<scalar> 
815
(
483.233554223
486.431142107
491.921286018
450.12994285
452.8699029
457.771490982
422.878068277
425.19954914
429.426538984
396.680768331
398.513190103
401.714613718
366.044528803
367.422700389
369.430431301
326.266063125
327.078621922
327.798729694
266.236287576
265.914877785
265.03232809
180.190624337
179.231183114
177.337269429
110.451254776
109.864215421
108.762242433
79.7938641335
79.5859075372
79.2081966556
69.908668435
69.8489883182
69.7434705161
67.2008412694
67.1868765895
67.1623226616
66.6090462697
66.6073192972
66.6034818362
66.5590167326
66.5594862077
66.5593028654
66.6134053474
66.6138224945
66.6135869043
66.6716378632
66.6716583911
66.6707625151
66.7197399614
66.7191993838
66.7173841802
66.7587070058
66.7578591188
66.755458302
66.7929041108
66.7918547031
66.7890062174
66.8255601919
66.8242650205
66.8209202397
66.855382029
66.8544200837
66.8514804787
66.8871155553
66.8862600024
66.8833552214
66.9206517816
66.9198686939
66.9170830014
66.9564897095
66.9558638022
66.9532639498
66.9979544906
66.9969566571
66.9936804333
67.0419702895
67.0407928152
67.0371751062
67.0888257684
67.0874922628
67.0836173362
67.144997325
67.1431725935
67.138797443
67.1673653364
67.167154453
67.1646875079
67.3378968387
67.3309926011
67.3231117572
67.3236411888
67.3220191498
67.3177269342
497.195937832
462.880258971
434.058947324
405.188870219
371.380793051
328.146626827
263.168813179
174.264668859
107.057439198
78.6291678629
69.5811312668
67.1240130492
66.5974791023
66.5598359901
66.6146065638
66.6712110218
66.7170935536
66.7546947042
66.7878908335
66.819427687
66.8502313714
66.8821486408
66.915994971
66.9523699155
66.9923829213
67.0356834335
67.0819964304
67.1367945593
67.1643727767
67.3188762618
67.3155283962
67.2608707649
67.1246175303
66.9491860813
66.9043595001
66.8471392203
67.2600278751
72.593337565
503.891131814
498.286139338
475.584917552
439.435040904
393.379021957
336.785891837
269.028881414
185.575498262
105.512020662
75.512405018
68.9300233486
67.7872443615
67.5388004847
67.2817290341
67.1351833925
66.9571045381
66.9111178654
66.8579521812
67.325530824
73.1882059884
470.416921102
469.945471665
455.163926107
425.656125971
381.333480919
325.446369158
257.32322349
167.187045165
97.1362157767
73.7751111959
68.7338070913
67.801547251
67.5422860343
67.270694046
67.1254991649
66.9519778245
66.9091206911
66.8646445489
67.3999007519
73.8767868114
441.40609653
442.52579062
429.992867059
400.854701653
357.345503411
299.480875128
225.032271068
136.757590997
86.6532818458
71.6788068738
68.4188553372
67.7377197885
67.4896314342
67.2219395062
67.091567379
66.9315972088
66.8966568922
66.8664944965
67.4856176846
74.6818483269
410.590251105
409.222518186
394.575216287
364.999228904
319.451772148
257.401135229
174.404850017
106.570871485
77.907913987
69.8853097748
68.0712815986
67.6025514783
67.3811515414
67.1391699735
67.0351070715
66.8967717611
66.8740259784
66.8643288578
67.5869484721
75.6253946206
374.040387162
369.221559064
351.032303349
317.061293107
264.385863699
191.561805831
122.931276853
85.6184763431
72.3206398129
68.6201112711
67.725002214
67.407191697
67.2303048574
67.0327634228
66.9628470101
66.8510489592
66.8436671819
66.8602448739
67.7094657051
76.7295412247
327.192901418
316.094545945
290.596807485
246.142837447
185.079150793
126.577467503
90.2979383237
74.6143683413
69.3180434075
67.8059355772
67.3956750274
67.1825723652
67.0632584605
66.9187805789
66.884857766
66.799806093
66.8095214108
66.8571546551
67.8598860393
78.0135253275
256.446692297
236.820108735
202.710428706
158.267439361
116.843467602
89.1388792007
75.2720344948
69.6983928335
67.8310199377
67.2768703023
67.1002884186
66.9681700266
66.9071653446
66.8132032229
66.8112154663
66.7494554993
66.7760023955
66.8589919797
68.0444048805
79.491623029
165.358109325
147.08990903
123.39205908
100.366355085
83.5917079083
73.9590221943
69.4449147099
67.68210792
67.1076510359
66.9285034067
66.8654699927
66.7961306552
66.7817885287
66.7279735628
66.7496061102
66.7063304453
66.746515558
66.8697796271
68.265010327
81.1724305269
102.464873022
94.1343853592
84.821999903
76.8617122855
71.5453388665
68.6541515817
67.3601543206
66.8876508144
66.7532408662
66.7124293681
66.7066997646
66.6801611138
66.6954020195
66.6689476991
66.7043780574
66.6743465184
66.7237977666
66.8923663352
68.5226627252
83.0662763543
77.1110875443
74.4064100391
71.5424999049
69.2159936868
67.7360611808
66.9819531639
66.6811701318
66.597483383
66.5947474864
66.6011000365
66.6204605
66.6182298789
66.6468621388
66.6357271358
66.676641751
66.6549115994
66.710804493
66.9282905586
68.8306154461
85.2067047584
69.1620882544
68.4066893347
67.6351104778
67.0398487443
66.6916379725
66.5424602705
66.5079706905
66.5201126441
66.5461651048
66.5647246058
66.5901685936
66.5976429974
66.6286698421
66.6240386253
66.6650944041
66.6471800583
66.7085094367
66.9783528251
69.1924390268
87.5937389786
67.0257451044
66.844692952
66.6691594184
66.5477983442
66.4931691177
66.4875054236
66.5059588006
66.5302996104
66.5547474029
66.5722386613
66.5948161613
66.6034802394
66.6316463743
66.627744021
66.6666495549
66.6491587907
66.7161557456
67.0428636747
69.6100527678
90.2280253851
66.5814149166
66.549596036
66.5227340732
66.5118958285
66.5174638328
66.5332712366
66.5524237931
66.5704679477
66.5873072312
66.6000572965
66.6172730614
66.6233203044
66.6473167927
66.6412209211
66.6775040371
66.6585679107
66.7322560998
67.1220146035
70.0870352581
93.1188425479
66.5605655041
66.5604919289
66.5628966731
66.5700568698
66.5807803133
66.5930362263
66.6050144947
66.6158172155
66.6261168183
66.6342479171
66.6465907821
66.6492244619
66.6694548168
66.660320956
66.6943546927
66.6733784304
66.7553369416
67.216166739
70.6287476775
96.2816731332
66.616839029
66.6205186369
66.6252873975
66.6315926826
66.6384937794
66.6453850093
66.6518383609
66.657792037
66.663785956
66.668544623
66.6772937695
66.677031121
66.6944089042
66.6824239828
66.7148910638
66.6920468081
66.7842804921
67.3259652354
71.2418703047
99.7351109241
66.6723744778
66.6748207376
66.6777785401
66.6813636629
66.6849607568
66.6884463909
66.6917446055
66.6949406457
66.6983842172
66.7009717324
66.7073174733
66.7049681396
66.720406957
66.7060864129
66.7377295871
66.7135763196
66.818527978
67.4529310354
71.9367546901
103.506037108
66.7170497999
66.7181215816
66.7195527645
66.7213544092
66.7230970693
66.7248083797
66.7264847579
66.7282062409
66.7302002153
66.7314731268
66.7362883433
66.7325488366
66.7467868511
66.7306396811
66.7621325007
66.7373872338
66.8578871729
67.5988510721
72.7223812831
107.61633588
66.7538779598
66.7541040865
66.7546786815
66.7555511928
66.7563781854
66.7572217936
66.7580856819
66.7590245364
66.7601971292
66.7606940464
66.7645519079
66.7599160444
66.7734914458
66.7559105599
66.7878277758
66.7632807534
66.902670167
67.7664440943
73.6115267769
112.094796087
66.7865533223
66.7863101913
66.7864673065
66.786898287
66.7872970345
66.7877210381
66.7881749839
66.7886917545
66.7893929591
66.7894364483
66.7926945738
66.7874815483
66.8007666469
66.7820177397
66.8148364797
66.7913303577
66.9535204524
67.9588567939
74.6154961605
116.964673295
66.8176063862
66.8170816981
66.817054929
66.817285571
66.8174906742
66.8177089932
66.8179537755
66.8182384194
66.8186663104
66.8184482431
66.8213276512
66.8157344855
66.8289866222
66.8092351341
66.8433687446
66.8218299748
67.0114018469
68.1796335412
75.7453795411
122.249856341
66.8485485546
66.8479455739
66.8478195827
66.8479463302
66.8480579104
66.8481653437
66.8482986183
66.8484513727
66.8487205352
66.8483573287
66.8509998076
66.8451478598
66.8585584611
66.8379075765
66.8737581833
66.8552713635
67.07766412
68.4331410173
77.0133375931
127.978169812
66.8804967004
66.8798400749
66.8796657252
66.8797514732
66.8798294554
66.8798824824
66.8799628185
66.8800447742
66.8802262683
66.8797907382
66.8822891111
66.8762458394
66.8899572854
66.8684553806
66.9064119132
66.8922485691
67.1537277405
68.7232750269
78.4264961811
134.177215392
66.9144245484
66.9137437057
66.9135349308
66.913602483
66.9136689009
66.9136931753
66.9137486026
66.9137923564
66.9139253762
66.913458863
66.9158716634
66.9096661765
66.9237885459
66.9014511881
66.9419374611
66.9336554428
67.2416387207
69.0554998063
79.9959643751
140.888326908
66.9509788997
66.9503103318
66.950067715
66.9501290677
66.9501944613
66.9502068949
66.9502543517
66.9502822889
66.9503922965
66.9499221905
66.9522919553
66.9459296985
66.9605491845
66.937359203
66.9807935919
66.9802331036
67.342848394
69.4325321774
81.7225256338
148.163013884
66.9906390001
66.9898902273
66.989636547
66.989718075
66.9897996025
66.9898232221
66.9898828831
66.989920885
66.990035261
66.989592524
66.9919675109
66.9854674222
67.0007043526
66.9767031589
67.0237436793
67.0333830614
67.4612414581
69.8657802759
83.6355765397
156.09596129
67.0337015301
67.0328938526
67.0326194693
67.0327125567
67.0328002996
67.0328323403
67.0328992163
67.0329470193
67.0330641831
67.032647534
67.0350413888
67.028356099
67.0442453344
67.0193465463
67.0703390915
67.0927608141
67.5943128157
70.3429911933
85.6969395596
164.760435219
67.0798392896
67.0790117593
67.0787314827
67.0788569683
67.0789692894
67.0790328447
67.0791286668
67.0792153469
67.079368912
67.0790208775
67.0815065964
67.0747133449
67.0915077258
67.0660081179
67.1224160103
67.1626082479
67.7567078297
70.9151274083
88.1128564786
174.517449676
67.1339171444
67.1327504468
67.1323889205
67.1324977588
67.1325842948
67.1326362406
67.1327129965
67.1327868481
67.1329080635
67.1325325604
67.1350290473
67.1277735138
67.1451882253
67.1183134379
67.1788645187
67.2375143577
67.9190365864
71.4701101012
90.4628253469
185.431762959
67.1638102096
67.1635724102
67.1632567049
67.1635235174
67.1637427623
67.1639568691
67.1642085947
67.1645226789
67.1649462665
67.1650207135
67.1680695103
67.161663152
67.1809089676
67.1558853939
67.2262887492
67.3208417592
68.1513956508
72.2847398538
93.7206091569
197.189021281
67.3116460738
67.3082514515
67.3074414138
67.3071657076
67.3067696597
67.3063262394
67.3057852136
67.305158492
67.3044192008
67.302959935
67.3047414631
67.2945814361
67.3135239245
67.2813805828
67.3559792028
67.4649273893
68.371742774
72.8441193483
96.0012105746
213.276571328
67.3116301078
67.3094630692
67.308756505
67.308559528
67.3082152823
67.3077760618
67.3071839375
67.3064515352
67.3055269115
67.3038916778
67.3050222293
67.2951995674
67.3130276668
67.2832204978
67.3651868725
67.5264225339
68.622007753
73.6768097871
98.3480188078
219.445674207
182.642348845
367.095605669
190.91293062
382.33372192
199.997070656
398.687172341
210.035849881
416.167273997
221.144607017
434.769682
233.403564445
454.469936631
246.839594462
475.223408251
261.428611571
496.981358441
277.088054674
519.690881042
293.678057142
543.342741106
311.301493423
567.949993682
329.834951962
593.50288524
349.210998758
620.028488904
369.375032386
647.587365727
390.368639682
676.271065927
412.228930446
706.162409627
434.935176202
737.359049629
458.578811672
769.951543281
483.090250916
804.012266842
508.513911966
839.625372044
534.807119431
876.838951812
561.92858094
915.719993825
589.88864327
956.305262123
618.682475421
998.679548184
648.329240163
1042.74966662
678.891857825
1088.87627554
710.733404192
1136.12325168
743.309725191
1186.65867708
779.606502873
1234.80831893
811.607346239
1294.06766361
851.284608116
1333.41242545
875.488246496
1423.29304892
)
;

boundaryField
{
    inletfuel
    {
        type            calculated;
        value           nonuniform 0();
    }
    inletair
    {
        type            calculated;
        value           nonuniform 0();
    }
    outlet
    {
        type            calculated;
        value           nonuniform List<scalar> 
26
(
67.3236411888
67.3220191498
67.3177269342
67.3155283962
67.3116301078
67.3094630692
67.308756505
67.308559528
67.3082152823
67.3077760618
67.3071839375
67.3064515352
67.3055269115
67.3038916778
67.3050222293
67.2951995674
67.3130276668
67.2832204978
67.3651868725
67.5264225339
68.622007753
73.6768097871
98.3480188078
219.445674207
875.488246496
1423.29304892
)
;
    }
    axis
    {
        type            empty;
    }
    leftside
    {
        type            calculated;
        value           nonuniform List<scalar> 
32
(
367.095605669
382.33372192
398.687172341
416.167273997
434.769682
454.469936631
475.223408251
496.981358441
519.690881042
543.342741106
567.949993682
593.50288524
620.028488904
647.587365727
676.271065927
706.162409627
737.359049629
769.951543281
804.012266842
839.625372044
876.838951812
915.719993825
956.305262123
998.679548184
1042.74966662
1088.87627554
1136.12325168
1186.65867708
1234.80831893
1294.06766361
1333.41242545
1423.29304892
)
;
    }
    burnerwall
    {
        type            calculated;
        value           nonuniform 0();
    }
    front
    {
        type            wedge;
    }
    back
    {
        type            wedge;
    }
    procBoundary1to0
    {
        type            processor;
        value           nonuniform List<scalar> 
27
(
521.913763622
525.699201072
531.96638463
537.478092206
67.2021070262
67.0817762445
66.9147440347
66.8744707962
66.816536947
67.1847546262
72.0526356652
543.177835495
530.542936383
495.901398824
447.281460923
394.255001251
336.477066922
267.674451365
189.532132846
108.798491389
76.2573945762
68.9297006538
67.6890603784
67.4773885556
67.4773885556
175.038188565
352.829144809
)
;
    }
}


// ************************************************************************* //
