/*--------------------------------*- C++ -*----------------------------------*\
  =========                 |
  \\      /  F ield         | OpenFOAM: The Open Source CFD Toolbox
   \\    /   O peration     | Website:  https://openfoam.org
    \\  /    A nd           | Version:  7
     \\/     M anipulation  |
\*---------------------------------------------------------------------------*/
FoamFile
{
    version     2.0;
    format      ascii;
    class       volScalarField;
    location    "0.01";
    object      p;
}
// * * * * * * * * * * * * * * * * * * * * * * * * * * * * * * * * * * * * * //

dimensions      [1 -1 -2 0 0 0 0];

internalField   nonuniform List<scalar> 
815
(
100833.743146
100833.729456
100833.723367
100840.304487
100840.282151
100840.275472
100847.740223
100847.716005
100847.7144
100855.765248
100855.746656
100855.744068
100864.195121
100864.188152
100864.185773
100875.398179
100875.415785
100875.449808
100889.195448
100889.210702
100889.263377
100909.95554
100909.984753
100910.062635
100931.630546
100931.657594
100931.727778
100954.211221
100954.222643
100954.25669
100974.691932
100974.697986
100974.717529
100993.53157
100993.532869
100993.539896
101009.861105
101009.859397
101009.860705
101023.10914
101023.107953
101023.105709
101032.963899
101032.962345
101032.958657
101038.866547
101038.865319
101038.861454
101040.359577
101040.359219
101040.355839
101037.810691
101037.810461
101037.807324
101032.24467
101032.244686
101032.241967
101024.687828
101024.688251
101024.686085
101015.628884
101015.629157
101015.627885
101006.463917
101006.465591
101006.466858
101000.312106
101000.314513
101000.317382
101000.006624
101000.009676
101000.014087
101008.1587
101008.163146
101008.169399
101027.137638
101027.141503
101027.146712
101057.652587
101057.656858
101057.662611
101100.200146
101100.20473
101100.209749
101155.338845
101155.339743
101155.341943
101220.364938
101220.373983
101220.378126
101307.552008
101307.547933
101307.544107
100833.714672
100840.26605
100847.712726
100855.740798
100864.180717
100875.507152
100889.338091
100910.166623
100931.82149
100954.301873
100974.743413
100993.549071
101009.861654
101023.102568
101032.953647
101038.8562
101040.351342
101037.803254
101032.238473
101024.683402
101015.626365
101006.468748
101000.321613
101000.020506
101008.178339
101027.154396
101057.671102
101100.21752
101155.345533
101220.385049
101307.539977
100830.617104
100831.205751
100831.574729
100832.384188
100832.901739
100833.862671
100834.305709
100833.692458
100833.657011
100833.615468
100833.578272
100833.543637
100833.54348
100833.549574
100833.759591
100834.039748
100834.626053
100835.458915
100836.2656
100837.19671
100837.935324
100838.749183
100839.382049
100840.376487
100841.056469
100842.171926
100842.650085
100840.243826
100840.20483
100840.159871
100840.104669
100840.065594
100840.083944
100840.202239
100840.477536
100841.017904
100841.812319
100842.921193
100844.036497
100845.146006
100846.156643
100847.231457
100848.142478
100849.341603
100850.142737
100851.396325
100851.77822
100847.706913
100847.682821
100847.658325
100847.622533
100847.676343
100847.720886
100847.856653
100848.324897
100849.141148
100850.352658
100851.660931
100853.080097
100854.442035
100855.708135
100856.995427
100858.083252
100859.438193
100860.303667
100861.677104
100861.994579
100855.73187
100855.687043
100855.625441
100855.612512
100855.601137
100855.68243
100856.266633
100857.108128
100858.591946
100860.218046
100862.064702
100863.789926
100865.420273
100866.871528
100868.282947
100869.417436
100870.862883
100871.681983
100873.084701
100873.323863
100864.162268
100864.173095
100864.088279
100864.344989
100864.555466
100865.326681
100866.506319
100867.982683
100870.198703
100872.210115
100874.413264
100876.379908
100878.182581
100879.701733
100881.129072
100882.157302
100883.666683
100884.295026
100885.619448
100885.74082
100875.682087
100875.671775
100875.844057
100876.398628
100877.303742
100878.577812
100880.374596
100882.440787
100884.63765
100886.840814
100888.944538
100890.840108
100892.574091
100894.003838
100895.35746
100896.279059
100897.447679
100897.950069
100899.200521
100899.199794
100889.526434
100890.023104
100890.766771
100891.886703
100893.30989
100894.871993
100896.91998
100898.974187
100901.082256
100903.122222
100905.006484
100906.681864
100908.191393
100909.417971
100910.661559
100911.216825
100912.257812
100912.601605
100913.682167
100913.587568
100910.41576
100910.961829
100911.745005
100912.805645
100914.029949
100915.352286
100916.763715
100918.253602
100919.722489
100921.152539
100922.525373
100923.758492
100924.905452
100925.789641
100926.70649
100927.227132
100927.995799
100928.140589
100928.901096
100928.706253
100932.038534
100932.523919
100933.193197
100933.945843
100934.793738
100935.765552
100936.779427
100937.817851
100938.834055
100939.806324
100940.738968
100941.563812
100942.369176
100942.913296
100943.53147
100943.855724
100944.384763
100944.2612
100944.710511
100944.213689
100954.404933
100954.628327
100954.942552
100955.336986
100955.795697
100956.300565
100956.83351
100957.382701
100957.942551
100958.484518
100959.028422
100959.49144
100959.964255
100960.296038
100960.654373
100960.73982
100961.010556
100960.558908
100960.742413
100959.877067
100974.80175
100974.923598
100975.084678
100975.280744
100975.503352
100975.743544
100975.99608
100976.253772
100976.517169
100976.757024
100977.006408
100977.198132
100977.392677
100977.481391
100977.590371
100977.409423
100977.425549
100976.656342
100976.579844
100975.374939
100993.569649
100993.612312
100993.668713
100993.736586
100993.8098
100993.885432
100993.959068
100994.024265
100994.076143
100994.101047
100994.106314
100994.060493
100993.99958
100993.828596
100993.676449
100993.218838
100992.995497
100991.939323
100991.61856
100990.107746
101009.863484
101009.867281
101009.868894
101009.866841
101009.857471
101009.836304
101009.797317
101009.733565
101009.639881
101009.507969
101009.340095
101009.109386
101008.847426
101008.460979
101008.088073
101007.386269
101006.94814
101005.627066
101005.088174
101003.328921
101023.095249
101023.080053
101023.055638
101023.018921
101022.965623
101022.890545
101022.787648
101022.650755
101022.474357
101022.249744
101021.975495
101021.625466
101021.227115
101020.686052
101020.146752
101019.244835
101018.622858
101017.061932
101016.334796
101014.386269
101032.942502
101032.919007
101032.882891
101032.830518
101032.757215
101032.657626
101032.525872
101032.355083
101032.137593
101031.862979
101031.52573
101031.098789
101030.605162
101029.947843
101029.279084
101028.213749
101027.446817
101025.693133
101024.835156
101022.768284
101038.844485
101038.818646
101038.778837
101038.721521
101038.642358
101038.536202
101038.396812
101038.216627
101037.986774
101037.695765
101037.335303
101036.877434
101036.341988
101035.628339
101034.897846
101033.744381
101032.91717
101031.06705
101030.187448
101028.107774
101040.341003
101040.31712
101040.280195
101040.227174
101040.154195
101040.056544
101039.92848
101039.763014
101039.551789
101039.284066
101038.951341
101038.526639
101038.029453
101037.355712
101036.676982
101035.562371
101034.811892
101033.004303
101032.235457
101030.255106
101037.794079
101037.773184
101037.741198
101037.695494
101037.632857
101037.549373
101037.44038
101037.300248
101037.122314
101036.898076
101036.62115
101036.267896
101035.861291
101035.296165
101034.758895
101033.793001
101033.251112
101031.629102
101031.11417
101029.351971
101032.230562
101032.212452
101032.184822
101032.145466
101032.091816
101032.020756
101031.928754
101031.811638
101031.664721
101031.482158
101031.260665
101030.981018
101030.672285
101030.230196
101029.861885
101029.087283
101028.82078
101027.470891
101027.307693
101025.855303
101024.677203
101024.662771
101024.640821
101024.609634
101024.56737
101024.511745
101024.440394
101024.35058
101024.239553
101024.104
101023.943754
101023.743859
101023.540243
101023.229383
101023.042828
101022.475822
101022.513655
101021.472461
101021.706942
101020.609757
101015.623531
101015.617967
101015.610045
101015.599085
101015.584598
101015.56585
101015.542346
101015.513472
101015.47896
101015.438362
101015.394691
101015.336731
101015.306854
101015.199885
101015.272677
101014.989828
101015.413311
101014.756577
101015.458209
101014.774122
101006.473195
101006.482872
101006.497521
101006.518279
101006.546711
101006.584428
101006.633606
101006.696661
101006.776724
101006.877132
101007.004871
101007.152862
101007.370659
101007.549881
101007.975327
101008.073553
101008.989498
101008.819413
101010.073157
101009.865693
101000.331476
101000.35372
101000.387657
101000.436004
101000.50218
101000.590059
101000.704454
101000.850907
101001.036156
101001.267798
101001.557637
101001.903792
101002.365063
101002.829737
101003.615483
101004.10395
101005.532944
101005.86777
101007.675758
101007.937753
101000.0354
101000.069269
101000.120925
101000.194441
101000.294686
101000.427291
101000.599009
101000.817735
101001.092962
101001.43567
101001.861578
101002.372906
101003.037343
101003.737044
101004.825717
101005.630372
101007.490205
101008.24045
101010.47983
101011.128197
101008.198176
101008.241745
101008.307356
101008.40012
101008.525879
101008.69141
101008.904633
101009.174835
101009.513066
101009.932319
101010.450715
101011.072858
101011.874449
101012.729264
101014.031602
101015.050954
101017.243703
101018.337069
101020.862928
101021.836016
101027.171813
101027.211319
101027.271779
101027.358416
101027.477493
101027.63665
101027.845028
101028.113508
101028.454806
101028.883534
101029.418993
101030.065699
101030.904851
101031.793247
101033.163399
101034.200794
101036.433228
101037.70789
101039.759738
101041.227502
101057.69021
101057.733279
101057.798752
101057.891876
101058.018729
101058.186553
101058.403831
101058.680656
101059.028958
101059.462941
101060.002046
101060.650709
101061.497159
101062.386022
101063.790505
101064.857814
101067.18538
101068.696518
101070.661203
101072.274498
101100.23497
101100.273476
101100.331489
101100.413987
101100.526277
101100.675133
101100.868139
101101.11467
101101.425403
101101.813151
101102.295136
101102.870477
101103.629585
101104.380664
101105.624881
101106.40954
101108.200943
101109.349261
101110.677251
101111.956853
101155.353814
101155.380943
101155.425155
101155.490672
101155.582092
101155.705597
101155.868236
101156.079081
101156.348882
101156.691264
101157.125647
101157.655132
101158.382048
101159.133172
101160.440388
101161.427268
101163.59396
101165.22924
101166.854924
101168.230225
101220.401524
101220.421987
101220.446672
101220.477327
101220.515249
101220.561937
101220.618727
101220.68692
101220.767306
101220.859957
101220.96743
101221.061668
101221.231634
101221.199021
101221.492964
101221.091867
101221.292648
101220.683897
101220.488342
101220.377794
101307.530854
101307.526162
101307.526918
101307.533429
101307.546863
101307.568939
101307.601992
101307.649016
101307.713977
101307.801858
101307.92259
101308.061874
101308.320518
101308.484991
101309.074358
101309.239608
101309.952199
101311.183571
101310.960003
101311.365831
100834.559429
100834.553938
100842.94354
100842.938697
100852.157406
100852.15247
100862.389237
100862.380947
100873.703618
100873.69057
100886.091438
100886.073189
100899.507692
100899.483616
100913.839581
100913.809298
100928.883478
100928.84635
100944.343924
100944.300647
100959.957751
100959.90699
100975.384478
100975.325051
100990.04645
100989.977686
101003.218011
101003.14205
101014.246921
101014.166502
101022.618634
101022.536176
101027.973863
101027.891469
101030.155583
101030.076893
101029.312368
101029.238857
101025.89133
101025.825549
101020.730797
101020.673314
101014.99064
101014.941558
101010.182985
101010.144048
101008.352604
101008.321855
101011.614885
101011.59127
101022.372919
101022.351915
101041.761537
101041.74732
101072.800745
101072.779882
101112.386533
101112.37524
101168.587228
101168.549047
101220.744492
101220.675374
101310.578237
101310.609533
)
;

boundaryField
{
    inletfuel
    {
        type            zeroGradient;
    }
    inletair
    {
        type            zeroGradient;
    }
    outlet
    {
        type            fixedValue;
        value           uniform 101325;
    }
    axis
    {
        type            empty;
    }
    leftside
    {
        type            zeroGradient;
    }
    burnerwall
    {
        type            zeroGradient;
    }
    front
    {
        type            wedge;
    }
    back
    {
        type            wedge;
    }
    procBoundary1to0
    {
        type            processor;
        value           nonuniform List<scalar> 
27
(
100827.978951
100827.968366
100827.962165
100827.952592
100823.901724
100824.383996
100824.609813
100825.315749
100825.641257
100826.376495
100826.693488
100827.929926
100827.895086
100827.857312
100827.825421
100827.798046
100827.777528
100827.821484
100827.806426
100828.0669
100828.282406
100828.940446
100829.393493
100830.14675
100830.14675
100826.908769
100826.902135
)
;
    }
}


// ************************************************************************* //
