/*--------------------------------*- C++ -*----------------------------------*\
  =========                 |
  \\      /  F ield         | OpenFOAM: The Open Source CFD Toolbox
   \\    /   O peration     | Website:  https://openfoam.org
    \\  /    A nd           | Version:  7
     \\/     M anipulation  |
\*---------------------------------------------------------------------------*/
FoamFile
{
    version     2.0;
    format      ascii;
    class       volScalarField;
    location    "0.01";
    object      PaSR<psiReactionThermo>:kappa;
}
// * * * * * * * * * * * * * * * * * * * * * * * * * * * * * * * * * * * * * //

dimensions      [0 0 0 0 0 0 0];

internalField   nonuniform List<scalar> 
815
(
3.22541824913e-12
3.2467375632e-12
3.28314757884e-12
3.00886229383e-12
3.02701537008e-12
3.05936272284e-12
2.80755615799e-12
2.82218158199e-12
2.84856627985e-12
2.55882765428e-12
2.56895099427e-12
2.58538322459e-12
2.18975383155e-12
2.19477419905e-12
2.19886684854e-12
1.71612359906e-12
1.71812878622e-12
1.71632060731e-12
1.36032772028e-12
1.36024182145e-12
1.35933394929e-12
1.03347268556e-12
1.03079164229e-12
1.0257274613e-12
7.22426787692e-13
7.1971574456e-13
7.14750326312e-13
5.5319066201e-13
5.52060284165e-13
5.50057877121e-13
4.94226347279e-13
4.93903206151e-13
4.93353827165e-13
4.78342859302e-13
4.78279802155e-13
4.78178137068e-13
4.75358415531e-13
4.75360427884e-13
4.75362052018e-13
4.75490820355e-13
4.75499751372e-13
4.75510086153e-13
4.76080581048e-13
4.76085898279e-13
4.76088846856e-13
4.76583413788e-13
4.76584063239e-13
4.76579384612e-13
4.7696650646e-13
4.76962718009e-13
4.7695025154e-13
4.77265432487e-13
4.77259237027e-13
4.77242104139e-13
4.77522549578e-13
4.77514948682e-13
4.77494434991e-13
4.77765935318e-13
4.77756582441e-13
4.77732431067e-13
4.77987150637e-13
4.77980561094e-13
4.77959467228e-13
4.78223681868e-13
4.78217207037e-13
4.78196314965e-13
4.78472195089e-13
4.78466714611e-13
4.78446781992e-13
4.78739951083e-13
4.78734935824e-13
4.78716296885e-13
4.79048711291e-13
4.79041252371e-13
4.79017694121e-13
4.79377672247e-13
4.7936893601e-13
4.79342919779e-13
4.79728450261e-13
4.79718778163e-13
4.79690943928e-13
4.80149573035e-13
4.80136426463e-13
4.80104954031e-13
4.80320205123e-13
4.8031925979e-13
4.80301870783e-13
4.81594310647e-13
4.81543664024e-13
4.81486310139e-13
4.81496490724e-13
4.81485420722e-13
4.81454690895e-13
3.3175518257e-12
3.09251987036e-12
2.87653802558e-12
2.60135117328e-12
2.19883496689e-12
1.71167167431e-12
1.35605769537e-12
1.01664178418e-12
7.06760569182e-13
5.46900191491e-13
4.92476131025e-13
4.78004339985e-13
4.75358022311e-13
4.75529401251e-13
4.76102339804e-13
4.76584925098e-13
4.76948989091e-13
4.77236855182e-13
4.77486456031e-13
4.77721654222e-13
4.77950577811e-13
4.78187587383e-13
4.78439055311e-13
4.78709834169e-13
4.79008334408e-13
4.79332159442e-13
4.79679301527e-13
4.80090540662e-13
4.80300039692e-13
4.81455237743e-13
4.81439044378e-13
4.80919874305e-13
4.79975964048e-13
4.78677046781e-13
4.78318831769e-13
4.77617695662e-13
4.78485050502e-13
5.03408841118e-13
3.35929124148e-12
3.31003932198e-12
3.13298782501e-12
2.84552367989e-12
2.4574401765e-12
1.93776033582e-12
1.3733290442e-12
1.00237515138e-12
6.70100579779e-13
5.19551661311e-13
4.86897635305e-13
4.8312164323e-13
4.82674294733e-13
4.81096963567e-13
4.80057265035e-13
4.78736117855e-13
4.78366334489e-13
4.77672423404e-13
4.78819811935e-13
5.06958940235e-13
3.13957034075e-12
3.12322306577e-12
2.99431594632e-12
2.73911937061e-12
2.33816400128e-12
1.79683303307e-12
1.3253005119e-12
9.47642070538e-13
6.35741506088e-13
5.12535314472e-13
4.87078407447e-13
4.83707800812e-13
4.82816679449e-13
4.81034749071e-13
4.79987534273e-13
4.78698051249e-13
4.78347783397e-13
4.77689453115e-13
4.79195396438e-13
5.11100050631e-13
2.91785090098e-12
2.90240015704e-12
2.77226053657e-12
2.49296280391e-12
2.06527628843e-12
1.56982897114e-12
1.19545560649e-12
8.30684377328e-13
5.84819363105e-13
5.02755042525e-13
4.86321844691e-13
4.83678556145e-13
4.82526687226e-13
4.80688097798e-13
4.79736744007e-13
4.78546252658e-13
4.78249926245e-13
4.77661305204e-13
4.79624843317e-13
5.15982848357e-13
2.61978176947e-12
2.56726759243e-12
2.39402510537e-12
2.08400162592e-12
1.69154996122e-12
1.34954673627e-12
1.00361365227e-12
6.93503109755e-13
5.38653709327e-13
4.93953917368e-13
4.8503530997e-13
4.83029614889e-13
4.8179651796e-13
4.80083387611e-13
4.79317567966e-13
4.78286639917e-13
4.78074365089e-13
4.77592330401e-13
4.80134959957e-13
5.21748302882e-13
2.18633573275e-12
2.09198698742e-12
1.89709249198e-12
1.65669791783e-12
1.39090487743e-12
1.08757847668e-12
7.81128843461e-13
5.84045591165e-13
5.0803325164e-13
4.87590855625e-13
4.83375798014e-13
4.8182141168e-13
4.8072382441e-13
4.79298076343e-13
4.78780215843e-13
4.77945599693e-13
4.77838501405e-13
4.77497138741e-13
4.80763402749e-13
5.285383865e-13
1.69724185687e-12
1.62802998436e-12
1.50377936326e-12
1.31960656397e-12
1.07196555404e-12
8.05263864959e-13
6.12661995778e-13
5.22002221794e-13
4.9135904457e-13
4.83336166353e-13
4.81482856474e-13
4.80294103383e-13
4.79508048784e-13
4.78452990256e-13
4.78199909135e-13
4.77563095804e-13
4.77570842047e-13
4.77397429753e-13
4.81557805899e-13
5.36477027021e-13
1.34103569742e-12
1.27473793058e-12
1.14800015249e-12
9.61560658025e-13
7.60335343377e-13
6.08053610026e-13
5.26576123218e-13
4.93536033648e-13
4.83067943065e-13
4.80355030819e-13
4.79579821694e-13
4.78771407476e-13
4.78359252601e-13
4.77668606772e-13
4.77651887225e-13
4.77186500621e-13
4.77304260879e-13
4.77322962984e-13
4.82564210901e-13
5.45656146093e-13
9.86245993368e-13
9.09298653489e-13
7.96126222335e-13
6.73584382074e-13
5.77031116369e-13
5.19216206425e-13
4.92043125242e-13
4.81886399113e-13
4.78965096296e-13
4.78216651387e-13
4.7796931766e-13
4.77523207662e-13
4.774315779e-13
4.77034982309e-13
4.77193468561e-13
4.76862971295e-13
4.77064483376e-13
4.7730405945e-13
4.83801429864e-13
5.56133678882e-13
6.83756146184e-13
6.38365572814e-13
5.8484789103e-13
5.37231321097e-13
5.04813735252e-13
4.8729195055e-13
4.79786680125e-13
4.77356301405e-13
4.76879067952e-13
4.76803172448e-13
4.76844513938e-13
4.76672954032e-13
4.76791029721e-13
4.76596322265e-13
4.76857098045e-13
4.76621727319e-13
4.76872390201e-13
4.77363247291e-13
4.85281291434e-13
5.67988166034e-13
5.38262482648e-13
5.22191862941e-13
5.04841943041e-13
4.90660600135e-13
4.81767971438e-13
4.77459586626e-13
4.75968637151e-13
4.75745372066e-13
4.75919729696e-13
4.76050737884e-13
4.76224416503e-13
4.76217098597e-13
4.76431219173e-13
4.76349863824e-13
4.76651016893e-13
4.76473358189e-13
4.76750240436e-13
4.77512590347e-13
4.87091387848e-13
5.81434639233e-13
4.90104026729e-13
4.8566666167e-13
4.81117381545e-13
4.77674706053e-13
4.7578763482e-13
4.75130599253e-13
4.75141806985e-13
4.7537689476e-13
4.75640566922e-13
4.75808063851e-13
4.76007247834e-13
4.76066291568e-13
4.76297132849e-13
4.76263840664e-13
4.76565468479e-13
4.76411645882e-13
4.76705524092e-13
4.77758562932e-13
4.89256815326e-13
5.96462373961e-13
4.77518099752e-13
4.7656838418e-13
4.75665643754e-13
4.75102023847e-13
4.7494276e-13
4.75062231588e-13
4.75295469595e-13
4.75527980547e-13
4.75734148916e-13
4.75874324159e-13
4.76045484007e-13
4.76111397558e-13
4.76320623168e-13
4.76292499437e-13
4.76577398078e-13
4.76421761052e-13
4.76732709933e-13
4.78103438787e-13
4.91788799763e-13
6.13059946163e-13
4.75325838464e-13
4.75232522294e-13
4.75177574496e-13
4.75218853788e-13
4.75349313053e-13
4.7552498683e-13
4.75701617019e-13
4.75853833573e-13
4.75987386808e-13
4.76085652425e-13
4.76214715612e-13
4.762604669e-13
4.76438540093e-13
4.76393865354e-13
4.76658393802e-13
4.76486651403e-13
4.76820566376e-13
4.78547727286e-13
4.94708119591e-13
6.31269542657e-13
4.75567188998e-13
4.7562007935e-13
4.75691504684e-13
4.75789417812e-13
4.75901539809e-13
4.7601354151e-13
4.76114672754e-13
4.76201225919e-13
4.76280628691e-13
4.76342296238e-13
4.76434380451e-13
4.76454470337e-13
4.76604443765e-13
4.76536949342e-13
4.76783773133e-13
4.76591071551e-13
4.76957709445e-13
4.79092385021e-13
4.98046151901e-13
6.51171777131e-13
4.76131151914e-13
4.76178610325e-13
4.76234002438e-13
4.76297278146e-13
4.76360312791e-13
4.76418965475e-13
4.76471144071e-13
4.76517533299e-13
4.76563046303e-13
4.76598873535e-13
4.76663975283e-13
4.76662399871e-13
4.76791085104e-13
4.76702168161e-13
4.76936252125e-13
4.76723342625e-13
4.77135185286e-13
4.79739809426e-13
5.01841311083e-13
6.72859771741e-13
4.7659822191e-13
4.76623908805e-13
4.76653246429e-13
4.76685830739e-13
4.76716752846e-13
4.76745256613e-13
4.76771214682e-13
4.76795692039e-13
4.76821610839e-13
4.76841029468e-13
4.76888162485e-13
4.7687100289e-13
4.76985205908e-13
4.76878701661e-13
4.77105437369e-13
4.76875796629e-13
4.77347937366e-13
4.80497955432e-13
5.06154667968e-13
6.96470567052e-13
4.76950488815e-13
4.76961198265e-13
4.76974477866e-13
4.7698994994e-13
4.7700435805e-13
4.77017963924e-13
4.77030911138e-13
4.7704394944e-13
4.77058878628e-13
4.77068427785e-13
4.77104142965e-13
4.77076609412e-13
4.77181831279e-13
4.77061520731e-13
4.77285752849e-13
4.77043841809e-13
4.77593511015e-13
4.81376480576e-13
5.11036682397e-13
7.22099875676e-13
4.77231588536e-13
4.77234244261e-13
4.77239420463e-13
4.77246589882e-13
4.77253223392e-13
4.77259787154e-13
4.77266371075e-13
4.77273431962e-13
4.77282183277e-13
4.77285927066e-13
4.77314510522e-13
4.7728029136e-13
4.77380541124e-13
4.7724932761e-13
4.77475114116e-13
4.77225690115e-13
4.77872979577e-13
4.82391067649e-13
5.1656056128e-13
7.49867419379e-13
4.77476983841e-13
4.77475512765e-13
4.77476957961e-13
4.77480349406e-13
4.77483463596e-13
4.77486707136e-13
4.77490135789e-13
4.77494005667e-13
4.77499227996e-13
4.77499585514e-13
4.77523705855e-13
4.77485181543e-13
4.77583227304e-13
4.77443048208e-13
4.77673651436e-13
4.77421563064e-13
4.78189751989e-13
4.83560231832e-13
5.22787566678e-13
7.79845099828e-13
4.77708512658e-13
4.77704723625e-13
4.77704577592e-13
4.77706305967e-13
4.77707867054e-13
4.77709514686e-13
4.77711353614e-13
4.77713480151e-13
4.77716662559e-13
4.77715068722e-13
4.77736374167e-13
4.77695012918e-13
4.77792763338e-13
4.77644791378e-13
4.77882918732e-13
4.77633296267e-13
4.78549482383e-13
4.84904967153e-13
5.29774227875e-13
8.1207966628e-13
4.77938499542e-13
4.77934068295e-13
4.77933108872e-13
4.77934003347e-13
4.77934832735e-13
4.77935635383e-13
4.7793663694e-13
4.77937779683e-13
4.77939783244e-13
4.77937110924e-13
4.77956662549e-13
4.77913372405e-13
4.78012246859e-13
4.77857175941e-13
4.78105359542e-13
4.77864108853e-13
4.78960421555e-13
4.86451508619e-13
5.37580475094e-13
8.46617371514e-13
4.78175748574e-13
4.78170908864e-13
4.78169566849e-13
4.781701341e-13
4.78170704153e-13
4.78171098574e-13
4.78171708674e-13
4.78172329006e-13
4.78173688097e-13
4.78170484834e-13
4.781889792e-13
4.78144266879e-13
4.78245316456e-13
4.78083409537e-13
4.78343971546e-13
4.78117952238e-13
4.79431317603e-13
4.88222667256e-13
5.46228743544e-13
8.83463413257e-13
4.78427877334e-13
4.78422870749e-13
4.78421268821e-13
4.78421691157e-13
4.784221735e-13
4.78422355228e-13
4.78422784678e-13
4.7842312652e-13
4.78424133524e-13
4.78420707692e-13
4.78438580536e-13
4.78392660566e-13
4.7849668389e-13
4.78327921297e-13
4.78603288183e-13
4.78400908643e-13
4.79975042315e-13
4.90251135899e-13
5.55762912865e-13
9.22665009287e-13
4.78699988238e-13
4.78695090458e-13
4.78693239957e-13
4.78693611089e-13
4.78694085976e-13
4.7869418246e-13
4.7869455738e-13
4.78694787399e-13
4.78695631078e-13
4.78692185622e-13
4.7870975109e-13
4.78662657904e-13
4.78770264683e-13
4.78594341196e-13
4.78886736102e-13
4.78717984355e-13
4.80600502541e-13
4.92550735494e-13
5.66152187024e-13
9.64250225129e-13
4.78995889171e-13
4.78990403117e-13
4.78988471103e-13
4.78988988336e-13
4.78989582865e-13
4.78989765059e-13
4.78990233984e-13
4.78990543288e-13
4.78991425044e-13
4.78988187808e-13
4.7900580051e-13
4.78957665652e-13
4.79069707585e-13
4.78886695542e-13
4.79199853998e-13
4.79078409218e-13
4.81332165061e-13
4.9519214244e-13
5.77549159035e-13
1.00846574329e-12
4.79317974216e-13
4.7931205486e-13
4.79309965122e-13
4.79310562226e-13
4.79311199354e-13
4.79311443575e-13
4.79311965062e-13
4.79312347286e-13
4.7931325e-13
4.79310205805e-13
4.79327958838e-13
4.79278415221e-13
4.79395093083e-13
4.79204071858e-13
4.7953932059e-13
4.79479770125e-13
4.82152791273e-13
4.98089064762e-13
5.8967161467e-13
1.05516230512e-12
4.79663860216e-13
4.79657799582e-13
4.79655662832e-13
4.79656495649e-13
4.79657313837e-13
4.79657793613e-13
4.79658531148e-13
4.79659204103e-13
4.79660378825e-13
4.7965784471e-13
4.7967627928e-13
4.79625891355e-13
4.79749014687e-13
4.79551780783e-13
4.79917994225e-13
4.79949438934e-13
4.83156402611e-13
5.01573438763e-13
6.03848103963e-13
1.10603582516e-12
4.80069816675e-13
4.8006123917e-13
4.80058484527e-13
4.80059184646e-13
4.80059806413e-13
4.8006019823e-13
4.80060790947e-13
4.80061365862e-13
4.80062295723e-13
4.800595505e-13
4.80078050695e-13
4.80024161007e-13
4.80151526369e-13
4.79942038092e-13
4.8032892e-13
4.80455103169e-13
4.84154082665e-13
5.04902787044e-13
6.17283369029e-13
1.15976840065e-12
4.80296535856e-13
4.80294917652e-13
4.8029252184e-13
4.80294391674e-13
4.80295997073e-13
4.80297596933e-13
4.80299491747e-13
4.80301857168e-13
4.80305040393e-13
4.8030564744e-13
4.80328258588e-13
4.80280621442e-13
4.80421108069e-13
4.80222360505e-13
4.80667197286e-13
4.8099671866e-13
4.8558407378e-13
5.09887510157e-13
6.3624510492e-13
1.21573438866e-12
4.81402313214e-13
4.81377177516e-13
4.81371023995e-13
4.81368837963e-13
4.81365849478e-13
4.81362542844e-13
4.81358518599e-13
4.81353859126e-13
4.81348355697e-13
4.81337508512e-13
4.81350612389e-13
4.81274911794e-13
4.81412526361e-13
4.81158239608e-13
4.81622663025e-13
4.82016135164e-13
4.87023798514e-13
5.13281952265e-13
6.48771731832e-13
1.28667988916e-12
4.81411028305e-13
4.81395104656e-13
4.81389705413e-13
4.81388092579e-13
4.81385482634e-13
4.81382204967e-13
4.81377797929e-13
4.81372350678e-13
4.81365467721e-13
4.81353308553e-13
4.81361555925e-13
4.81288239909e-13
4.81416769914e-13
4.81175597353e-13
4.81675221678e-13
4.82382983552e-13
4.88549742171e-13
5.18399514985e-13
6.62390297866e-13
1.31251814598e-12
8.93326167249e-13
1.66113165681e-12
9.24673797576e-13
1.74136838831e-12
9.5894746524e-13
1.82819526563e-12
9.96686253665e-13
1.92174288324e-12
1.0383415068e-12
2.02204701716e-12
1.08426040693e-12
2.12901891407e-12
1.13462673492e-12
2.2424427825e-12
1.18946429693e-12
2.36207349526e-12
1.2486199359e-12
2.48763517099e-12
1.31174326904e-12
2.61911495695e-12
1.379472906e-12
2.75663271361e-12
1.45154412014e-12
2.90016348119e-12
1.52792278919e-12
3.04991257356e-12
1.60862925634e-12
3.20629861834e-12
1.69408005693e-12
3.3699426678e-12
1.78471263811e-12
3.54142098865e-12
1.88077046099e-12
3.72141808464e-12
1.98302447504e-12
3.91058730017e-12
2.09162821384e-12
4.10948427571e-12
2.20734502896e-12
4.31875490834e-12
2.33058829275e-12
4.5388307196e-12
2.46200241816e-12
4.77027764865e-12
2.60244750249e-12
5.01347986995e-12
2.75299913906e-12
5.26914522233e-12
2.9149898656e-12
5.53681949749e-12
3.08993832022e-12
5.81904031761e-12
3.28187621574e-12
6.10972869337e-12
3.48852978195e-12
6.42344586862e-12
3.73031973194e-12
6.72230450407e-12
3.96121524019e-12
7.09692971011e-12
4.27303239023e-12
7.33853735738e-12
4.45375954409e-12
7.92880761378e-12
)
;

boundaryField
{
    inletfuel
    {
        type            calculated;
        value           nonuniform 0();
    }
    inletair
    {
        type            calculated;
        value           nonuniform 0();
    }
    outlet
    {
        type            calculated;
        value           uniform 0;
    }
    axis
    {
        type            empty;
    }
    leftside
    {
        type            calculated;
        value           uniform 0;
    }
    burnerwall
    {
        type            calculated;
        value           nonuniform 0();
    }
    front
    {
        type            wedge;
    }
    back
    {
        type            wedge;
    }
    procBoundary1to0
    {
        type            processor;
        value           uniform 0;
    }
}


// ************************************************************************* //
