/*--------------------------------*- C++ -*----------------------------------*\
  =========                 |
  \\      /  F ield         | OpenFOAM: The Open Source CFD Toolbox
   \\    /   O peration     | Website:  https://openfoam.org
    \\  /    A nd           | Version:  7
     \\/     M anipulation  |
\*---------------------------------------------------------------------------*/
FoamFile
{
    version     2.0;
    format      ascii;
    class       surfaceScalarField;
    location    "0.01";
    object      phi;
}
// * * * * * * * * * * * * * * * * * * * * * * * * * * * * * * * * * * * * * //

dimensions      [1 0 -1 0 0 0 0];

internalField   nonuniform List<scalar> 
1572
(
2.21519076753e-09
2.9695078237e-08
8.63530078914e-09
8.84128021088e-08
1.44494029918e-07
1.87554146473e-08
3.2278326003e-09
2.67419465583e-08
1.24393321945e-08
8.00361061206e-08
1.31157156097e-07
2.72164101578e-08
4.05981497793e-09
2.32566914789e-08
1.56575855856e-08
7.01841701093e-08
1.15314590903e-07
3.45190669436e-08
4.48405732752e-09
2.01298743616e-08
1.75923939744e-08
6.12062401237e-08
1.01036443852e-07
3.90064785017e-08
3.79793967816e-09
1.98450307252e-08
1.53159655772e-08
6.03420123321e-08
1.00710969434e-07
3.4038701332e-08
5.1784748736e-09
2.65149312414e-08
2.27250850333e-08
7.91757751292e-08
1.33892871687e-07
5.4032135412e-08
5.91088751464e-09
4.84575446378e-08
2.3382859681e-08
1.45983379193e-07
2.48141962978e-07
5.27058537319e-08
8.42245355719e-09
8.17448590227e-08
3.36608771902e-08
2.4596207234e-07
4.15743893046e-07
7.60828407093e-08
9.22165334434e-09
1.17063528025e-07
3.7113074241e-08
3.51185270594e-07
5.90000953583e-07
8.38088389002e-08
8.83596195486e-09
1.4472307169e-07
3.52006720233e-08
4.334100593e-07
7.25208613552e-07
7.83546209785e-08
5.30411445425e-09
1.63221057951e-07
2.08389498139e-08
4.88540538239e-07
8.15571500374e-07
4.59286350582e-08
2.07406939802e-09
1.75836276574e-07
7.79784544046e-09
5.26459308987e-07
8.77932149718e-07
1.6808311646e-08
-1.98391451887e-11
1.8577397386e-07
-6.25422920168e-10
5.56615945966e-07
9.27785670738e-07
-1.88843918272e-09
-1.20881715709e-09
1.94805248939e-07
-5.20245040231e-09
5.83989946717e-07
9.73225842753e-07
-1.19681747621e-08
-1.77237289052e-09
2.03602460698e-07
-7.39549485633e-09
6.106512918e-07
1.01763439597e-06
-1.68619920692e-08
-2.18779267359e-09
2.12574432196e-07
-8.9311873463e-09
6.37733316115e-07
1.0627714573e-06
-2.02211999754e-08
-2.64478602628e-09
2.22007618782e-07
-1.0487293829e-08
6.65935140613e-07
1.10972564893e-06
-2.35282407819e-08
-2.90311240396e-09
2.31843662736e-07
-1.1519440109e-08
6.95347392895e-07
1.15868513802e-06
-2.582534496e-08
-3.17282196266e-09
2.42193023514e-07
-1.25808916687e-08
7.26283569223e-07
1.21014603539e-06
-2.81634375671e-08
-3.49603615695e-09
2.53160148134e-07
-1.37918673479e-08
7.58991851798e-07
1.26449805667e-06
-3.07901869887e-08
-3.46076521816e-09
2.64415850033e-07
-1.40288822952e-08
7.92944359103e-07
1.32102653759e-06
-3.1583321896e-08
-3.75977118849e-09
2.76382460577e-07
-1.51682538344e-08
8.28971871252e-07
1.38098444326e-06
-3.40916986045e-08
-3.96239436955e-09
2.89079367374e-07
-1.59906172535e-08
8.67204077426e-07
1.44468925091e-06
-3.60238231021e-08
-4.11475527765e-09
3.02519721659e-07
-1.67033724889e-08
9.07767275283e-07
1.51235145734e-06
-3.77377016987e-08
-4.68437792622e-09
3.17148711495e-07
-1.86056735011e-08
9.51521809021e-07
1.58512826272e-06
-4.16598625884e-08
-4.90290032996e-09
3.32619863406e-07
-1.95201731827e-08
9.97844396479e-07
1.66222960629e-06
-4.37798544662e-08
-5.21209188205e-09
3.48970408939e-07
-2.06830676231e-08
1.04673170193e-06
1.74366111697e-06
-4.64215143438e-08
-5.72142735294e-09
3.66362335697e-07
-2.23297397371e-08
1.09835256492e-06
1.82978970462e-06
-5.01047856876e-08
-4.5247017937e-09
3.83030565913e-07
-1.9380772764e-08
1.14964014578e-06
1.91591251758e-06
-4.47838299375e-08
-8.43312733908e-09
4.0399200787e-07
-2.9863010319e-08
1.20865662634e-06
2.01356934555e-06
-6.4876433547e-08
-4.64809015259e-09
-2.15510166973e-08
-5.04508127361e-08
1.68851159281e-07
3.026313879e-08
1.53688705632e-07
4.41813337401e-08
1.35466861516e-07
5.65360320559e-08
1.19482518025e-07
6.40024631096e-08
1.21227243383e-07
5.56298564275e-08
1.64634513555e-07
9.57838453151e-08
3.0643266188e-07
8.86019047168e-08
5.08848637143e-07
1.2787124698e-07
7.1566846994e-07
1.40211561173e-07
8.74439329551e-07
1.28801798686e-07
9.80087895208e-07
7.47540157896e-08
1.05339617495e-06
2.6804716536e-08
1.1124648518e-06
-3.78457670919e-09
1.1665992069e-06
-2.02168199444e-08
1.21988045032e-06
-2.84598285073e-08
1.27411313942e-06
-3.3967253421e-08
1.33022201649e-06
-3.90230656407e-08
1.38876858739e-06
-4.28513784991e-08
1.4502645294e-06
-4.66635549615e-08
1.51503880339e-06
-5.07974880747e-08
1.58314350892e-06
-5.29777477067e-08
1.65520525865e-06
-5.69731266765e-08
1.73181693357e-06
-6.02954804967e-08
1.81334113118e-06
-6.33787634193e-08
1.90021230179e-06
-6.89389725531e-08
1.99238668323e-06
-7.2623686571e-08
2.08965761895e-06
-7.69445077095e-08
2.19233471924e-06
-8.28456778411e-08
2.29648903473e-06
-7.61655475649e-08
2.41252517877e-06
-1.0583463193e-07
-8.58358441585e-08
3.34303854537e-06
7.64676580161e-05
1.97833380721e-06
9.38866789195e-05
3.26747118885e-07
0.000114531354508
-1.59378042549e-06
0.000139104329347
-3.63975941506e-06
0.000167958030991
-4.38517835221e-06
0.000195591566711
0.000197837488217
-1.12470280458e-06
6.64301349906e-08
5.97047433407e-07
1.14558599775e-07
8.56882571461e-07
1.74546554642e-07
1.09325958347e-06
2.51496544113e-07
1.29175240249e-06
3.55765587728e-07
1.46443524658e-06
5.06084614527e-07
1.74813593263e-06
1.25849142184e-06
3.05780472829e-06
2.5397010698e-06
7.48556650514e-06
4.01860200439e-06
1.5151469629e-05
5.37882256393e-06
2.54026492455e-05
6.24591208132e-06
3.78190689148e-05
6.15540016139e-06
5.10736205091e-05
5.32071718417e-06
6.51848149699e-05
4.02848600832e-06
8.0832219321e-05
2.46328543544e-06
9.90606605884e-05
6.13566932209e-07
0.000120736731848
-1.50090920524e-06
0.000146515063342
-3.7347230199e-06
0.00017680072984
-4.53611632685e-06
0.000205436909753
0.000206938766839
-1.13252183969e-06
1.01060681263e-07
5.47524946772e-07
1.82343294047e-07
7.90012813463e-07
2.89606821786e-07
1.01472343193e-06
4.26283116062e-07
1.21851793355e-06
5.99010885877e-07
1.45867967108e-06
9.8695837115e-07
1.96301508322e-06
2.0681857324e-06
4.27604571851e-06
3.65925534723e-06
9.68272832829e-06
5.36638775879e-06
1.80937403581e-05
6.85293994806e-06
2.89076033987e-05
7.5271322115e-06
4.14710944438e-05
7.13958532598e-06
5.48475658192e-05
6.05303275649e-06
6.92530996044e-05
4.55505971797e-06
8.5521131917e-05
2.81551941202e-06
0.000104571104229
7.92824143391e-07
0.000127314186092
-1.4910320586e-06
0.000154333729706
-3.88232595483e-06
0.000186092204294
-4.69824963451e-06
0.000215680178734
0.000216287215406
-1.16867843845e-06
1.33775904883e-07
4.86038232073e-07
2.45989567264e-07
7.09668325951e-07
3.92227249697e-07
9.35111887856e-07
5.66723778934e-07
1.19825155808e-06
8.19273352605e-07
1.63267982223e-06
1.65092725129e-06
2.88920146863e-06
3.09026816905e-06
6.46818713445e-06
4.91191577618e-06
1.28900794746e-05
6.68040829248e-06
2.18947977049e-05
7.99469420801e-06
3.30146594407e-05
8.31838206747e-06
4.54507738728e-05
7.66146692915e-06
5.88248372066e-05
6.3920439243e-06
7.35441942825e-05
4.77874765043e-06
9.04518694805e-05
2.92481564672e-06
0.000110372108552
7.79237710034e-07
0.000134229111123
-1.63385579852e-06
0.000162536998418
-4.13175666462e-06
0.0001957993113
-4.90881063258e-06
0.000226288558193
0.000225819787448
-1.23043145943e-06
1.5266064092e-07
4.35171367053e-07
2.77451119495e-07
6.63096291368e-07
4.27316861673e-07
9.54380901381e-07
6.85358083431e-07
1.36293960273e-06
1.4438368183e-06
2.38075671587e-06
2.57105047096e-06
4.92986247053e-06
4.19965188954e-06
9.71824036753e-06
6.03567273055e-06
1.6921220615e-05
7.71359843746e-06
2.62567054766e-05
8.6528286555e-06
3.7306333781e-05
8.57204694009e-06
4.95011546295e-05
7.67011150786e-06
6.28805084158e-05
6.28554555096e-06
7.79745091838e-05
4.6202422796e-06
9.55649866705e-05
2.7166686274e-06
0.000116407671091
5.0520279784e-07
0.000141438025754
-1.98715363105e-06
0.000171092687273
-4.52731941516e-06
0.000205879554462
-5.19082850979e-06
0.000237212528187
0.00023549622936
-1.30982846344e-06
1.29356154363e-07
4.61073219872e-07
2.78241184576e-07
7.29636231625e-07
5.71928563086e-07
1.2017519753e-06
1.13695925541e-06
2.21684649987e-06
1.99697740629e-06
4.27966320521e-06
3.31067039287e-06
7.97841715995e-06
4.9516964798e-06
1.36461112558e-05
6.63231776408e-06
2.12626479923e-05
7.91649691642e-06
3.06291293886e-05
8.37993178131e-06
4.13592441996e-05
7.997488633e-06
5.33313872566e-05
7.00192542031e-06
6.68317641063e-05
5.6441165885e-06
8.24030373939e-05
4.02314970248e-06
0.000100763578847
2.1472098084e-06
0.000122599428298
-4.52898506797e-08
0.000148850318643
-2.58335767443e-06
0.000179977577984
-5.099158399e-06
0.000216284253544
-5.56625411273e-06
0.00024840743509
0.000245266682774
-1.40765893582e-06
2.80459676921e-07
6.58531047876e-07
5.40576439377e-07
1.22567268585e-06
9.20802745558e-07
2.23505412628e-06
1.57932742312e-06
4.03595763741e-06
2.59464450406e-06
7.04027767973e-06
3.95219933624e-06
1.15360397e-05
5.45643866401e-06
1.7674189865e-05
6.78430079017e-06
2.53862721711e-05
7.51578705345e-06
3.4519030451e-05
7.51870933387e-06
4.49722806292e-05
6.90149093951e-06
5.68907793876e-05
5.87272672231e-06
7.0661811775e-05
4.58362873331e-06
8.68044589923e-05
3.0376918313e-06
0.000106015192885
1.21693900413e-06
0.00012891141742
-9.44675901815e-07
0.000156458691665
-3.44299402366e-06
0.000189094567074
-5.84466299692e-06
0.000226946002083
-6.0431081224e-06
0.000259850776191
0.000255086510411
-1.52285191334e-06
2.39512719934e-07
1.23212829967e-06
5.13885190235e-07
2.23666289311e-06
9.92958872901e-07
3.84862382522e-06
1.73843297181e-06
6.35388399968e-06
2.77622388925e-06
9.99481344649e-06
4.00592944845e-06
1.49174785759e-05
5.16444135402e-06
2.11908007132e-05
5.94275096703e-06
2.87772751289e-05
6.20926874664e-06
3.76850799889e-05
5.95916783278e-06
4.80470279366e-05
5.30094161709e-06
6.01263655276e-05
4.36006177518e-06
7.43288433139e-05
3.19007379157e-06
9.11553469088e-05
1.74833709932e-06
0.000111296827982
-1.63600854447e-08
0.000135342878482
-2.0762420505e-06
0.000164196811294
-4.5104992523e-06
0.000198440215136
-6.71572077756e-06
0.000237812923296
-6.59677357931e-06
0.000271551918025
0.000264935978005
-1.65033943567e-06
3.36993584061e-07
1.99485515354e-06
6.88622725519e-07
3.46121748604e-06
1.23839706952e-06
5.58843242334e-06
2.0003464774e-06
8.57718713491e-06
2.92278675965e-06
1.25716120621e-05
3.77528848309e-06
1.76630621825e-05
4.40672604349e-06
2.39107283498e-05
4.70113977801e-06
3.14020863858e-05
4.6261625911e-06
4.02736504002e-05
4.22481482465e-06
5.07580359344e-05
3.57854664591e-06
6.31603603449e-05
2.72561794995e-06
7.79115727402e-05
1.65326884143e-06
9.55067157276e-05
3.21112509126e-07
0.000116618823642
-1.34812097132e-06
0.000141875309933
-3.35945422941e-06
0.000172123412803
-5.72258018656e-06
0.000208025232417
-7.75244936573e-06
0.000248938467285
-7.14463604412e-06
0.000283391236827
0.000274865259417
-1.77877800708e-06
3.59024652671e-07
2.7383073688e-06
7.14523886174e-07
4.57701399915e-06
1.2053129905e-06
7.05908531733e-06
1.7670594655e-06
1.03228456546e-05
2.31803065126e-06
1.44736725819e-05
2.76060813819e-06
1.96216306057e-05
3.01652828587e-06
2.58838212936e-05
3.04238899705e-06
3.34235226288e-05
2.83527637135e-06
4.24438060579e-05
2.42696276476e-06
5.32151677225e-05
1.84662591947e-06
6.60682463688e-05
1.07613483608e-06
8.14640772557e-05
6.38307350188e-08
9.99096174391e-05
-1.19313373391e-06
0.000122019524107
-2.79158150124e-06
0.000148533256961
-4.74722459711e-06
0.000180239748061
-7.01824547494e-06
0.000217835543516
-8.89133182408e-06
0.000260364256858
-7.71285066616e-06
0.000295345898217
0.000284910142691
-1.90889962735e-06
3.08081667421e-07
3.29550692761e-06
5.62405970764e-07
5.38164005391e-06
8.67785884789e-07
8.07667516577e-06
1.18027711524e-06
1.14998474442e-05
1.44312204189e-06
1.57672638706e-05
1.60795727636e-06
2.10141916537e-05
1.63758908836e-06
2.73989778932e-05
1.51874805186e-06
3.51198391435e-05
1.25739424209e-06
4.44105001302e-05
8.59443942706e-07
5.55716084497e-05
3.03175486948e-07
6.89706321779e-05
-4.2881157027e-07
8.50597820292e-05
-1.40337878691e-06
0.000104397155189
-2.64803615898e-06
0.000127565266594
-4.22323814539e-06
0.000155364011775
-6.16886022799e-06
0.000188589589404
-8.39853082428e-06
0.000227924333012
-1.01031573959e-05
0.000272103667277
-8.4285427776e-06
0.000307539273181
0.000294984727253
-2.05864866703e-06
1.72640367814e-07
3.66471201042e-06
3.0128347429e-07
5.91239889196e-06
4.39242858004e-07
8.75742754544e-06
5.57786547706e-07
1.23177727313e-05
6.2588624705e-07
1.67236638262e-05
6.18910091557e-07
2.21286469184e-05
5.20390306006e-07
2.87129756427e-05
3.25632038654e-07
3.66934432356e-05
2.63447053255e-08
4.63322141227e-05
-3.89839386615e-07
5.79497951351e-05
-9.61108541393e-07
7.19487740653e-05
-1.72069003034e-06
8.87817672614e-05
-2.70976985345e-06
0.000109027906162
-3.97970301327e-06
0.000133295214818
-5.580816193e-06
0.000162413411247
-7.5635110247e-06
0.000197214577149
-9.7950448692e-06
0.000238333968013
-1.13431171801e-05
0.000284185571771
-9.14255490578e-06
0.000319980134623
0.000305111403787
-2.20297883244e-06
5.75838037021e-08
3.92566577068e-06
9.04881052867e-08
6.29877744434e-06
1.11167303209e-07
9.27631586211e-06
1.02838558751e-07
1.29798582418e-05
4.92244398876e-08
1.7549641186e-05
-6.1685721905e-08
2.31503810155e-05
-2.40046757414e-07
2.99781859041e-05
-4.95873141676e-07
3.82671480215e-05
-8.47766981065e-07
4.83029617925e-05
-1.3234391944e-06
6.04272901411e-05
-1.95188688844e-06
7.50552650207e-05
-2.77146834997e-06
9.26602888332e-05
-3.82251672962e-06
0.000113841453033
-5.16317722072e-06
0.000139243924787
-6.83680521125e-06
0.000169715414215
-8.89798913536e-06
0.000206142938144
-1.11713443781e-05
0.0002490929964
-1.25879756849e-05
0.000296632050341
-9.85685842875e-06
0.000332677264664
0.000315286967198
-2.34226328124e-06
-1.49380983244e-08
4.14108535822e-06
-4.0191585722e-08
6.6285437629e-06
-8.86235328549e-08
9.7372471373e-06
-1.70165893121e-07
1.3593350706e-05
-2.94327801631e-07
1.8344700528e-05
-4.70915181389e-07
2.41667764886e-05
-7.1135419435e-07
3.12690055108e-05
-1.03233604203e-06
3.99026681993e-05
-1.45558359202e-06
5.03702068939e-05
-2.00722959768e-06
6.30292747433e-05
-2.71681340027e-06
7.83114261921e-05
-3.62464635063e-06
9.67154238286e-05
-4.76878410417e-06
0.000118858298787
-6.21192027441e-06
0.000145431353627
-7.99633361917e-06
0.000177296078772
-1.01720751452e-05
0.0002153982462
-1.25252806413e-05
0.000260228285992
-1.3835034205e-05
0.000309463105651
-1.05694682907e-05
0.00034563464546
0.000325501138617
-2.47770634809e-06
-5.36754859057e-08
4.34164522553e-06
-1.09613329318e-07
6.94196630766e-06
-1.94684925749e-07
1.01853662607e-05
-3.16818711706e-07
1.42036143814e-05
-4.84781424105e-07
1.91519753119e-05
-7.09668772686e-07
2.52163651482e-05
-1.00586778754e-06
3.26186434815e-05
-1.39151602934e-06
4.16237770264e-05
-1.88779853329e-06
5.25480446321e-05
-2.52139408278e-06
6.5766523139e-05
-3.32218546289e-06
8.17281153139e-05
-4.33113841521e-06
0.000100958858124
-5.58829734817e-06
0.000124096128333
-7.15604812188e-06
0.000151876338464
-9.0802503729e-06
0.000185180209305
-1.14016557185e-05
0.000225007032941
-1.38662491436e-05
0.000271769881512
-1.50861064802e-05
0.00032270412731
-1.12697281149e-05
0.000358855055423
0.000335752145443
-2.60420161029e-06
-7.32004991489e-08
4.53999077943e-06
-1.45174118005e-07
7.25537482915e-06
-2.51110830233e-07
1.06393154777e-05
-3.99201036614e-07
1.48295374883e-05
-5.99579391293e-07
1.99891553437e-05
-8.64943085634e-07
2.63137466704e-05
-1.21059731891e-06
3.40359580791e-05
-1.65512660083e-06
4.34333560789e-05
-2.2207908349e-06
5.4836589067e-05
-2.93495187155e-06
6.86382275126e-05
-3.82941258715e-06
8.53064859361e-05
-4.94536803804e-06
0.000105393913169
-6.32643828014e-06
0.000129562312729
-8.03434678108e-06
0.000158589957042
-1.01192511762e-05
0.0001933837284
-1.26111074018e-05
0.000234989759994
-1.52102163262e-05
0.00028374168365
-1.6346647356e-05
0.000336375175519
-1.19524749444e-05
0.000372335526906
0.000346042500312
-2.71888238885e-06
-8.56701835088e-08
4.74174564836e-06
-1.68264054992e-07
7.57607504167e-06
-2.89334881125e-07
1.11070782002e-05
-4.58126257042e-07
1.5478688938e-05
-6.85959005929e-07
2.08617387596e-05
-9.86444960453e-07
2.74608277428e-05
-1.37607539947e-06
3.5519378833e-05
-1.87465380691e-06
4.53275186048e-05
-2.50605305208e-06
5.72308536049e-05
-3.29908413344e-06
7.163975376e-05
-4.28785804964e-06
8.90432288167e-05
-5.51485042568e-06
0.0001100201201
-7.02730337142e-06
0.000135259871703
-8.88756284672e-06
0.000165580798863
-1.11496047855e-05
0.000201921717269
-1.38329017237e-05
0.000245370612453
-1.65853716658e-05
0.000296175317552
-1.76362232176e-05
0.00035050287475
-1.2630736653e-05
0.000386078354571
0.000356364535225
-2.82287955592e-06
-9.64933654126e-08
4.95011199453e-06
-1.88221715661e-07
7.90823134413e-06
-3.22642350831e-07
1.15930497078e-05
-5.09977869115e-07
1.61549036883e-05
-7.62531295238e-07
2.17722955966e-05
-1.09516566415e-06
2.8659056715e-05
-1.52572860708e-06
3.70695069698e-05
-2.0756716541e-06
4.73067671902e-05
-2.77072922896e-06
5.97319069235e-05
-3.64177724958e-06
7.47737518289e-05
-4.72549947373e-06
9.29431999704e-05
-6.06664727972e-06
0.000114845864643
-7.71610425444e-06
0.000141201189774
-9.73812524676e-06
0.000172867187942
-1.21895195625e-05
0.000210818732003
-1.50787867794e-05
0.000256182365303
-1.79914480407e-05
0.000309107272952
-1.89388690503e-05
0.000365116206822
-1.32703535912e-05
0.000400081557259
0.000366740166035
-2.90604046796e-06
-1.05783953063e-07
5.16746156286e-06
-2.06240950778e-07
8.25513195161e-06
-3.53359665288e-07
1.21011135189e-05
-5.5836664868e-07
1.68625536629e-05
-8.34532216233e-07
2.27256709134e-05
-1.19809395632e-06
2.99140390016e-05
-1.66829461184e-06
3.86930596136e-05
-2.2684432305e-06
4.93795556682e-05
-3.0262628748e-06
6.23505266157e-05
-3.97507268894e-06
7.80541462858e-05
-5.15436690673e-06
9.7024106471e-05
-6.61193331128e-06
0.000119893703295
-8.40259274536e-06
0.000147414199125
-1.05938524948e-05
0.000180483923563
-1.32451735522e-05
0.000220116674839
-1.63541255843e-05
0.000267475579521
-1.94347721714e-05
0.000322592429335
-2.02587537846e-05
0.000380256941609
-1.38815859553e-05
0.000414357854238
0.000377184524354
-2.97092060848e-06
-1.14903256097e-07
5.39566522736e-06
-2.23916739931e-07
8.61960178108e-06
-3.83467983236e-07
1.26350407997e-05
-6.05894968498e-07
1.76065869253e-05
-9.05352215022e-07
2.3728123751e-05
-1.29961604769e-06
3.1233835549e-05
-1.80924138218e-06
4.04002484489e-05
-2.45960208961e-06
5.15589755475e-05
-3.28037539061e-06
6.51032422557e-05
-4.30760888393e-06
8.15018309618e-05
-5.58367868475e-06
0.000101311946619
-7.15993137887e-06
0.00012519591285
-9.0953493639e-06
0.000153938282112
-1.1461687279e-05
0.000188478979336
-1.43208502729e-05
0.000229872515417
-1.76580349528e-05
0.000279316277242
-2.0904368729e-05
0.000336698364467
-2.1572264799e-05
0.000395975774163
-1.44291678483e-05
0.000428921677681
0.00038774093275
-3.00675694055e-06
-1.24435355899e-07
5.635880593e-06
-2.42175340893e-07
9.0034244049e-06
-4.14385237399e-07
1.31972941614e-05
-6.54613898405e-07
1.8390360653e-05
-9.77853399768e-07
2.47840361536e-05
-1.40356378307e-06
3.26242490387e-05
-1.95355611816e-06
4.21985736321e-05
-2.65543688243e-06
5.38548163941e-05
-3.54080019407e-06
6.80026245585e-05
-4.64861181883e-06
8.51329996009e-05
-6.02413443327e-06
0.000105827342095
-7.72255514696e-06
0.000130778787354
-9.80707506721e-06
0.000160806613001
-1.23541800067e-05
0.000196894226279
-1.54278556352e-05
0.000240138236488
-1.89984790367e-05
0.00029176708482
-2.24018840492e-05
0.000351491225853
-2.28723131633e-05
0.000412323188875
-1.49055950831e-05
0.000443793595066
0.000398460867653
-3.01311644784e-06
-1.32211498296e-07
5.88893373724e-06
-2.59080492765e-07
9.40797471622e-06
-4.44547797686e-07
1.37898565291e-05
-7.03324309415e-07
1.92165134954e-05
-1.05132658553e-06
2.58969269749e-05
-1.50964290851e-06
3.40898126246e-05
-2.10146348338e-06
4.40939584774e-05
-2.85660885534e-06
5.62747038096e-05
-3.8087176561e-06
7.10585573142e-05
-4.99973246121e-06
8.8960404248e-05
-6.47795893685e-06
0.000110586776693
-8.30265830008e-06
0.000136663664738
-1.05415251314e-05
0.000168046777629
-1.32763761662e-05
0.000205765478515
-1.65734491931e-05
0.000250960117293
-2.03861239551e-05
0.000304886314597
-2.39386607919e-05
0.000367031736189
-2.41653460114e-05
0.000429340737458
-1.53120424167e-05
0.000458984788898
0.000409388356832
-2.9889809505e-06
-1.41678671338e-07
6.15665399684e-06
-2.77336894006e-07
9.83601107462e-06
-4.7571248616e-07
1.44168825161e-05
-7.52549988021e-07
2.00907766575e-05
-1.12489802875e-06
2.70746741796e-05
-1.61533006601e-06
3.56408267084e-05
-2.24864842062e-06
4.60998348457e-05
-3.05677734247e-06
5.88356234324e-05
-4.07566200879e-06
7.42924282895e-05
-5.35023438736e-06
9.30104771001e-05
-6.93215271114e-06
0.000115622697186
-8.88498147234e-06
0.000142889909566
-1.1281236334e-05
0.000175706102949
-1.42081983976e-05
0.000215148974751
-1.77333665607e-05
0.000262403803431
-2.17885433177e-05
0.000318747700473
-2.54726623151e-05
0.000383393876395
-2.54047417361e-05
0.000447084054319
-1.56095335702e-05
0.000474523819937
0.000420600114631
-2.92728945376e-06
-1.50379855569e-07
6.44150600272e-06
-2.94602991907e-07
1.029137358e-05
-5.0561111691e-07
1.50840109021e-05
-8.00018128281e-07
2.10208225368e-05
-1.19617472113e-06
2.83276121363e-05
-1.71797523997e-06
3.72906410923e-05
-2.39209151818e-06
4.82333989569e-05
-3.25248086984e-06
6.15591676149e-05
-4.33776842044e-06
7.77312555757e-05
-5.69600928131e-06
9.73164790006e-05
-7.38275998285e-06
0.000120975862653
-9.46635719133e-06
0.000149506991761
-1.20249467002e-05
0.000183844420844
-1.51523037166e-05
0.000225116996298
-1.89177411328e-05
0.000274556503234
-2.32277948984e-05
0.000333453614361
-2.7033099435e-05
0.000400677932139
-2.66136064957e-05
0.000465619918706
-1.58115723324e-05
0.000490439839954
0.00043215843847
-2.82670578196e-06
-1.58871128068e-07
6.74494800217e-06
-3.1168512848e-07
1.07763662307e-05
-5.35463139996e-07
1.57947097071e-05
-8.47559525688e-07
2.20113956282e-05
-1.26782524939e-06
2.96622453871e-05
-1.82134057644e-06
3.90477206555e-05
-2.53690308762e-06
5.05057264629e-05
-3.45041365422e-06
6.44593992236e-05
-4.60346798581e-06
8.1392934922e-05
-6.04721281604e-06
0.000101900773178
-7.84132100044e-06
0.000126674137111
-1.00586865383e-05
0.000156549086343
-1.2782579011e-05
0.000192503071457
-1.6111123494e-05
0.000235717774112
-2.01104882746e-05
0.000287471406775
-2.46523377303e-05
0.000349057793085
-2.85380928243e-05
0.000418943342497
-2.77039614419e-05
0.000484997489801
-1.58814629927e-05
0.000506803244489
0.000444154018154
-2.68855560508e-06
-1.70241162108e-07
7.06800248006e-06
-3.3211912691e-07
1.12924788562e-05
-5.69396146935e-07
1.65512526009e-05
-9.00166469368e-07
2.306573559e-05
-1.34591548311e-06
3.10831627246e-05
-1.93288321056e-06
4.09183081341e-05
-2.69216139401e-06
5.29253085963e-05
-3.66162627418e-06
6.75476196025e-05
-4.88619273011e-06
8.52925685791e-05
-6.42042791001e-06
0.000106783359743
-8.32903070895e-06
0.000132744242213
-1.06908527789e-05
0.000164052105547
-1.35972023368e-05
0.000201731305312
-1.71569036998e-05
0.000247021663311
-2.14429266838e-05
0.000301252095886
-2.62869069491e-05
0.000365696242955
-3.02790005792e-05
0.000438302441034
-2.89326883455e-05
0.00050521470396
-1.60067366577e-05
0.000523618465332
0.000456511592631
-2.53389113415e-06
-1.7999551993e-07
7.41104053188e-06
-3.51500156749e-07
1.18404524273e-05
-6.02950502711e-07
1.73545758008e-05
-9.53285111668e-07
2.41850978863e-05
-1.42546811596e-06
3.25918067426e-05
-2.04693326887e-06
4.29040969032e-05
-2.85085910673e-06
5.54939238783e-05
-3.87684672235e-06
7.0825507483e-05
-5.17258310626e-06
8.94312971679e-05
-6.79488989593e-06
0.00011196385001
-8.8115120919e-06
0.000139182538138
-1.13030467007e-05
0.000172005288734
-1.43612200204e-05
0.00021150409419
-1.80871702555e-05
0.000258971761402
-2.25278984778e-05
0.000315778808006
-2.74609227519e-05
0.000383175085064
-3.13633658149e-05
0.000458582406181
-2.94411615756e-05
0.000526190400265
-1.61335054536e-05
0.000540810934115
0.000469284072999
-2.40569542252e-06
-1.90923483394e-07
7.7734020804e-06
-3.73018259706e-07
1.24193268362e-05
-6.40163548462e-07
1.82033614407e-05
-1.01240378976e-06
2.53678381181e-05
-1.51442419996e-06
3.41861777149e-05
-2.17532489506e-06
4.50028992859e-05
-3.03094033426e-06
5.82094422379e-05
-4.12359014155e-06
7.42916658762e-05
-5.50532870103e-06
9.38097644984e-05
-7.23816702998e-06
0.000117447628427
-9.3983486269e-06
0.000146004444525
-1.20788606434e-05
0.000180444700197
-1.5391760853e-05
0.000221898264275
-1.94752598877e-05
0.000271731144507
-2.44091366558e-05
0.0003313621682
-2.98502033242e-05
0.000401894003325
-3.38520121242e-05
0.000479974690951
-3.11345916714e-05
0.000547724275736
-1.70504379402e-05
0.000557989278308
0.000481750620337
-2.34175806791e-06
-2.03498105626e-07
8.15429776253e-06
-3.95356933138e-07
1.30268968824e-05
-6.77112877282e-07
1.90944771588e-05
-1.06869010166e-06
2.66084838675e-05
-1.59699698184e-06
3.58587261608e-05
-2.29084375587e-06
4.72028291423e-05
-3.18833655432e-06
6.10548777952e-05
-4.33089279078e-06
7.79199253059e-05
-5.77125660891e-06
9.83883850407e-05
-7.56747050914e-06
0.000123171876871
-9.7896319743e-06
0.000153108478554
-1.25140326938e-05
0.000189200136551
-1.58219361229e-05
0.000232622638207
-1.97757715141e-05
0.000284773524369
-2.43372425812e-05
0.000347088428306
-2.91332530956e-05
0.000420636513943
-3.27761904727e-05
0.000501927771942
-2.98608402414e-05
0.0005702585194
-1.64366609866e-05
0.000576400579708
0.000495337183317
-2.25640972207e-06
-2.04040736918e-07
8.55297299046e-06
-4.09568170169e-07
1.36649988662e-05
-7.13382748151e-07
2.00323678143e-05
-1.13707919939e-06
2.79156841598e-05
-1.71164221934e-06
3.7623931624e-05
-2.46948949692e-06
4.95278265756e-05
-3.4556090714e-06
6.40679152995e-05
-4.71982286433e-06
8.17706133461e-05
-6.32865270235e-06
0.000103262692668
-8.36077389294e-06
0.000129291263512
-1.09192766947e-05
0.000160746720705
-1.41347492065e-05
0.00019869103908
-1.817245743e-05
0.000244377647854
-2.32425414321e-05
0.000299303706649
-2.94379944484e-05
0.00036492170915
-3.60911258337e-05
0.000441890781606
-3.99280155643e-05
0.000525056380388
-3.49730886497e-05
0.000592077985781
-1.89685528915e-05
0.000592870505399
0.000506496461253
-1.92594081519e-06
-2.36691311339e-07
8.96320735611e-06
-4.41438498161e-07
1.43160267194e-05
-7.39330429757e-07
2.09844378216e-05
-1.15083008533e-06
2.92387203885e-05
-1.70190168687e-06
3.94034658784e-05
-2.42154721718e-06
5.18644750068e-05
-3.34538035302e-06
6.70832614662e-05
-4.51320207053e-06
8.56075145436e-05
-5.97168150157e-06
0.000108091200076
-7.77193124658e-06
0.000135310006155
-9.96969487793e-06
0.000168187850887
-1.2620302961e-05
0.000207819915163
-1.57764010769e-05
0.000255501899897
-1.94267155166e-05
0.00031272423125
-2.34805501043e-05
0.000381002373208
-2.71492472372e-05
0.000460658718471
-2.86738257573e-05
0.000546518238732
-2.54775178098e-05
0.000616574478302
-1.4846339775e-05
0.000614940171401
0.000522363099383
-2.1868217688e-06
-2.32478976141e-07
-4.6935797779e-07
-8.18008278781e-07
-1.30539239651e-06
-1.963561218e-06
-2.83143129562e-06
-3.95507049922e-06
-5.39021417128e-06
-7.20280545426e-06
-9.47229874649e-06
-1.22928099641e-05
-1.57750760584e-05
-2.00542074657e-05
-2.5220138936e-05
-3.1294115944e-05
-3.72631563475e-05
-3.99774858048e-05
-3.064931744e-05
-1.23334962989e-05
5.57535796982e-06
-5.41764261777e-07
2.29849980605e-05
1.44602371421e-05
-5.37977475042e-07
2.39343726587e-05
1.50662263298e-05
-5.45079861207e-07
2.49100804014e-05
1.56982998696e-05
-5.61079406229e-07
2.5899961999e-05
1.634845661e-05
-5.82503463796e-07
2.6895286568e-05
1.70116089508e-05
-6.08914476966e-07
2.78866802025e-05
1.76828059518e-05
-6.4006780014e-07
2.88664213676e-05
1.83568337737e-05
-6.7441050294e-07
2.98295531711e-05
1.90290905338e-05
-7.08023215387e-07
3.07778092598e-05
1.96979726118e-05
-7.40804605132e-07
3.1712386764e-05
2.03616150254e-05
-7.80719768703e-07
3.26226325519e-05
2.10099405283e-05
-8.17953632488e-07
3.35103396871e-05
2.16412991076e-05
-8.53281306777e-07
3.43742475865e-05
2.225138037e-05
-8.84805592377e-07
3.52091979213e-05
2.28374982182e-05
-9.14002036269e-07
3.601575249e-05
2.33968295094e-05
-9.4012895511e-07
3.67981984224e-05
2.39284428446e-05
-9.57893539006e-07
3.7553032741e-05
2.44379933344e-05
-9.72205047517e-07
3.82939262156e-05
2.49275590446e-05
-9.73486390417e-07
3.90211427266e-05
2.54099197916e-05
-9.65452801011e-07
3.97509905105e-05
2.58953350789e-05
-9.43908333831e-07
4.04955876874e-05
2.63990866973e-05
-9.0772070126e-07
4.12664434439e-05
2.69379190782e-05
-8.5803626824e-07
4.20848899499e-05
2.75285765812e-05
-7.90433113198e-07
4.29672146365e-05
2.81933174696e-05
-7.08435824219e-07
4.39352263727e-05
2.89502856429e-05
-6.15085438305e-07
4.49847625086e-05
2.98122412335e-05
-5.61454605567e-07
4.61236822902e-05
3.07374775429e-05
-4.67377811427e-07
4.7231532323e-05
3.17602129779e-05
-6.19938218922e-07
4.85591411931e-05
3.26254629725e-05
-1.11024356921e-07
4.96780120114e-05
3.39839741236e-05
-1.82363669187e-07
5.05484117956e-05
3.52484599426e-05
2.78052438856e-06
)
;

boundaryField
{
    inletfuel
    {
        type            calculated;
        value           nonuniform 0();
    }
    inletair
    {
        type            calculated;
        value           nonuniform 0();
    }
    outlet
    {
        type            calculated;
        value           nonuniform List<scalar> 
26
(
4.21504721314e-07
1.26415383993e-06
2.10679684318e-06
2.52500786798e-06
9.39674960005e-06
1.50112026413e-05
2.20048813906e-05
3.06621895914e-05
4.13231882478e-05
5.43929209571e-05
7.03548069904e-05
8.97837773657e-05
0.000113364928706
0.000141912337832
0.000176394412617
0.000217957837337
0.000267969992187