/*--------------------------------*- C++ -*----------------------------------*\
  =========                 |
  \\      /  F ield         | OpenFOAM: The Open Source CFD Toolbox
   \\    /   O peration     | Website:  https://openfoam.org
    \\  /    A nd           | Version:  7
     \\/     M anipulation  |
\*---------------------------------------------------------------------------*/
FoamFile
{
    version     2.0;
    format      ascii;
    class       volScalarField;
    location    "0.01";
    object      Qdot;
}
// * * * * * * * * * * * * * * * * * * * * * * * * * * * * * * * * * * * * * //

dimensions      [1 -1 -3 0 0 0 0];

internalField   nonuniform List<scalar> 
815
(
2378782.65376
2394256.62729
2421407.92408
2254323.74078
2268389.43128
2295008.85615
3283143.35773
3395341.6312
3655312.84422
10826487.7877
11196774.7329
12039677.5116
42402758.9343
43598096.3612
46383399.1952
176015982.598
180958419.772
192690716.457
111243242.963
109121325.485
104802609.443
46134338.9349
45472566.9642
44256162.566
30346551.0119
30349433.9842
30370180.6209
23589501.8461
23439918.797
23154257.8987
17510797.5138
17455918.1356
17350217.57
15365403.8511
15344970.3672
15305109.7686
14606502.0354
14599160.3064
14584264.7306
14347173.7347
14344459.5124
14338858.4582
14264590.2316
14263725.4831
14261539.7794
14244029.7603
14243339.0628
14242310.5473
14243329.5461
14242916.5194
14242202.7302
14249006.5741
14248631.6207
14247972.971
14256274.0401
14255998.3857
14255317.2347
14264131.4359
14263864.4828
14263107.8786
14271272.3654
14271356.1598
14270736.4509
14280179.2609
14279697.7327
14279031.6256
14288476.2409
14288423.0925
14287845.8051
14299449.9916
14298812.9305
14298203.8287
14311408.469
14310947.1308
14310224.1816
14325536.7607
14325049.2408
14324250.3123
14341429.0912
14341066.219
14340223.1166
14360937.9348
14360545.179
14359580.3627
14374065.4013
14374324.307
14373739.7059
14422690.1763
14420777.7383
14418950.5284
14432892.2305
14432794.8737
14431682.5184
2448237.66329
2324130.4893
4053387.58237
13305322.0149
50584315.4476
211292473.1
99091492.6544
42723503.8838
30360447.2761
22749551.9834
17203479.4275
15250772.6352
14564311.2204
14331578.6696
14258929.8408
14241262.1597
14241696.5954
14247609.3337
14254982.3775
14262728.0433
14270479.0958
14278635.5676
14287575.4079
14297818.7753
14309814.3882
14323797.822
14339771.5948
14359053.2863
14373635.8998
14417809.9205
14431102.8429
14483074.3848
14357959.3624
14294942.5871
14292948.7312
14456638.2257
15916410.641
23612389.0569
2486055.10807
2482268.67442
3376747.90172
6987509.14678
17212310.6205
49634842.5441
110243122.18
31352047.8678
24043951.7862
23026279.5774
19312308.4294
16066759.3426
14845622.899
14456675.1284
14351982.6492
14293664.689
14294906.9668
14474373.6029
16012845.2404
24051108.3938
2433996.22345
3410980.82011
6126434.407
13123992.8342
31739290.6004
90350807.5014
83894669.5358
29134080.3813
24467508.5831
23897834.3234
18242889.887
15659921.7046
14724077.1472
14423879.6768
14340747.1282
14288573.5002
14294636.3873
14494772.2017
16123106.2053
24228677.0582
5065843.07099
8028332.07896
14738895.1019
30696793.0687
74253205.7796
160924399.117
51677682.3824
28248680.3414
24562728.8604
21669316.1906
17123031.911
15257344.3988
14602810.716
14385876.4659
14324325.0025
14279835.0415
14292520.7203
14519316.8376
16250577.7134
24281412.9052
16440028.9185
25041712.1057
44027676.7327
90539906.178
203287880.894
76072454.4515
33662632.7504
26949500.3778
24853818.2475
19106243.5245
16121125.6247
14907486.6213
14492270.8761
14345754.2889
14304106.7907
14268412.4714
14289621.5341
14549769.3439
16398710.7394
24358789.9173
61112595.2417
90372647.5907
157914630.36
174570608.142
81052075.8061
39545429.6421
29427316.6184
25860298.7699
21114870.5997
17105778.825
15343284.9035
14636418.6634
14399115.614
14306576.0198
14282135.9041
14255580.8223
14287337.246
14587410.1176
16570108.7737
24465791.6324
220613889.339
179980254.236
114484172.821
66619627.4421
39647059.8843
30949191.979
27020682.4479
22350054.6619
17858264.0856
15749997.8112
14817037.2894
14447125.6952
14325961.106
14271297.7861
14260777.767
14242843.1511
14287167.2725
14632817.4169
16766399.1428
24607261.6931
86492558.9287
66147798.9326
47560926.5914
35732251.615
31049634.365
27650250.4438
22183400.9627
18041035.5494
15955056.8439
14940646.4566
14499733.9106
14325443.7427
14272096.9897
14242234.2575
14242162.2117
14231864.493
14290154.7222
14686417.317
16987614.5397
24787186.2035
39463469.1526
35174101.6319
32611560.9405
29848748.8754
26351203.2997
20761435.9158
17602087.0758
15866964.1687
14953840.8016
14511475.9537
14326421.4886
14252978.0623
14235489.053
14220852.8951
14227812.4978
14224097.5999
14296802.9546
14748638.6798
17230596.3673
25008409.447
30174019.703
29365012.4295
26286925.1144
21925086.4701
18793660.4632
16771116.5504
15546390.6052
14847295.1028
14480295.6772
14307095.7629
14240330.4512
14213850.0901
14213455.5954
14207539.4962
14218480.7174
14220213.7215
14307303.5649
14818967.3856
17491790.8305
25274262.9433
21800503.3672
20195828.2725
18485529.8787
16996982.6279
15886651.9801
15140264.7072
14677707.7214
14414525.4879
14281155.9791
14221477.3774
14203252.4208
14196609.3049
14203025.7788
14201465.4728
14214091.7905
14220260.9242
14321979.9059
14897003.9069
17778308.196
25590945.0587
16871203.7807
16306898.8689
15706785.5649
15179379.8074
14780248.053
14510070.3718
14344255.2197
14252925.3354
14210207.783
14193494.2873
14192446.3792
14192945.72
14201018.4328
14201113.2237
14214047.9906
14223757.0891
14340683.5367
14982204.0987
18089956.5477
25956325.9103
15131451.6721
14927733.4654
14712896.8707
14525004.8758
14383527.7679
14289208.5091
14233375.5186
14204745.1938
14193664.1641
14191155.0971
14194709.4822
14196933.8165
14204514.6299
14204680.613
14217364.0372
14229982.1894
14362924.8923
15074184.2808
18426804.7716
26367824.0396
14521436.3056
14447757.5851
14370902.8353
14304635.383
14255653.5247
14224121.3897
14206683.2287
14199016.9337
14197565.9463
14198775.2283
14202662.0831
14204579.5577
14211071.1847
14210566.6088
14222926.5729
14238206.6013
14388195.196
15173007.7556
18790413.7454
26824449.4086
14316263.6238
14289812.6948
14262535.9272
14239529.3067
14223052.2355
14213060.2735
14208213.4818
14206858.0857
14207719.8653
14209330.4704
14212455.6192
14213538.645
14218972.1128
14217614.0636
14229810.8844
14247848.4163
14416177.3178
15279237.626
19183768.0884
27326093.1314
14253480.4268
14244092.6532
14234549.6811
14226763.5031
14221452.673
14218551.9754
14217526.1499
14217758.9309
14218820.7475
14220028.8829
14222331.9954
14222623.9997
14227225.4563
14225099.662
14237385.3257
14258516.2585
14446795.382
15393851.2996
19611032.6123
27872749.2458
14239275.7748
14235984.7047
14232721.7514
14230202.7193
14228614.9111
14227921.9828
14227915.1074
14228376.2512
14229178.2778
14229935.2838
14231610.6618
14231306.4107
14235326.4745
14232608.5087
14245269.3468
14270008.1611
14480271.7558
15518492.0113
20078697.3317
28465337.8289
14240849.3449
14239676.037
14238588.6846
14237839.5119
14237436.9134
14237369.1415
14237556.8664
14237929.2462
14238462.2607
14238886.8306
14240137.856
14239428.8896
14243083.2662
14239953.6834
14253282.879
14282287.3973
14517019.5109
15654947.2572
20592609.7944
29103637.258
14247101.4847
14246626.0939
14246260.7032
14246075.152
14246018.8915
14246091.3238
14246262.8445
14246513.9592
14246852.8719
14247061.1847
14248038.7673
14247068.2938
14250519.5235
14247128.8218
14261416.591
14295485.221
14557729.8016
15805613.1268
21161037.5548
29787724.2146
14254536.351
14254262.5528
14254120.4746
14254097.6697
14254125.9409
14254205.2206
14254326.0389
14254484.1587
14254696.6747
14254770.6217
14255573.7663
14254436.5367
14257798.4544
14254261.7779
14269797.5311
14309879.1939
14603282.9743
15973077.7585
21791675.3128
30517000.4271
14262233.4874
14261991.0197
14261911.2671
14261926.3456
14261966.9188
14262026.1018
14262106.0781
14262203.3999
14262338.3238
14262332.1603
14263025.4559
14261783.3065
14265138.029
14261548.1606
14278640.1492
14325865.1952
14654740.0532
16160169.0967
22492732.9556
31289833.3274
14270041.361
14269802.2337
14269731.5635
14269746.5497
14269783.8106
14269823.8993
14269879.8856
14269942.7234
14270035.8817
14269989.0065
14270620.2637
14269319.2647
14272736.5505
14269183.3508
14288189.1492
14343927.6462
14713382.8074
16370206.6222
23273459.1929
32105988.384
14278187.9679
14277931.5025
14277857.8901
14277868.8017
14277906.1957
14277936.5058
14277984.0227
14278032.0388
14278108.2962
14278047.9153
14278650.9741
14277322.2958
14280859.7698
14277430.036
14298760.2596
14364636.657
14780539.0441
16606257.2682
24141348.7758
32964320.2336
14287164.4232
14286893.9439
14286812.9704
14286819.3766
14286858.4092
14286883.6745
14286929.5994
14286971.9064
14287042.6828
14286981.406
14287573.6715
14286230.446
14289930.5336
14286708.194
14310845.4755
14388820.7813
14858061.6802
16872539.9937
25106530.2976
33867128.2619
14297421.0389
14297140.4007
14297048.6641
14297052.2454
14297094.0432
14297118.5256
14297166.8615
14297209.3776
14297281.0056
14297225.7908
14297817.6552
14296463.6621
14300361.0721
14297433.2289
14324927.2758
14417254.3861
14947399.825
17171780.7167
26175143.0929
34817304.5669
14309342.0786
14309033.7657
14308934.5555
14308941.3826
14308988.3744
14309017.046
14309071.1028
14309118.8753
14309195.9169
14309152.1038
14309752.5019
14308392.1029
14312530.916
14310023.2391
14341612.9639
14451224.486
15051882.8022
17511958.4982
27367116.0909
35827067.9196
14323258.0829
14322923.8088
14322811.4081
14322817.7831
14322863.9966
14322893.2236
14322947.2788
14322995.8794
14323072.5024
14323034.3342
14323640.538
14322259.7376
14326664.9652
14324683.7357
14361057.666
14490751.3105
15170112.4849
17887208.1798
27720948.1877
36900310.0081
14339181.1744
14338829.5665
14338708.1611
14338720.6809
14338772.1903
14338809.7298
14338870.856
14338929.198
14339014.5502
14338993.1046
14339623.1257
14338245.5279
14343012.6025
14341841.6099
14384375.3616
14539345.8747
15313228.1725
18327306.0122
27991668.4675
38098422.345
14358280.8549
14357837.5875
14357687.1514
14357693.7483
14357736.7069
14357770.9989
14357825.108
14357878.5188
14357952.8246
14357922.0067
14358552.3682
14357095.3835
14362181.0797
14361746.0921
14410477.6912
14591156.8678
15458629.5809
18768647.094
28224457.03
39411855.5253
14373353.9535
14373106.6075
14372954.0562
14372995.4444
14373064.4502
14373136.461
14373228.0396
14373336.6344
14373478.9262
14373552.7359
14374317.2016
14373104.1947
14378895.9897
14380521.8725
14439565.0141
14661058.2152
15664719.9703
19368810.6873
28649030.9794
40785688.6942
14415982.5354
14415007.5782
14414723.7412
14414640.2452
14414561.66
14414480.3967
14414380.8942
14414264.515
14414124.4402
14413829.5154
14414279.0115
14412221.3819
14418140.3788
14419353.7685
14485092.8151
14730828.8703
15817668.1798
19795324.5724
28830066.8675
42780271.7144
14429963.8801
14429223.8828
14428939.7462
14428865.6654
14428788.2047
14428701.6113
14428581.2137
14428433.3377
14428242.3717
14427900.7734
14428209.5041
14426289.5815
14432392.2531
14436356.2773
14513943.7957
14809101.972
16049702.9692
20401913.4303
29069983.5786
43022738.9742
31662067.5819
48543678.2343
32573253.4331
49935977.5081
33561433.0401
51424044.667
34639447.6149
53005171.2445
35814860.4078
54674631.9688
37089207.1515
56425295.4544
38456615.1885
58247885.8392
39904529.4647
60133240.806
41414461.7078
62072266.1395
42962454.6239
64061435.0357
44555994.792
66099797.1435
46172576.1818
68183684.4233
47798267.9268
70313750.8554
49421897.8241
72494328.4293
51043749.3975
74732937.8702
52661599.0971
77035851.6389
54267576.24
79410882.1966
55866318.5495
81864920.852
57442742.4006
84403262.087
59000582.8294
87032505.4998
60527093.2986
89756066.8104
62021847.2093
92579535.1407
63479867.2765
95506054.4143
64907281.8034
98543770.0773
66303107.093
101683874.971
67683424.4807
104961183.331
69078103.36
108285897.176
70454795.6731
111862948.189
72064039.6152
115157047.707
73236920.2303
119420514.515
75007155.7216
121797156.696
77922535.1408
129069274.052
)
;

boundaryField
{
    inletfuel
    {
        type            zeroGradient;
    }
    inletair
    {
        type            zeroGradient;
    }
    outlet
    {
        type            zeroGradient;
    }
    axis
    {
        type            empty;
    }
    leftside
    {
        type            zeroGradient;
    }
    burnerwall
    {
        type            zeroGradient;
    }
    front
    {
        type            wedge;
    }
    back
    {
        type            wedge;
    }
    procBoundary1to0
    {
        type            processor;
        value           nonuniform List<scalar> 
27
(
2548304.20942
2564597.14416
2592912.02591
2617535.32018
14505216.1864
14360488.7781
14294090.152
14290188.6092
14441920.851
15832794.8104
23218020.8174
2645162.54267
2602841.31798
2587841.35805
4850185.79772
11887506.8095
33666069.0682
110793525.185
30119166.2132
23064103.5153
22166182.4901
20216663.7884
16443691.8962
14962275.4509
14962275.4509
30806142.5787
47222466.3134
)
;
    }
}


// ************************************************************************* //
