/*--------------------------------*- C++ -*----------------------------------*\
  =========                 |
  \\      /  F ield         | OpenFOAM: The Open Source CFD Toolbox
   \\    /   O peration     | Website:  https://openfoam.org
    \\  /    A nd           | Version:  7
     \\/     M anipulation  |
\*---------------------------------------------------------------------------*/
FoamFile
{
    version     2.0;
    format      ascii;
    class       volScalarField;
    location    "0.01";
    object      T;
}
// * * * * * * * * * * * * * * * * * * * * * * * * * * * * * * * * * * * * * //

dimensions      [0 0 0 1 0 0 0];

internalField   nonuniform List<scalar> 
815
(
1130.58620633
1139.34808483
1158.23226668
1197.4945502
1205.34131332
1222.32567923
1312.34380786
1320.02950038
1336.85781021
1525.08981589
1533.35937712
1551.86564298
1853.31766462
1861.08341953
1878.61361358
1982.13953109
1979.67140366
1970.70662062
1371.58194015
1359.38758558
1335.29949893
861.907298414
854.90241826
841.33847084
605.776391887
602.543854086
596.177708001
487.826231033
486.343191776
483.407238938
436.021028352
435.377774985
434.103306559
414.454576618
414.188015865
413.657577114
405.81467928
405.708306558
405.494333923
402.463868453
402.422614021
402.338310062
401.208702342
401.192987493
401.160422699
400.762165313
400.756254768
400.743837333
400.618924554
400.616638304
400.611787181
400.585005712
400.584000955
400.581857895
400.588650471
400.588060151
400.58679766
400.604610487
400.604110074
400.603044422
400.623981591
400.623517616
400.622501663
400.645895131
400.645424192
400.644382261
400.673147943
400.672664199
400.671584445
400.70881807
400.708323552
400.707216106
400.756338206
400.75578359
400.754560693
400.81835439
400.817737974
400.816385546
400.895704128
400.895025955
400.89353946
400.990304585
400.989529066
400.98785334
401.095344563
401.094666683
401.093071195
401.241645283
401.240389113
401.238089345
401.358638067
401.35757631
401.355216317
1184.02312042
1245.69169607
1360.25921638
1577.78847554
1902.13086925
1951.09384208
1299.87558998
821.909754754
587.11435056
479.312735581
432.363884894
412.945913641
405.2103619
402.227084264
401.117685924
400.727688837
400.605634319
400.579300664
400.585431326
400.601976466
400.621491743
400.643332393
400.670477367
400.70606151
400.753290482
400.814985902
400.892003184
400.986119001
401.091393195
401.235769646
401.352726492
401.935238285
400.908696675
400.618614638
400.675397013
402.497020692
417.978114653
499.996159905
1241.80338682
1355.12941509
1508.04517111
1704.02191715
1950.60706023
2218.51903693
1936.11275078
1128.36265679
726.529037869
545.563497076
457.09260317
418.690335314
405.236984853
401.594021598
400.809017404
400.576524714
400.671838203
402.658895126
418.949815112
503.704171064
1298.44499063
1404.4244002
1553.16574687
1752.24848041
2004.06331269
2197.31933852
1607.58615915
969.214674598
658.700902175
513.941861393
443.399909861
413.876968927
403.888502664
401.262116048
400.704880664
400.529130817
400.669720597
402.866743252
420.075482024
507.767907336
1413.71551079
1524.31774618
1684.28445794
1896.22589776
2109.50590834
1910.64105431
1234.84005117
799.951423558
586.475924673
480.728078749
430.064592457
409.420552244
402.688798678
400.964880002
400.604580401
400.481487621
400.675419566
403.137445844
421.387679024
512.199700304
1637.35839772
1760.14819395
1925.82687814
2078.21398747
1935.43008207
1377.09373627
915.374336671
656.390059877
521.883660382
451.674971431
418.815021125
405.815727868
401.743692457
400.723430896
400.515863283
400.438803804
400.696556715
403.485791641
422.913031873
517.038695206
1953.00116135
2033.70529376
2044.32825479
1765.84429394
1323.68458503
940.191228682
692.893723822
550.973085038
471.332019143
429.690152204
410.576472919
403.276078919
401.08616297
400.544955875
400.44380688
400.405107647
400.741274499
403.920118755
424.666807905
522.309888046
1880.20444902
1703.77239248
1439.54920765
1133.72375098
868.905686117
678.793656604
556.176104987
480.833817461
437.651566317
415.337470969
405.374797037
401.723840136
400.680541976
400.4245254
400.39083672
400.384137238
400.817058725
404.440516631
426.650806439
528.014570724
1208.33470319
1065.33450049
902.187030395
748.343353593
625.533520898
536.844343166
476.770584839
439.332815144
417.983556974
407.169006595
402.520155443
400.893036768
400.456759056
400.351493379
400.357453065
400.37978286
400.925844789
405.04329912
428.848644392
534.131330954
773.760669183
704.36179046
629.138254898
559.857288943
503.774452182
462.610790183
434.813679786
417.544736305
407.852334639
403.098887616
401.149596541
400.502159723
400.348596024
400.315200846
400.343027067
400.393698077
401.065846694
405.724422168
431.215852506
540.617865345
565.573230953
534.166597144
500.292367739
469.452912909
444.760315696
426.753575567
414.656100578
407.249586636
403.208836703
401.307872992
400.572486784
400.345308379
400.308983218
400.306820271
400.345833279
400.42455966
401.233192447
406.471715613
433.70463313
547.427212431
470.025454542
456.237620606
441.728798522
428.676185884
418.299005216
410.793865832
405.829100231
402.86680312
401.310827121
400.615342237
400.368249621
400.302628302
400.308965679
400.318485485
400.362703101
400.469833308
401.424782827
407.277084357
436.359911635
554.595070506
428.553732848
422.762204529
416.753633316
411.41199244
407.212974283
404.22428275
402.294598065
401.182060657
400.625008602
400.392888046
400.323294198
400.31299525
400.331344333
400.343529268
400.390189158
400.526310314
401.636821627
408.132410856
439.165958046
562.111711873
411.423074638
409.055363887
406.629743797
404.504036523
402.860039906
401.716251294
401.001426299
400.60689187
400.421625212
400.352983723
400.340797663
400.346171342
400.365362804
400.376316277
400.424601689
400.590710687
401.865672845
409.032538365
442.114239441
569.975095619
404.612176149
403.664930492
402.706705487
401.881327222
401.256510885
400.834375289
400.580587408
400.44808955
400.391757031
400.375888287
400.379496941
400.387240715
400.403869109
400.412274508
400.462516337
400.660290799
402.109184037
409.977771323
445.209173704
578.203673965
401.995717873
401.624612476
401.253996726
400.94101139
400.710077063
400.559416265
400.473172213
400.431642056
400.417144113
400.41639576
400.422660568
400.428943936
400.442474445
400.448299923
400.501412637
400.733333662
402.367307807
410.973822769
448.46663255
586.828030246
401.029612174
400.887385897
400.747335639
400.631723202
400.548951802
400.497204465
400.469498432
400.457911244
400.455778223
400.458287273
400.463664352
400.467834471
400.478675403
400.482447745
400.539639582
400.809061581
402.641858454
412.030571216
451.912523628
595.891140351
400.694660042
400.641421177
400.589913604
400.548539418
400.51996902
400.503075414
400.494939216
400.492519854
400.493406656
400.495877923
400.499812663
400.502180302
400.511004642
400.513482478
400.576201486
400.887560316
402.936736302
413.16354254
455.588712694
605.454116039
400.59322574
400.573648594
400.55523626
400.540999426
400.531628011
400.526539451
400.524571777
400.524619271
400.525851227
400.5276422
400.530388314
400.531471531
400.538960514
400.540960442
400.610870147
400.969815088
403.257180714
414.389408198
459.532389276
615.568482371
400.574324934
400.567024114
400.560564722
400.555905385
400.553068408
400.551768032
400.551558267
400.552065248
400.553023408
400.554188656
400.556098909
400.556340856
400.563041998
400.565305166
400.644241353
401.057805358
403.610401799
415.729625194
463.795989454
626.301077226
400.582948867
400.579889893
400.57755814
400.576130656
400.575400071
400.575210691
400.575392405
400.575834642
400.576467016
400.57717691
400.578525469
400.578238407
400.584545464
400.587715799
400.677722314
401.154506436
404.005016351
417.206871313
468.427800439
637.704346566
400.60016986
400.598427711
400.597429321
400.597028084
400.596926472
400.597011776
400.597216509
400.59751866
400.597914206
400.598335928
400.599333684
400.598754111
400.604981493
400.609693286
400.713171835
401.263641827
404.450919322
418.845633162
473.480040171
649.833107175
400.61980602
400.618381682
400.617764859
400.617666952
400.617745413
400.617890368
400.618074785
400.618302713
400.618595237
400.618901293
400.619752022
400.619113196
400.625585018
400.632576309
400.752489562
401.389449727
404.95961002
420.673945737
479.011551973
662.742682943
400.641581379
400.640146852
400.639604428
400.639589995
400.639730175
400.639900633
400.640094938
400.640321493
400.640615542
400.640932921
400.641787584
400.641269627
400.64827289
400.658355735
400.798264677
401.536960448
405.543051467
422.718158274
485.073577279
676.482060496
400.668618119
400.667072219
400.666502187
400.666498913
400.666662081
400.666845738
400.667057455
400.667302194
400.667626874
400.667991745
400.668897614
400.668568196
400.676291571
400.690314858
400.854486006
401.713306164
406.217603451
425.013678234
491.732464281
691.106840472
400.704106494
400.702431096
400.701804064
400.701793972
400.701973376
400.702172755
400.702409894
400.702683737
400.703051226
400.703476219
400.704449331
400.704337343
400.712948098
400.731881707
400.92535447
401.92539199
406.99658242
427.585762567
499.040280378
706.680819334
400.751166406
400.749339197
400.74864641
400.748627165
400.748821708
400.749038612
400.749301724
400.749604026
400.750009753
400.750486459
400.751517338
400.751626319
400.76130588
400.786386476
401.015696607
402.184189623
407.908669995
430.49738714
507.107078123
723.279257599
400.812651166
400.810643147
400.809860668
400.809808586
400.809987812
400.810188551
400.810437038
400.810723686
400.811118372
400.811595286
400.812635452
400.812935213
400.823876525
400.856469849
401.128426938
402.491090791
408.944986491
433.713997235
515.799633348
740.98285704
400.889438579
400.887246565
400.886383508
400.886317663
400.886502577
400.886712467
400.886970274
400.887265063
400.887667087
400.888157972
400.889222557
400.88976492
400.902355501
400.944757709
401.270945897
402.874539335
410.19627768
437.442819346
525.293684483
759.987519902
400.983207965
400.980747736
400.97976914
400.979665965
400.979829997
400.980022571
400.980259673
400.980533222
400.980911499
400.981388368
400.982465542
400.983254998
400.997801064
401.051218653
401.435443373
403.284147246
411.47982291
441.252078603
534.984792936
780.411930889
401.088505842
401.085949372
401.084878875
401.084762682
401.084922148
401.085113417
401.085339244
401.085601351
401.085962088
401.086434126
401.087541844
401.088777702
401.106243746
401.176962932
401.650455287
403.872964182
413.285686709
446.201006172
546.238614442
801.836842789
401.231820052
401.228594797
401.227297942
401.227061128
401.227101437
401.227171259
401.227245333
401.227332332
401.227476041
401.227695199
401.22859084
401.229705053
401.249571485
401.332659237
401.869997027
404.330747695
414.521873169
449.83247191
556.221929527
826.555207373
401.348481557
401.344860389
401.343372249
401.343048675
401.343006449
401.342983681
401.34293217
401.342864451
401.342808713
401.342800323
401.343470934
401.344987698
401.368724824
401.47553855
402.125202369
405.02031091
416.538938067
454.721189958
565.535541914
845.888243715
949.457607203
1234.21304034
964.204324002
1248.47048925
979.815621739
1262.98604873
996.399869847
1277.74034718
1014.04092154
1292.71410338
1032.78763744
1307.88839353
1052.64219168
1323.24266637
1073.56357212
1338.75340728
1095.46085915
1354.39298548
1118.19639458
1370.13253155
1141.7843948
1385.94682034
1166.16974087
1401.8117276
1191.31572291
1417.69923575
1217.19284681
1433.57873961
1243.82611185
1449.41869515
1271.25612798
1465.18606259
1299.50134317
1480.84415402
1328.62952046
1496.35304867
1358.64220786
1511.66948235
1389.56979149
1526.7472307
1421.40406206
1541.5396376
1454.11596984
1556.00013654
1487.6767269
1570.08504265
1522.02957752
1583.75759116
1557.09411434
1596.98510696
1592.77274894
1609.74751186
1628.96088798
1622.02495777
1665.38833001
1633.81990013
1702.16712286
1645.12932065
1738.37248049
1656.00717689
1774.25655855
1666.43234877
1757.91555699
1674.8154171
)
;

boundaryField
{
    inletfuel
    {
        type            fixedValue;
        value           nonuniform 0();
    }
    inletair
    {
        type            fixedValue;
        value           nonuniform 0();
    }
    outlet
    {
        type            zeroGradient;
    }
    axis
    {
        type            empty;
    }
    leftside
    {
        type            fixedValue;
        value           uniform 294;
    }
    burnerwall
    {
        type            zeroGradient;
    }
    front
    {
        type            wedge;
    }
    back
    {
        type            wedge;
    }
    procBoundary1to0
    {
        type            processor;
        value           nonuniform List<scalar> 
27
(
1083.14938025
1093.26619302
1115.05780714
1144.76517487
402.321052829
401.049907244
400.703582798
400.727992923
402.419953475
417.194906071
496.693435046
1211.31035232
1341.24618307
1512.63458723
1723.45365649
1974.67903126
2252.01073267
2189.53497486
1246.35042145
779.439648296
571.953590285
469.873215974
423.49273151
406.684416169
406.684416169
935.644057489
1220.47248313
)
;
    }
}


// ************************************************************************* //
