/*--------------------------------*- C++ -*----------------------------------*\
  =========                 |
  \\      /  F ield         | OpenFOAM: The Open Source CFD Toolbox
   \\    /   O peration     | Website:  https://openfoam.org
    \\  /    A nd           | Version:  7
     \\/     M anipulation  |
\*---------------------------------------------------------------------------*/
FoamFile
{
    version     2.0;
    format      ascii;
    class       volScalarField;
    location    "0.08";
    object      alphat;
}
// * * * * * * * * * * * * * * * * * * * * * * * * * * * * * * * * * * * * * //

dimensions      [1 -1 -1 0 0 0 0];

internalField   nonuniform List<scalar> 
815
(
0.000254246341818
0.000252823322334
0.000252380409478
0.000253330165333
0.00025308743948
0.000252844881821
0.000313688893911
0.000312827931718
0.000312137636239
0.000366766199961
0.000366629172369
0.000365637308088
0.000400959470376
0.000400069152285
0.000398906648431
0.00041027311589
0.000409878223305
0.00040881511443
0.000402683834386
0.000401683676749
0.00040074625332
0.00037399299026
0.000373887620246
0.000373213587044
0.000330151818836
0.000329768147009
0.000329285717873
0.000275021954952
0.000275147301296
0.000274846133798
0.000226108711396
0.000226023118161
0.000225711535383
0.000195473172868
0.000195359712542
0.000195028987935
0.000191868061621
0.000191755869833
0.000191329569863
0.000214749582698
0.000214409584334
0.000213807459128
0.000254890925451
0.000254605839993
0.000253850166049
0.000300917785535
0.000300367623746
0.0002994066233
0.00034220233965
0.000341661423606
0.000340582438767
0.000374819685659
0.000374292147042
0.000373167321289
0.000398501521505
0.000398009667875
0.00039690491409
0.000414722987567
0.000414284052831
0.000413239975817
0.000424993821153
0.000424690548868
0.000423766244315
0.0004312471847
0.000430804635699
0.000429942403244
0.0004332088034
0.000432943677152
0.000432228571825
0.000432373525992
0.000432037698637
0.000431399844628
0.00042807256701
0.000427852350166
0.000427348063783
0.000420069400378
0.000419918015846
0.000419540019222
0.000403763609009
0.000403690152265
0.000403483595408
0.000358092781617
0.000358168976008
0.000358325207107
0.000236291337549
0.000236496168749
0.000237044126594
0.000118888883536
0.000118947858268
0.000119203474061
0.000140708291898
0.000140714003808
0.000140758733392
0.000251340430056
0.000252796201987
0.000311133029433
0.000364572036656
0.000397171094422
0.000407432462114
0.000399252879688
0.000372471556243
0.000328599882254
0.000274525819057
0.000225305466246
0.000194653200153
0.000190858292952
0.000213111750859
0.000252986217125
0.000298292037416
0.000339359145288
0.000371916134593
0.000395705923365
0.000412153615769
0.000422861771824
0.000429130064331
0.000431630512881
0.000430919589136
0.000427044439551
0.000419396476666
0.000403555458152
0.000358855318028
0.000238095906503
0.000119707413611
0.000140821167099
0.000133692606618
0.000132346514157
0.000117941485117
9.33988693585e-05
9.61249991339e-05
0.000165280359613
0.000206552334062
0.000250185733872
0.000247757366554
0.000243708954425
0.000237484044287
0.000228474229468
0.000216394640774
0.000201809513018
0.00018609699281
0.000168983963141
0.000152136908033
0.000137316189706
0.000126608800528
0.000122364250116
0.000127253198314
0.00013651635441
0.000127455188973
9.74386417353e-05
9.18903328428e-05
0.000152344623668
0.000201726865874
0.000252557109698
0.000251983886897
0.000249597782587
0.000243807158136
0.000233050780346
0.000216524236218
0.000194906617823
0.000170436917051
0.000146572526378
0.000126513304213
0.000111782816412
0.000103469646671
0.000103024655291
0.000112360444709
0.00012782291667
0.000123072235052
9.2938479313e-05
9.51620125228e-05
0.000159492487472
0.000196165896594
0.00030947723019
0.000306022837999
0.000299085464989
0.000286252867314
0.000265229017339
0.000235018303499
0.000197434718465
0.000158464775567
0.000126338883939
0.000105246020585
9.38886216873e-05
9.01652161331e-05
9.34184557012e-05
0.000103086598505
0.000112576465801
0.000103847459642
8.54415179452e-05
0.000105873492231
0.00016725479509
0.000185917106395
0.000361790663986
0.000355340133183
0.000343739930778
0.000324138260816
0.000293922669831
0.000252710558209
0.00020438504406
0.000158017530797
0.000123291347929
0.000102864077635
9.31082137854e-05
9.01381723291e-05
9.16933679018e-05
9.56786901413e-05
9.72001653982e-05
9.00171324143e-05
8.75838949509e-05
0.000119689678678
0.000159592648033
0.000171496084494
0.000393612883355
0.000385661130372
0.000371690437369
0.000348588516464
0.000313812563012
0.000267804614266
0.000216056453589
0.000168702722428
0.000134342672837
0.000113850233651
0.000102859518262
9.7337211351e-05
9.4920300291e-05
9.37356254914e-05
9.15626569533e-05
8.88026266183e-05
9.73299964579e-05
0.000124979813675
0.000140260622274
0.000156185702333
0.000404043586075
0.000396412756355
0.000383060724755
0.000361059506004
0.00032794684661
0.000284127077604
0.000234631846978
0.000188687481157
0.000154080095254
0.000131935029944
0.000118631151229
0.000110437420358
0.000105143584025
0.000101467383725
9.88763347073e-05
9.94526745726e-05
0.000108934343505
0.000121640677938
0.000123467539133
0.000143464013866
0.00039624537589
0.000389799296287
0.000378646820908
0.000360357283725
0.000332741749759
0.000295745304013
0.000252793124121
0.000210868595239
0.000176891002482
0.000153337390834
0.000138297987984
0.000128642376032
0.000122133638155
0.00011755825095
0.000114988901831
0.000116102378051
0.000120849043435
0.000122968146924
0.000121007194747
0.000138758698011
0.000370361308454
0.000365622128634
0.000357357872897
0.000343767120467
0.000323139924561
0.000295110475863
0.000261527768338
0.000226814526293
0.000196283741393
0.000173191670264
0.000157459634863
0.000147294952036
0.000140864284047
0.000137222391497
0.0001363219331
0.000137871468605
0.000139913995477
0.000137752324777
0.00013440237648
0.000145408166809
0.00032718055371
0.000324007921121
0.000318490826302
0.000309351277637
0.000295382670641
0.000276125666127
0.000252414464416
0.000226762036362
0.000202726641938
0.000183350870419
0.000169887746815
0.000161925945876
0.000158604189083
0.000158878503605
0.000161699445798
0.000165580627589
0.000167968067908
0.00016456390035
0.000159482432325
0.000160468713328
0.000273585783287
0.000271387836399
0.000267611530004
0.000261460881754
0.000252242068719
0.000239715500117
0.000224427868456
0.000207975574074
0.000192783974134
0.000181224425399
0.000174718084659
0.000173549223011
0.000177029238537
0.000183854162634
0.000192414357071
0.000200277417757
0.000204518247566
0.000201063214983
0.000192254055452
0.000175822612347
0.000224484517593
0.000222755448132
0.000219934734119
0.000215615852208
0.000209595735662
0.000202053671535
0.000193735616967
0.000186088745977
0.000181051117813
0.000180401681275
0.000185046700366
0.000194704877612
0.000207995666654
0.000222734591055
0.000236231652403
0.000245581338869
0.000248865253278
0.000244020676386
0.000229476358424
0.000184595105881
0.000193870755738
0.000192281360756
0.000189907369512
0.000186715123152
0.000183003233137
0.000179546328884
0.000177647254244
0.0001790045572
0.000185330615754
0.000197692084297
0.000215817476893
0.000237992685246
0.000261311928861
0.000282302902202
0.000297715469812
0.000305190131999
0.000304300512038
0.000294581097754
0.000270136714695
0.000200099175352
0.000189893860986
0.000188029187665
0.00018556733211
0.00018282166766
0.000180625954941
0.000180477101128
0.000184401051172
0.000194498250113
0.00021217929283
0.000237346416468
0.000267990280772
0.000300699240279
0.000331514979979
0.000356700438705
0.000373323657106
0.000379707963892
0.00037563336195
0.000360233601908
0.000325211407098
0.00024232197994
0.000211798558855
0.00020928508329
0.000206181709631
0.000203119058103
0.000201434853215
0.000203323366671
0.000211502166309
0.000228359591043
0.00025482763183
0.000289629339924
0.000329457316935
0.000370088119395
0.00040745059084
0.000438055754296
0.000459227374526
0.000469250920531
0.000466899553921
0.000449961881381
0.000409244155621
0.000319563236744
0.00025128070847
0.000247953528661
0.000243838487803
0.000239747227404
0.000237324810618
0.000239257022302
0.000248837223931
0.000268805757426
0.000299995594389
0.000340755681466
0.00038752223244
0.000436072028932
0.000482421873587
0.000523114591459
0.00055519750157
0.000576097507287
0.00058274032311
0.00057072288169
0.000527994602287
0.000425544688307
0.000296215209304
0.000292163555805
0.000286995515372
0.000281485270026
0.000277298553886
0.000277325778916
0.000285354446296
0.00030483689963
0.000337368468576
0.000381972818272
0.000435620237791
0.000494364830342
0.000554151969842
0.000611130268322
0.00066156468454
0.000701452383799
0.000725131289757
0.000724129470975
0.000678804064956
0.000545921018892
0.000337068317705
0.000332566805717
0.00032659287624
0.000319713739588
0.000313370424142
0.000310389962349
0.000314948710287
0.000331523423939
0.000363250234873
0.000410731035563
0.000472125905511
0.000544017094465
0.00062217621707
0.000701988307925
0.000778436561168
0.000845322713974
0.000893367522965
0.00090704346703
0.000853683692669
0.000666675805277
0.000369579067733
0.000364964861616
0.000358596276122
0.000350735599133
0.00034244118313
0.000336238225183
0.000336482530351
0.000348730604962
0.00037814887948
0.000427793236139
0.000497842075477
0.000585845366952
0.000687325447792
0.000796427141838
0.000906105501719
0.00100686527892
0.00108435120959
0.00111316912558
0.00104392137766
0.000783610689356
0.000393483701215
0.000389076036111
0.000382748490609
0.000374431551224
0.000364720000376
0.000355652725724
0.000351476755863
0.000358627744915
0.000384513888374
0.000435467138137
0.000514796703068
0.000621720358814
0.000751392809709
0.00089597910349
0.00104513094375
0.00118463138609
0.00129310648799
0.00133383698525
0.00123934448897
0.00089133852193
0.000410169343526
0.000406221211026
0.000400308714669
0.000392048909242
0.000381555159937
0.000370279615562
0.00036208673175
0.000363915296917
0.000385367622501
0.000436786782311
0.000525972282212
0.000654717073988
0.000817537234463
0.00100325388145
0.00119648469892
0.00137663789865
0.00151364241795
0.00155963769519
0.00143185782855
0.000990325851251
0.000421208340571
0.000417895072693
0.000412678759525
0.000404906373981
0.000394245620965
0.000381537153161
0.000370087405808
0.000366977397776
0.000383780770996
0.000435424607002
0.000535613398888
0.000689688065693
0.000890732563308
0.00112214905537
0.00136159393029
0.0015803686178
0.00173946403321
0.00178131768249
0.00161374035525
0.00108145362375
0.000427800747933
0.000425196320561
0.000420844731326
0.00041386150544
0.000403540553679
0.000390172020679
0.000376469903778
0.000369441604598
0.000382417170643
0.000435362552369
0.000549073806209
0.000732877180539
0.000976847038361
0.00125660266002
0.00154087729376
0.00179229652383
0.00196434551387
0.00199266375649
0.00177944265899
0.00116222260353
0.000430679584935
0.000428810261725
0.00042538279937
0.000419354338226
0.000409739129534
0.000396399848189
0.000381576476466
0.000372254103974
0.00038358889358
0.000440991016329
0.000572914818451
0.000792067713717
0.00108285852865
0.00141048128317
0.00173396891037
0.0020086262886
0.00218225324741
0.00218792456166
0.00192533519201
0.00123039228732
0.000430283933132
0.000429102073944
0.000426578300606
0.000421564578818
0.000412891421915
0.000400177422739
0.000385446869481
0.000376040218941
0.000389496299192
0.000457187692438
0.000614689747611
0.00087557707706
0.001214733464
0.0015853999084
0.00193828099069
0.00222346383914
0.00238585246895
0.00235862761503
0.00204355741178
0.00127989974621
0.000426733887327
0.000426179716425
0.000424495948885
0.000420492476707
0.000412937569584
0.000401421414846
0.000388177197302
0.000381692689064
0.00040307720535
0.00049003353711
0.000683001567426
0.000991138846974
0.00137580591204
0.00177946248662
0.00214739705142
0.00242730270577
0.00256427502394
0.0024933357488
0.00212268682767
0.00130232949182
0.000419393082132
0.000419452355797
0.000418607586857
0.000415676628042
0.000409495007639
0.000399913631593
0.00039000962762
0.000390702096218
0.000428291162081
0.000546216045885
0.000785022585012
0.00114162732974
0.00156211055822
0.00198242171268
0.00234649206286
0.00260237273097
0.0026969293798
0.00256987218444
0.00214057652864
0.00128117653273
0.000403982301574
0.000404931429914
0.000405274157312
0.000403851890899
0.000399685963736
0.000393244653255
0.000389313186908
0.000402927544409
0.000466868957762
0.000627909119655
0.000918582541734
0.00131556951205
0.00175346421306
0.00216782887834
0.00250451825583
0.00271358623003
0.00274579124472
0.00254907644851
0.00206140908507
0.00119538257783
0.000360255543605
0.000363242578109
0.000366144166167
0.000367670231693
0.000367003394435
0.000365456924287
0.00037031070225
0.000402347827645
0.000501696934182
0.000714005626915
0.00105155358354
0.00146858552499
0.00189658533063
0.00227554694906
0.00255528030399
0.00269020768015
0.00263866563282
0.00236180342446
0.00182816925399
0.00101840639924
0.000240650853624
0.000245990974743
0.000251806369941
0.000256545707635
0.000259251050405
0.000261458118774
0.000271904824291
0.000316936073526
0.000447225484299
0.000703747213513
0.00106704388893
0.00147287264308
0.00185640920617
0.00216528240112
0.00235696643626
0.00239488906008
0.00225165397175
0.00191158148984
0.00138863424669
0.000746615195085
0.000120895696196
0.00012319799065
0.00012548644799
0.000126882648623
0.000126821399089
0.00012614491792
0.00012997893599
0.000155693424768
0.000245858142699
0.000450780554223
0.000757053194198
0.00109263342875
0.00139082433603
0.00160489875443
0.00170394352122
0.00166774379733
0.00149277404092
0.00119427895656
0.000821425362746
0.000463496110158
0.000140927166793
0.000140979044312
0.000140680320064
0.000139719241113
0.000137935833048
0.000135741163449
0.000135191391249
0.000142902911158
0.000174685810797
0.00025158058104
0.000377290281886
0.000527059796266
0.000664939594435
0.000760864057523
0.000796275063604
0.000766450945699
0.000677496327657
0.000550953307989
0.00041298562816
0.000302836006595
0.00013614355411
5.20436739155e-05
0.000134984834169
5.21503899552e-05
0.000131915463696
5.16590617467e-05
0.000127478838405
5.12821142528e-05
0.000122554395449
5.1532728083e-05
0.000118246139566
5.32559867408e-05
0.000116358296293
5.76517189388e-05
0.000119282670502
6.56326301835e-05
0.000126543206588
7.9050640096e-05
0.000132439605742
0.000105750320798
0.000124781664243
0.000167716812691
7.83441318308e-05
5.44599261968e-05
7.25797224911e-05
6.18654680483e-05
7.80788103718e-05
6.87006020208e-05
8.83458382694e-05
7.52421773989e-05
0.000100744274275
8.12323836761e-05
0.000113651337701
8.65349586387e-05
0.000126239434547
9.11137564982e-05
0.00013885134585
9.5061410145e-05
0.000151068646037
9.85033563856e-05
0.000162858956391
0.000101524536256
0.000174310016372
0.000104156497649
0.000184718076636
0.000106400329928
0.000193689541602
0.000108259449954
0.000200255598997
0.000109716609919
0.000202998885729
0.000110759932707
0.000200499085772
0.000111386578123
0.000191323030508
0.000111623332517
0.000176285583739
0.000111600280592
0.000161380941599
0.000111478096463
0.0001609611908
0.000111339874289
0.000192032244701
0.000110459290353
)
;

boundaryField
{
    inletfuel
    {
        type            calculated;
        value           nonuniform 0();
    }
    inletair
    {
        type            calculated;
        value           nonuniform 0();
    }
    outlet
    {
        type            calculated;
        value           nonuniform List<scalar> 
26
(
0.000140455979757
0.000140462429086
0.000140507229681
0.000140570004347
0.000140676413069
0.000140728193562
0.000140430184794
0.000139470881604
0.000137690883379
0.00013550031446
0.000134951879307
0.000142650165497
0.000174377619398
0.000251137943517
0.000376628987855
0.000526139075445
0.000663783164214
0.000759544304704
0.000794899817153
0.000765128861913
0.000676331844635
0.000550006084027
0.000412277004269
0.000302313135734
0.000191689242878
0.000110269268041
)
;
    }
    axis
    {
        type            empty;
    }
    leftside
    {
        type            compressible::alphatWallFunction;
        Prt             0.85;
        value           nonuniform List<scalar> 
32
(
0
0
0
0
0
0
0
0
0
0
0
1.60045570079e-06
3.74592970851e-06
5.5668950843e-06
7.26537665272e-06
8.83427593759e-06
1.02590593856e-05
1.1529385709e-05
1.26642055121e-05
1.36898918063e-05
1.46223781229e-05
1.54648543022e-05
1.62119543881e-05
1.68597795646e-05
1.73962051674e-05
1.7808666841e-05
1.80843489207e-05
1.82169001594e-05
1.8233103569e-05
1.81861474675e-05
1.81322238167e-05
1.78934572391e-05
)
;
    }
    burnerwall
    {
        type            compressible::alphatWallFunction;
        Prt             0.85;
        value           nonuniform 0();
    }
    front
    {
        type            wedge;
    }
    back
    {
        type            wedge;
    }
    procBoundary1to0
    {
        type            processor;
        value           nonuniform List<scalar> 
27
(
0.00026893954074
0.000268991816793
0.000268160900632
0.000267413122799
0.000122561168858
0.000115975434613
0.000100067666282
8.90523419706e-05
0.000118604411871
0.000210222583978
0.000211409447429
0.000265345310524
0.000261021602331
0.000255153220264
0.000247747317465
0.000238738189269
0.00022799883123
0.000214886903927
0.000199348153153
0.000182950967538
0.000168382665681
0.000154603352913
0.000142956128521
0.000135622323786
0.000135622323786
0.000135161866198
5.12126417153e-05
)
;
    }
}


// ************************************************************************* //
