/*--------------------------------*- C++ -*----------------------------------*\
  =========                 |
  \\      /  F ield         | OpenFOAM: The Open Source CFD Toolbox
   \\    /   O peration     | Website:  https://openfoam.org
    \\  /    A nd           | Version:  7
     \\/     M anipulation  |
\*---------------------------------------------------------------------------*/
FoamFile
{
    version     2.0;
    format      ascii;
    class       volScalarField;
    location    "0.08";
    object      dQ;
}
// * * * * * * * * * * * * * * * * * * * * * * * * * * * * * * * * * * * * * //

dimensions      [1 2 -3 0 0 0 0];

internalField   nonuniform List<scalar> 
815
(
0.00366156971447
0.0109338967641
0.0182343817309
0.00604762199607
0.0182407069313
0.0303963486271
0.00150052812393
0.00449907115167
0.0075028826642
0.000565752160069
0.00169720477959
0.00282379859375
0.000283501563723
0.000847972523385
0.00140708018715
0.000160845182367
0.00048132743511
0.00079725946804
9.49663927211e-05
0.000283740169214
0.000469448882295
5.41695872907e-05
0.000162192879208
0.000268208978198
2.89467910835e-05
8.65955765962e-05
0.000143137377591
1.41499730915e-05
4.23962645779e-05
7.00883467819e-05
6.71231321381e-06
2.00873329233e-05
3.31905437124e-05
3.37841929111e-06
1.01026234267e-05
1.66854541223e-05
2.02022189187e-06
6.03491913302e-06
9.95527415713e-06
1.44881629455e-06
4.32379195843e-06
7.12773623625e-06
1.15187633745e-06
3.44012052665e-06
5.67338693584e-06
9.48947606033e-07
2.83320128789e-06
4.67506138489e-06
7.77497629142e-07
2.32334134335e-06
3.83816228933e-06
6.24647601011e-07
1.86760250574e-06
3.08846501058e-06
4.87699204671e-07
1.45890465069e-06
2.41501455975e-06
3.68475058686e-07
1.1028020927e-06
1.82727428336e-06
2.68914641993e-07
8.05284579178e-07
1.33550851861e-06
1.89615710688e-07
5.67808973592e-07
9.4233669409e-07
1.28942201448e-07
3.86386405818e-07
6.41831359723e-07
8.49011288381e-08
2.54419280332e-07
4.22875489023e-07
5.40970586083e-08
1.62187580184e-07
2.69785183004e-07
3.35391187502e-08
1.00573699773e-07
1.67386094108e-07
2.04350549268e-08
6.12854805422e-08
1.02039397192e-07
1.28477320359e-08
3.85284598854e-08
6.41579059791e-08
9.94658852798e-09
2.98296853065e-08
4.96713606917e-08
9.13656424491e-09
2.74315263475e-08
4.57424023537e-08
4.99242729791e-09
1.49976727134e-08
2.50463879264e-08
0.0218640366039
0.0362916458069
0.00897412022316
0.00337550501013
0.00167500385488
0.000947391930541
0.000556593509103
0.000317977569405
0.00016946332501
8.30140055528e-05
3.92773303644e-05
1.97433877451e-05
1.17683669321e-05
8.42120307062e-06
6.70841743778e-06
5.53364462915e-06
4.55083321564e-06
3.66773845437e-06
2.87233433962e-06
2.17643760745e-06
1.59281859289e-06
1.12513587889e-06
7.67337829107e-07
5.06031818806e-07
3.2317913303e-07
2.00663679466e-07
1.22390429136e-07
7.69465421663e-08
5.94896410707e-08
5.48272856563e-08
3.01014463281e-08
0.212575316989
0.143756583062
0.086696901143
0.0407700794577
0.0122352685096
0.00175596022852
0.000189429525874
0.0819176524535
0.13385771126
0.203447859558
0.298274094622
0.430746506485
0.627009493209
0.958763954474
1.01265167383
0.819426650229
0.633447765846
0.476995959379
0.357202733218
0.268850454022
0.202063319602
0.146381442279
0.0918395334579
0.0442317088357
0.0138336408756
0.00200152867769
0.000203051889792
0.132984899372
0.200455315486
0.268266568683
0.330632945121
0.380334718837
0.409403622528
0.416008693151
0.399342657
0.356646675021
0.300289061346
0.241966220778
0.191331624359
0.151717323305
0.122001961375
0.0985402848187
0.0684751785178
0.033350810888
0.00971984996482
0.00134448370228
0.000143817517079
0.0331422115663
0.0514859751717
0.0717911455226
0.0926623706062
0.111925126054
0.126816591448
0.135204739218
0.135409194487
0.12702825138
0.112621101693
0.0958596660574
0.0800686916795
0.0669701735199
0.0572043171855
0.04970010234
0.0374122233281
0.018369959797
0.00515744540341
0.00071884097578
8.68375681875e-05
0.0124463703115
0.0193710054915
0.0270976175722
0.0350612129626
0.0423771207714
0.0479136072732
0.0506479139043
0.0501194461807
0.0469015514053
0.0423244291049
0.0376435149223
0.0336092057127
0.0302612416741
0.0273573894181
0.0242626237334
0.01833975353
0.00882117873637
0.00241310106227
0.000379872542396
5.97759655982e-05
0.00613771654107
0.00945759593233
0.0130643929982
0.0166476858512
0.0197661907479
0.0219053046011
0.0226583667647
0.0220187623746
0.0205167947378
0.0188189489511
0.0172880807252
0.0160230841266
0.0148932891901
0.0136478922459
0.0118460166948
0.00849771945925
0.0040344435968
0.00116965736657
0.00022837559182
5.81268647685e-05
0.00345435267773
0.00526911034169
0.00718297717923
0.0090097828853
0.0105135525337
0.0114556657477
0.0116942214582
0.0113009697127
0.010559517973
0.00975477923847
0.0090190214312
0.00836978121706
0.00775384917862
0.00701176923555
0.00582537679908
0.00393122563262
0.00193149094003
0.000639432246849
0.000174597111867
7.35693882866e-05
0.00202262767544
0.00305907812681
0.00412510148343
0.00510765606991
0.00588456517189
0.00634560612864
0.00644899585548
0.00624804466926
0.00587119016779
0.00543510534067
0.00499975307917
0.00457654266848
0.00414996000686
0.00365712173486
0.00295461709006
0.00199378812305
0.00105262055805
0.000424079262404
0.000176871245486
0.000102358265247
0.00115297873801
0.00173469421749
0.00232400201362
0.00285926214709
0.00327646707476
0.00352589768216
0.00359391392464
0.0035072721526
0.00331877517009
0.00307564387185
0.00280708817013
0.00252728908498
0.00224102626132
0.0019365171592
0.00156625528607
0.00110664024185
0.000657881654059
0.000343376259983
0.000204868412213
0.000135057918352
0.000613464291062
0.000921056662334
0.0012319378728
0.00151522162989
0.00173964861657
0.00188227412544
0.00193591113834
0.00190979600059
0.00182320780504
0.00169464954163
0.00153912460129
0.00137079489507
0.00120220076944
0.00103445830259
0.000855184200151
0.000652654705897
0.000453995090787
0.000307488386097
0.00022642136814
0.00015844148821
0.000300409891028
0.000451026123984
0.000603756628669
0.000744360427542
0.000858700143114
0.000936392854872
0.000973225627337
0.000971319523772
0.000937631136377
0.000880592741743
0.000808939945275
0.000730564528342
0.000652158686638
0.000575382498493
0.00049883173661
0.000418531040326
0.000340221584352
0.00027648775439
0.000226693169612
0.000163424664746
0.000142060253238
0.000213415811849
0.000286126797218
0.000353895504255
0.000410629014393
0.000451682383295
0.000474550920194
0.000479379810134
0.000469017796531
0.000448144805433
0.000421818161759
0.000393816473785
0.000366914789643
0.000341956939116
0.000317490535493
0.000291609108273
0.000265133298927
0.000239261241319
0.000207211291852
0.000151602358729
7.13826417316e-05
0.000107237401304
0.00014389892789
0.000178532286286
0.000208516890535
0.000231816527376
0.000247250543315
0.000254672227728
0.000255250036491
0.000251334239027
0.000245395872294
0.000239048844782
0.000233156232507
0.000227607558325
0.000221543400193
0.000214267049802
0.000205710424895
0.000194319053767
0.000172359099352
0.000125973069238
4.24880684858e-05
6.37260445735e-05
8.5444471965e-05
0.000106158306454
0.00012458438183
0.000139777681607
0.000151197466902
0.00015875069184
0.000162964508099
0.000164944382381
0.000165867150156
0.000166383096432
0.000166586596411
0.000166161559603
0.000164649262635
0.00016181849252
0.000157380298564
0.000149445722473
0.000131856444223
9.2551404365e-05
3.03937224466e-05
4.5578088143e-05
6.11314274978e-05
7.60408173885e-05
8.94698916173e-05
0.000100835928245
0.000109807860539
0.000116343785344
0.000120791447531
0.000123774888426
0.00012584213441
0.000127192823601
0.000127693932804
0.000127091439328
0.000125189242585
0.000121908885683
0.000116980234317
0.00010893433895
9.329373512e-05
6.1404091237e-05
2.425214652e-05
3.6480796701e-05
4.90976886775e-05
6.12541725159e-05
7.22229734571e-05
8.14949562964e-05
8.87996064131e-05
9.41316013005e-05
9.77629808049e-05
0.000100081007916
0.000101342817734
0.000101591079741
0.000100731437113
9.86513279929e-05
9.53053123489e-05
9.0676315365e-05
8.45487007412e-05
7.58593948328e-05
6.19230793643e-05
3.81730961123e-05
2.00607594783e-05
3.03430112325e-05
4.1100802352e-05
5.1590871203e-05
6.11150335442e-05
6.91392092598e-05
7.53518935403e-05
7.96940624547e-05
8.23478970918e-05
8.35843414311e-05
8.35900902316e-05
8.24348194038e-05
8.01331047823e-05
7.66953860589e-05
7.21607318202e-05
6.65524318514e-05
5.9753981114e-05
5.10885475973e-05
3.93330514839e-05
2.28337964214e-05
1.65559380366e-05
2.52092946403e-05
3.44280197165e-05
4.35863745952e-05
5.2027034257e-05
5.91786437439e-05
6.46425621445e-05
6.82509293418e-05
7.00858501231e-05
7.03682554532e-05
6.93159060458e-05
6.70946023609e-05
6.38139351682e-05
5.95589043105e-05
5.44162134887e-05
4.84520680038e-05
4.16417796446e-05
3.37115976314e-05
2.43405369538e-05
1.33756081497e-05
1.33901034618e-05
2.05330401832e-05
2.82974198801e-05
3.61910531343e-05
4.36318480705e-05
5.00439933733e-05
5.49494993803e-05
5.80608593704e-05
5.9349766186e-05
5.900380001e-05
5.72971260609e-05
5.44858920223e-05
5.07437516531e-05
4.61926212071e-05
4.09487618575e-05
3.51340853938e-05
2.88179337251e-05
2.20296936082e-05
1.4894112231e-05
7.76681935369e-06
1.05218917907e-05
1.62489623749e-05
2.26049205601e-05
2.92331820687e-05
3.56581677841e-05
4.13465275973e-05
4.57818989595e-05
4.8573537114e-05
4.95783844941e-05
4.89390036265e-05
4.69774538128e-05
4.40087219047e-05
4.02302098803e-05
3.57690659556e-05
3.07721464766e-05
2.54198451484e-05
1.98802656715e-05
1.43533623772e-05
9.10725813789e-06
4.53047796032e-06
7.99864912339e-06
1.24373900214e-05
1.74653435932e-05
2.28474019083e-05
2.82287621182e-05
3.31580995908e-05
3.7133874035e-05
3.97017859975e-05
4.06105930283e-05
3.9942303249e-05
3.80408070883e-05
3.52437023087e-05
3.17256008321e-05
2.76040713332e-05
2.30637753211e-05
1.83448588939e-05
1.36932612015e-05
9.36235088458e-06
5.6066530761e-06
2.67646005588e-06
5.87135738271e-06
9.18902569538e-06
1.30219224124e-05
1.72317775441e-05
2.15773841702e-05
2.57113238979e-05
2.91922548389e-05
3.15501543794e-05
3.24524277723e-05
3.1916743117e-05
3.02889558033e-05
2.78796236188e-05
2.47967945991e-05
2.115168518e-05
1.71787621826e-05
1.31726397535e-05
9.41026579374e-06
6.12187155401e-06
3.48736363445e-06
1.6100173494e-06
4.15893158868e-06
6.5489649447e-06
9.36127487798e-06
1.25264113108e-05
1.58970355302e-05
1.92295966867e-05
2.21701704976e-05
2.42806519992e-05
2.51869985344e-05
2.48550262266e-05
2.36204642894e-05
2.17104524183e-05
1.91367675041e-05
1.60242493278e-05
1.26683449508e-05
9.39005581267e-06
6.45027508431e-06
4.02011929354e-06
2.19574982147e-06
9.86994030292e-07
2.84397036214e-06
4.50377646883e-06
6.48984403479e-06
8.7762461489e-06
1.12831287676e-05
1.38545178965e-05
1.62299565333e-05
1.80371945039e-05
1.89090342904e-05
1.87916857218e-05
1.798895007e-05
1.65854369972e-05
1.45118235185e-05
1.19412410086e-05
9.20997824251e-06
6.62630392526e-06
4.40167790245e-06
2.64819729702e-06
1.39840634791e-06
6.14683005078e-07
1.87978211926e-06
2.99212292351e-06
4.34319063003e-06
5.93074514831e-06
7.71805572723e-06
9.61469155711e-06
1.14413169316e-05
1.29070802183e-05
1.36934582165e-05
1.37666713482e-05
1.33603365456e-05
1.23856835507e-05
1.07570964983e-05
8.70818288143e-06
6.57302036048e-06
4.61317098035e-06
2.98214704962e-06
1.74408737672e-06
8.96346859118e-07
3.86050385971e-07
1.20312565793e-06
1.9237442025e-06
2.81077066596e-06
3.87199475685e-06
5.09542998066e-06
6.4327060899e-06
7.76764176905e-06
8.88739789589e-06
9.55341297478e-06
9.77797989136e-06
9.66744648898e-06
9.00123078424e-06
7.75258347213e-06
6.18446058704e-06
4.58649923594e-06
3.15656233121e-06
1.9983409504e-06
1.14308023095e-06
5.74107244734e-07
2.41727329689e-07
7.48287029576e-07
1.2010451825e-06
1.76475312742e-06
2.44991100561e-06
3.25638892611e-06
4.16034032011e-06
5.08894738679e-06
5.89615062942e-06
6.43733339069e-06
6.75692290779e-06
6.80265472978e-06
6.33403999344e-06
5.40661879346e-06
4.26136019765e-06
3.11845460858e-06
2.11546712905e-06
1.31808197081e-06
7.40445095928e-07
3.63922348793e-07
1.48704077299e-07
4.56929379231e-07
7.35333327977e-07
1.08498572014e-06
1.51557732418e-06
2.03141626651e-06
2.62182164897e-06
3.24181591974e-06
3.79973836584e-06
4.23325668776e-06
4.56812209438e-06
4.64443290876e-06
4.3036266231e-06
3.64277170491e-06
2.84618911839e-06
2.06385539234e-06
1.38559738267e-06
8.52654938987e-07
4.712900767e-07
2.26115110412e-07
8.82641102878e-08
2.87140257031e-07
4.61620095274e-07
6.81158113817e-07
9.53717978675e-07
1.28509465481e-06
1.67179531266e-06
2.08644380961e-06
2.47329214706e-06
2.80696969263e-06
3.06376945404e-06
3.09410465149e-06
2.83768508103e-06
2.38266927008e-06
1.84960560037e-06
1.33260130889e-06
8.87529917267e-07
5.4019005126e-07
2.93463576739e-07
1.3646686846e-07
4.95261554958e-08
2.21091067131e-07
3.52363457532e-07
5.15851130079e-07
7.19523129379e-07
9.72187048744e-07
1.27719371037e-06
1.61412478575e-06
1.91437305929e-06
2.10565056391e-06
2.17546980444e-06
2.09888556086e-06
1.873789363e-06
1.55045547481e-06
1.19282589547e-06
8.53081437431e-07
5.63163148277e-07
3.3833532831e-07
1.7972149892e-07
7.99143305605e-08
2.57375208494e-08
2.04041509808e-07
3.26513140741e-07
4.8188498973e-07
6.81597544374e-07
9.41472136588e-07
1.27666684654e-06
1.67719452335e-06
2.03334210147e-06
2.1237605318e-06
1.93809035179e-06
1.6666786409e-06
1.38097501835e-06
1.09355881497e-06
8.18898616414e-07
5.74584223757e-07
3.72510268488e-07
2.18731233278e-07
1.11861172287e-07
4.61427435876e-08
1.22506852645e-08
1.12736093118e-07
1.82835653652e-07
2.74468909797e-07
3.95610919106e-07
5.57486100264e-07
7.73758099218e-07
1.05665915155e-06
1.3940885723e-06
1.68171174559e-06
1.73162489076e-06
1.54062681113e-06
1.25337952781e-06
9.61708738914e-07
6.99230021214e-07
4.77758815276e-07
3.01518974562e-07
1.70684468071e-07
8.2343760494e-08
3.04977891687e-08
6.66234650596e-09
1.18411722413e-05
2.52505445122e-06
1.1994150911e-05
2.64430888486e-06
8.62278034302e-06
2.32112278822e-06
6.0869580192e-06
2.39986440939e-06
5.71258540814e-06
3.25716888651e-06
7.27765305869e-06
5.00109137725e-06
1.0533891305e-05
7.68004654746e-06
1.50722437209e-05
1.09808085076e-05
1.94471682141e-05
1.3709567344e-05
2.15312449351e-05
1.38126219918e-05
1.97208912792e-05
9.6228173767e-06
1.66689658289e-05
1.075758708e-05
9.93816283421e-06
2.89988701438e-06
5.92535675933e-06
1.1416026164e-06
3.82341379319e-06
6.45847760518e-07
2.58001718609e-06
4.29429669468e-07
1.73661797844e-06
2.95934860879e-07
1.14141180023e-06
2.00684890696e-07
7.3329631102e-07
1.33505025087e-07
4.64715066904e-07
8.73156529952e-08
2.9304735299e-07
5.66274893766e-08
1.85713791449e-07
3.68369996786e-08
1.18608613444e-07
2.40633927441e-08
7.61580928689e-08
1.57346778513e-08
4.87031448904e-08
1.0172675841e-08
3.05392272597e-08
6.38083302353e-09
1.83708365132e-08
3.78641852914e-09
1.02812484076e-08
2.05283354467e-09
5.08083419132e-09
9.69566370136e-10
2.08135180781e-09
3.83475712405e-10
7.16840468649e-10
1.36447508935e-10
3.0712689529e-10
6.76209058608e-11
)
;

boundaryField
{
    inletfuel
    {
        type            zeroGradient;
    }
    inletair
    {
        type            zeroGradient;
    }
    outlet
    {
        type            zeroGradient;
    }
    axis
    {
        type            empty;
    }
    leftside
    {
        type            zeroGradient;
    }
    burnerwall
    {
        type            zeroGradient;
    }
    front
    {
        type            wedge;
    }
    back
    {
        type            wedge;
    }
    procBoundary1to0
    {
        type            processor;
        value           nonuniform List<scalar> 
27
(
0.00124926064494
0.00376881275052
0.00634362798994
0.00773305408699
0.151898114262
0.0999191165942
0.0542917226006
0.0224055991921
0.00596492280357
0.00084259172617
0.000107680946916
0.0298667593839
0.0518144353339
0.0854333003866
0.138315700137
0.223193887986
0.360823505104
0.575288631889
0.906044070159
1.24989124387
0.873056534969
0.607143777131
0.425055709392
0.301297311741
0.301297311741
7.12997632056e-06
1.56226558153e-06
)
;
    }
}


// ************************************************************************* //
