/*--------------------------------*- C++ -*----------------------------------*\
  =========                 |
  \\      /  F ield         | OpenFOAM: The Open Source CFD Toolbox
   \\    /   O peration     | Website:  https://openfoam.org
    \\  /    A nd           | Version:  7
     \\/     M anipulation  |
\*---------------------------------------------------------------------------*/
FoamFile
{
    version     2.0;
    format      ascii;
    class       volScalarField;
    location    "0.08";
    object      ed::R_O2;
}
// * * * * * * * * * * * * * * * * * * * * * * * * * * * * * * * * * * * * * //

dimensions      [1 -3 -1 0 0 0 0];

internalField   nonuniform List<scalar> 
815
(
-2.07987499274
-2.07024854896
-2.07149806978
-3.30333035272
-3.3211608905
-3.32067872415
-0.78940961472
-0.788981094882
-0.789474477464
-0.286673128315
-0.286671862661
-0.286193776341
-0.1383412133
-0.13793381279
-0.137337621142
-0.0755830521962
-0.0753962395213
-0.0749360008752
-0.0429824668154
-0.0428087291306
-0.0424988604351
-0.0236261548207
-0.0235806543689
-0.023397449336
-0.0121754780413
-0.0121412613809
-0.0120416287151
-0.00574408729956
-0.00573683237306
-0.00569046911156
-0.00263046653476
-0.00262397951623
-0.00260139301113
-0.00127765484554
-0.00127353601263
-0.00126201715225
-0.000736730134673
-0.000733598731998
-0.000726088289278
-0.000509101937747
-0.000506446464113
-0.000500920510348
-0.000389785495044
-0.000388034955863
-0.000383961818624
-0.000309118601217
-0.000307636549473
-0.000304576748515
-0.000243749912652
-0.000242793031097
-0.000240655613111
-0.000188443575513
-0.00018780575056
-0.000186344813183
-0.000141566902848
-0.000141161126716
-0.000140203503276
-0.00010291002946
-0.000102665854335
-0.000102066626285
-7.22584292067e-05
-7.21277854666e-05
-7.17715123165e-05
-4.90188026206e-05
-4.89294131958e-05
-4.87221692501e-05
-3.20693579114e-05
-3.20329259341e-05
-3.19263258504e-05
-2.03146535186e-05
-2.02920427276e-05
-2.02368048602e-05
-1.24527497167e-05
-1.24448358091e-05
-1.24206332539e-05
-7.42734708797e-06
-7.42414857735e-06
-7.41371772049e-06
-4.35354473174e-06
-4.35216258629e-06
-4.34780607327e-06
-2.63312684811e-06
-2.63213047702e-06
-2.62985011612e-06
-1.96104234486e-06
-1.96038821279e-06
-1.95864088596e-06
-1.73280372283e-06
-1.73419186924e-06
-1.73508885898e-06
-9.10767468537e-07
-9.12011570791e-07
-9.1385471275e-07
-2.0724581474
-3.30819726547
-0.787941489498
-0.285476555749
-0.136426909885
-0.0743077212139
-0.0420469582518
-0.0231468013054
-0.011895920462
-0.00562387011937
-0.00256867371214
-0.00124600335418
-0.000716176922152
-0.000493807764557
-0.000378819394569
-0.000300806914834
-0.000238084709147
-0.000184646856773
-0.000139137452603
-0.000101437169979
-7.14238953606e-05
-4.85398034418e-05
-3.18484140079e-05
-2.02060335137e-05
-1.24149022785e-05
-7.41583918881e-06
-4.35136022821e-06
-2.63175593439e-06
-1.95733962302e-06
-1.73530525826e-06
-9.16422604689e-07
-0.161962977325
-0.090170777242
-0.0451024710443
-0.0176911658319
-0.00442027447627
-0.000526704681293
-4.71600671347e-05
-2.08661696811
-2.1342588308
-2.21261249205
-2.32766723139
-2.49387460319
-2.75757849409
-3.26000616904
-2.69874309524
-1.73025395513
-1.06917393055
-0.648228244732
-0.393179739691
-0.24090222092
-0.148067514454
-0.0881654535363
-0.0458182611775
-0.0184271489126
-0.00480385699061
-0.000577261477316
-4.86067927114e-05
-3.25790261962
-3.07456151909
-2.80741730812
-2.48368513156
-2.12055590924
-1.73479558493
-1.36355462303
-1.02638456874
-0.726604412786
-0.489219736351
-0.317492890741
-0.203385205902
-0.131287485756
-0.0863122220808
-0.0572602290157
-0.0329260765778
-0.0133832041346
-0.00324786823255
-0.000372895261018
-3.31002739322e-05
-0.782101961573
-0.760785826036
-0.72394921102
-0.670921160706
-0.60170957936
-0.518377662259
-0.427722887065
-0.336086792878
-0.250047419206
-0.177346237759
-0.121613050476
-0.0823144682693
-0.0560673656753
-0.0391762315475
-0.0279789456728
-0.0174237473181
-0.00711422379858
-0.0016584324514
-0.00019169762401
-1.92127603368e-05
-0.282931708144
-0.275765417992
-0.263308537924
-0.244682864263
-0.21965608998
-0.188910077909
-0.154613223929
-0.120088992535
-0.0891558159349
-0.0643797043444
-0.0461424414758
-0.0333954053758
-0.024499916251
-0.018132131972
-0.013225604086
-0.00825946777841
-0.00329203534149
-0.000746253359843
-9.73666998821e-05
-1.27107884462e-05
-0.134374339379
-0.129680950831
-0.122287882863
-0.111933402729
-0.0987296244968
-0.0832432839462
-0.0666808968336
-0.0508674709679
-0.0376064736186
-0.0276045297323
-0.0204382412776
-0.0153590466866
-0.0116359601477
-0.00873160230071
-0.00623163225423
-0.00368844624992
-0.00144819121678
-0.000347548485766
-5.62314017349e-05
-1.18754980209e-05
-0.0728278136561
-0.0695754132591
-0.0647475645227
-0.058337087724
-0.0505701455438
-0.0419207195261
-0.0331383963846
-0.0251374762802
-0.0186348494206
-0.0137754525492
-0.0102645895693
-0.00772323775981
-0.00583108450424
-0.00431678038148
-0.00294742083178
-0.00163985918362
-0.000665691494872
-0.000182360239515
-4.12683505527e-05
-1.4435503088e-05
-0.0410701460419
-0.0389013050648
-0.0358073376807
-0.0318434563429
-0.0272496153468
-0.022351121978
-0.0175862994989
-0.0133713133067
-0.00996639296648
-0.00738129563439
-0.00547089885622
-0.00405898230598
-0.00299848057301
-0.00216214691983
-0.00143476662304
-0.0007977112
-0.000347813799551
-0.000115953178103
-4.01009567732e-05
-1.92811530528e-05
-0.0225585672561
-0.0212538339101
-0.0194337985181
-0.0171695556049
-0.0146103007966
-0.0119559000732
-0.00943188906648
-0.00722110673697
-0.00541814683998
-0.00401584612635
-0.0029520730155
-0.00215335972954
-0.00155480797319
-0.0010987335758
-0.000729441166282
-0.000424382386388
-0.000208286231142
-8.99703026844e-05
-4.45345088685e-05
-2.44176753102e-05
-0.0115740924209
-0.0108808690327
-0.00993137214304
-0.00876993656359
-0.00747523345931
-0.00614864023258
-0.00489279334742
-0.00378537412012
-0.00286445036996
-0.00212862205778
-0.0015565532131
-0.00112274635868
-0.000801414636522
-0.000563640815997
-0.000382247334672
-0.000240070944384
-0.000137815728827
-7.72439344096e-05
-4.72058870216e-05
-2.74992409497e-05
-0.00546958438545
-0.0051413910469
-0.00469599059964
-0.00415599128293
-0.0035586419612
-0.00294934067292
-0.00237100047062
-0.00185522110939
-0.00141908280098
-0.00106517006111
-0.000787555211992
-0.000575817860824
-0.000418198035348
-0.000301446938946
-0.000214291501631
-0.000147893834652
-9.91759386134e-05
-6.66804611508e-05
-4.53772839391e-05
-2.7247985808e-05
-0.00249678360421
-0.00234823371671
-0.00214790243465
-0.00190676982067
-0.00164191577575
-0.00137236899946
-0.00111499230867
-0.000882825763922
-0.000684245216286
-0.000522384409214
-0.000395637296256
-0.000298954151379
-0.000226544329278
-0.000172447786043
-0.000131245377392
-9.91284909039e-05
-7.43306323996e-05
-5.54820117844e-05
-3.98762448883e-05
-2.43015179102e-05
-0.00121065518672
-0.00113856284643
-0.00104226030384
-0.00092802123507
-0.000804273275082
-0.000679320594259
-0.000560195841388
-0.00045217239224
-0.00035894370755
-0.000282341085019
-0.000221771925308
-0.000174818567913
-0.000138661091576
-0.000110542486814
-8.81889569646e-05
-7.01313264369e-05
-5.55247578852e-05
-4.33791530669e-05
-3.19243304372e-05
-1.94241959289e-05
-0.000694857070224
-0.000652400308212
-0.000596715800593
-0.00053202244873
-0.000463256732309
-0.000394835495785
-0.00033017206316
-0.000271626793022
-0.000220815755868
-0.000178518813931
-0.000144404297547
-0.000117207802348
-9.54269189294e-05
-7.77293797265e-05
-6.31290285706e-05
-5.1016769201e-05
-4.09190967043e-05
-3.21352140027e-05
-2.3517386612e-05
-1.37310488241e-05
-0.000478948979892
-0.000449597495733
-0.000411346731113
-0.000367169512371
-0.000320521263039
-0.000274402350708
-0.000230989401181
-0.000191747991895
-0.000157642958411
-0.000129020124177
-0.000105514010917
-8.629183929e-05
-7.04476553941e-05
-5.72601887022e-05
-4.62322457278e-05
-3.70222162119e-05
-2.92991983288e-05
-2.25635782519e-05
-1.60229805653e-05
-8.76608746852e-06
-0.000368030411214
-0.000346545168686
-0.000318148934097
-0.000284824371419
-0.00024915496316
-0.000213553647557
-0.000179870853976
-0.000149383143879
-0.000122851764149
-0.00010044778375
-8.18168522618e-05
-6.63647905644e-05
-5.35121914861e-05
-4.28009682801e-05
-3.38950376438e-05
-2.65208108622e-05
-2.03950262863e-05
-1.51317473821e-05
-1.02387850166e-05
-5.24352132652e-06
-0.000293053342388
-0.000277474435573
-0.000256384619067
-0.000230935015836
-0.000202964416743
-0.00017441310185
-0.000146933837939
-0.000121750058697
-9.96178402426e-05
-8.07597486461e-05
-6.49671490426e-05
-5.18434862034e-05
-4.09842148171e-05
-3.20371625188e-05
-2.47098170624e-05
-1.87419071062e-05
-1.38780603768e-05
-9.81064048637e-06
-6.25940169397e-06
-3.0174503683e-06
-0.000232765713911
-0.00022186836133
-0.000206695100226
-0.00018778086631
-0.000166299989334
-0.000143687290603
-0.00012132530154
-0.000100360460074
-8.16077595857e-05
-6.54440162242e-05
-5.18565073723e-05
-4.06173792965e-05
-3.14174140086e-05
-2.39490818414e-05
-1.7937236078e-05
-1.31344199996e-05
-9.30918931947e-06
-6.23040432182e-06
-3.72709996776e-06
-1.70023982847e-06
-0.000181156669017
-0.000173899409862
-0.000163486621154
-0.000150047221323
-0.000134215653426
-0.000116937157498
-9.92554106363e-05
-8.21683175165e-05
-6.65112179016e-05
-5.28147115201e-05
-4.12563891166e-05
-3.17469005337e-05
-2.40454289971e-05
-1.78774999484e-05
-1.29911883325e-05
-9.16611547412e-06
-6.19962233778e-06
-3.91747385945e-06
-2.19399119619e-06
-9.49567647224e-07
-0.000136972043115
-0.000132416818529
-0.000125666114786
-0.000116625084726
-0.000105550167073
-9.29720321588e-05
-7.95809995448e-05
-6.61541395994e-05
-5.34704347251e-05
-4.21582058508e-05
-3.25539558537e-05
-2.46781312133e-05
-1.83465242584e-05
-1.33223781489e-05
-9.39475422347e-06
-6.38142979005e-06
-4.11499806486e-06
-2.4554988852e-06
-1.2904144606e-06
-5.32698704195e-07
-0.000100184068673
-9.75203657871e-05
-9.34216792447e-05
-8.77035266734e-05
-8.04020679032e-05
-7.17449191345e-05
-6.21137019209e-05
-5.20332907392e-05
-4.21487354037e-05
-3.31123707188e-05
-2.53685729178e-05
-1.90188120568e-05
-1.39228865423e-05
-9.89343021755e-06
-6.77533249398e-06
-4.43094235385e-06
-2.72675497258e-06
-1.54067340881e-06
-7.64063667885e-07
-3.02645327859e-07
-7.07536385484e-05
-6.93215108068e-05
-6.7016897985e-05
-6.36439827356e-05
-5.91332472688e-05
-5.35298312741e-05
-4.6985958731e-05
-3.97895443004e-05
-3.24115034702e-05
-2.54617781888e-05
-1.94376549351e-05
-1.4477546209e-05
-1.04714278153e-05
-7.29434072282e-06
-4.85543256695e-06
-3.06091927169e-06
-1.80257885186e-06
-9.68982351502e-07
-4.5707051628e-07
-1.75076006969e-07
-4.82180407334e-05
-4.75327030306e-05
-4.63522775027e-05
-4.45131523961e-05
-4.19172804607e-05
-3.85209619687e-05
-3.43350576826e-05
-2.94651672047e-05
-2.42058423183e-05
-1.90801688347e-05
-1.45862802202e-05
-1.08483370917e-05
-7.77581003826e-06
-5.31689140643e-06
-3.44477293114e-06
-2.09900057288e-06
-1.1884850913e-06
-6.12000073276e-07
-2.76764956293e-07
-1.03210427204e-07
-3.17221431159e-05
-3.14492074906e-05
-3.0916357606e-05
-3.00051056522e-05
-2.8624620595e-05
-2.67031167122e-05
-2.41847377412e-05
-2.10612814072e-05
-1.74860008156e-05
-1.38808544144e-05
-1.06890974257e-05
-7.97418951124e-06
-5.67336895266e-06
-3.81189372173e-06
-2.40921025933e-06
-1.42479486906e-06
-7.80065250561e-07
-3.87723824029e-07
-1.69507362704e-07
-6.18107130546e-08
-2.01719733536e-05
-2.01010490653e-05
-1.99055304911e-05
-1.95079806728e-05
-1.88383245388e-05
-1.78294951998e-05
-1.64037591611e-05
-1.45009867364e-05
-1.2184186661e-05
-9.78463470079e-06
-7.63855451389e-06
-5.72954985427e-06
-4.04602297035e-06
-2.67424094819e-06
-1.65396722641e-06
-9.54090103536e-07
-5.08293474337e-07
-2.45572701941e-07
-1.04482479519e-07
-3.73293317362e-08
-1.24208071818e-05
-1.24333232868e-05
-1.23935209771e-05
-1.22531380805e-05
-1.19655058779e-05
-1.14767996476e-05
-1.0714904619e-05
-9.60691808958e-06
-8.17876090334e-06
-6.68666265875e-06
-5.3178827163e-06
-4.00602597129e-06
-2.80518872891e-06
-1.82694008483e-06
-1.11009048143e-06
-6.27892602662e-07
-3.27570044879e-07
-1.54777995516e-07
-6.43513980462e-08
-2.24758004316e-08
-7.43189721061e-06
-7.4678262622e-06
-7.4860286966e-06
-7.45873823826e-06
-7.35688832253e-06
-7.14117311224e-06
-6.75377981989e-06
-6.13201271444e-06
-5.30226335147e-06
-4.44558365053e-06
-3.60004270669e-06
-2.7118734489e-06
-1.88186444375e-06
-1.21083859715e-06
-7.25939944059e-07
-4.04698408381e-07
-2.07779969582e-07
-9.64113198458e-08
-3.92244675773e-08
-1.32948976647e-08
-4.36583739321e-06
-4.39853513595e-06
-4.42775128248e-06
-4.43903154563e-06
-4.4152557513e-06
-4.32959352038e-06
-4.13918007415e-06
-3.8018644886e-06
-3.35454727554e-06
-2.89139591075e-06
-2.36444397373e-06
-1.7724047895e-06
-1.21956718567e-06
-7.77830111725e-07
-4.62057917972e-07
-2.54913539072e-07
-1.29253519941e-07
-5.90080287591e-08
-2.34341290327e-08
-7.58768644099e-09
-2.63932159577e-06
-2.65637853547e-06
-2.67418098976e-06
-2.68730150536e-06
-2.68708343874e-06
-2.65594283874e-06
-2.56286361904e-06
-2.38072067322e-06
-2.13981511822e-06
-1.8654531107e-06
-1.5151768335e-06
-1.12408145783e-06
-7.67215649602e-07
-4.86134295644e-07
-2.86913826538e-07
-1.57019188632e-07
-7.87428091996e-08
-3.53309062549e-08
-1.35990476551e-08
-4.09370837041e-09
-1.95496312807e-06
-1.95059398737e-06
-1.94822896119e-06
-1.95036568219e-06
-1.95556696595e-06
-1.95195833413e-06
-1.9073636509e-06
-1.77268503543e-06
-1.54412143288e-06
-1.27412869136e-06
-9.88604278035e-07
-7.13897502437e-07
-4.80146203885e-07
-3.01505993624e-07
-1.76630807464e-07
-9.58104190019e-08
-4.74247229104e-08
-2.08054659458e-08
-7.65714274983e-09
-2.0455432663e-09
-1.73556471609e-06
-1.7387328566e-06
-1.75072011453e-06
-1.77729121463e-06
-1.82175919414e-06
-1.87695017901e-06
-1.90651635581e-06
-1.81122146742e-06
-1.49810947635e-06
-1.09182977669e-06
-7.55061884367e-07
-5.06031225176e-07
-3.25698344796e-07
-1.99064296027e-07
-1.14409083106e-07
-6.09444910784e-08
-2.94830423219e-08
-1.24521895753e-08
-4.25128044418e-09
-9.36230004921e-10
-9.22390226256e-07
-9.36532617292e-07
-9.59172777261e-07
-9.92269886169e-07
-1.03764540751e-06
-1.09423821998e-06
-1.15537469712e-06
-1.1944836628e-06
-1.14107182644e-06
-9.38312645612e-07
-6.7131562119e-07
-4.41731185969e-07
-2.75478393021e-07
-1.63471494667e-07
-9.14878411801e-08
-4.74404237021e-08
-2.21249879909e-08
-8.81485193342e-09
-2.70205855617e-09
-4.89632727741e-10
-1.29197743158e-05
-2.69761993191e-06
-1.25816863996e-05
-2.71583849276e-06
-8.69491204734e-06
-2.29153498151e-06
-5.8993340124e-06
-2.27722789879e-06
-5.32059358024e-06
-2.97036612126e-06
-6.51301224454e-06
-4.38277211283e-06
-9.05714815072e-06
-6.46755232447e-06
-1.24491992125e-05
-8.88560821085e-06
-1.54295863177e-05
-1.06601099392e-05
-1.64132091367e-05
-1.03221837122e-05
-1.4450945513e-05
-6.91353379091e-06
-1.1746575377e-05
-7.43390612123e-06
-6.73663565598e-06
-1.9278054099e-06
-3.8638963519e-06
-7.30121113478e-07
-2.39841826134e-06
-3.97361424412e-07
-1.55677128724e-06
-2.54147083053e-07
-1.00785797543e-06
-1.68457829731e-07
-6.37091299453e-07
-1.09871417359e-07
-3.93623923895e-07
-7.02948527985e-08
-2.39893317214e-07
-4.42141082701e-08
-1.4547555363e-07
-2.75759217976e-08
-8.86565905341e-08
-1.72510158698e-08
-5.44494311796e-08
-1.08370414408e-08
-3.36201457223e-08
-6.81447711568e-09
-2.06749191651e-08
-4.23672187022e-09
-1.24665607953e-08
-2.55560550638e-09
-7.21140830507e-09
-1.45838200737e-09
-3.88101098062e-09
-7.60380115644e-10
-1.84439183126e-09
-3.45381984436e-10
-7.26609011155e-10
-1.31375428406e-10
-2.40676166746e-10
-4.49569141639e-11
-9.91735251262e-11
-2.14268215319e-11
)
;

boundaryField
{
    inletfuel
    {
        type            calculated;
        value           nonuniform 0();
    }
    inletair
    {
        type            calculated;
        value           nonuniform 0();
    }
    outlet
    {
        type            calculated;
        value           uniform 0;
    }
    axis
    {
        type            empty;
    }
    leftside
    {
        type            calculated;
        value           uniform 0;
    }
    burnerwall
    {
        type            calculated;
        value           nonuniform 0();
    }
    front
    {
        type            wedge;
    }
    back
    {
        type            wedge;
    }
    procBoundary1to0
    {
        type            processor;
        value           uniform 0;
    }
}


// ************************************************************************* //
