/*--------------------------------*- C++ -*----------------------------------*\
  =========                 |
  \\      /  F ield         | OpenFOAM: The Open Source CFD Toolbox
   \\    /   O peration     | Website:  https://openfoam.org
    \\  /    A nd           | Version:  7
     \\/     M anipulation  |
\*---------------------------------------------------------------------------*/
FoamFile
{
    version     2.0;
    format      ascii;
    class       volScalarField;
    location    "0.08";
    object      ed::R_H2;
}
// * * * * * * * * * * * * * * * * * * * * * * * * * * * * * * * * * * * * * //

dimensions      [1 -3 -1 0 0 0 0];

internalField   nonuniform List<scalar> 
815
(
-0.262080639963
-0.260867632184
-0.261025081654
-0.41624565701
-0.418492445288
-0.418431688528
-0.0994718325579
-0.0994178356813
-0.0994800057748
-0.0361230733537
-0.0361229138713
-0.0360626712273
-0.0174320831019
-0.0173807474271
-0.017305622581
-0.00952406022435
-0.0095005203551
-0.00944252665869
-0.00541612955082
-0.00539423723337
-0.00535519133575
-0.00297708169813
-0.00297134828263
-0.0029482630047
-0.00153420618454
-0.00152989461567
-0.00151734011462
-0.000723800267194
-0.000722886089281
-0.000717043952957
-0.000331459513307
-0.00033064209785
-0.00032779602021
-0.000160994579357
-0.000160475573952
-0.000159024106766
-9.28338029206e-05
-9.24392215059e-05
-9.14928465356e-05
-6.41508562376e-05
-6.38162456328e-05
-6.31199319099e-05
-4.91160441595e-05
-4.88954624273e-05
-4.83822150359e-05
-3.89513798254e-05
-3.87646296261e-05
-3.8379070592e-05
-3.0714409915e-05
-3.05938352981e-05
-3.03245037875e-05
-2.37453755826e-05
-2.3665004612e-05
-2.34809149893e-05
-1.78385454057e-05
-1.77874144152e-05
-1.76667463151e-05
-1.29674747154e-05
-1.29367067254e-05
-1.28611992687e-05
-9.10513152731e-06
-9.08866938649e-06
-9.04377616189e-06
-6.17675543285e-06
-6.16549166087e-06
-6.13937729049e-06
-4.04099182594e-06
-4.0364011097e-06
-4.02296865906e-06
-2.5598064371e-06
-2.55695729925e-06
-2.54999689264e-06
-1.56914460073e-06
-1.56814738601e-06
-1.56509767332e-06
-9.35904265805e-07
-9.35501228261e-07
-9.34186858094e-07
-5.48580945195e-07
-5.48406783976e-07
-5.47857829003e-07
-3.31794733754e-07
-3.31669183144e-07
-3.31381839701e-07
-2.47106789846e-07
-2.4702436405e-07
-2.46804187099e-07
-2.18346924789e-07
-2.18521842176e-07
-2.18634869952e-07
-1.14763878524e-07
-1.14920645213e-07
-1.15152895625e-07
-0.261146059001
-0.416858926371
-0.0992868372101
-0.0359722957804
-0.0171908657856
-0.00936335847008
-0.00529824809934
-0.00291667937756
-0.00149897972643
-0.000708651955094
-0.000323673130686
-0.00015700624201
-9.02439361692e-05
-6.22236698868e-05
-4.77342290791e-05
-3.79040418393e-05
-3.00005496276e-05
-2.32669591006e-05
-1.7532415529e-05
-1.27818828136e-05
-8.99997368599e-06
-6.11639776148e-06
-4.01315115291e-06
-2.54611946049e-06
-1.56437552526e-06
-9.34454179821e-07
-5.48305680535e-07
-3.31621987822e-07
-2.46640217714e-07
-2.18662137968e-07
-1.15476470246e-07
-0.0204086115252
-0.0113622285417
-0.00568326679079
-0.00222922631366
-0.000556989418884
-6.63689406465e-05
-5.94254011348e-06
-0.262930181992
-0.268933432142
-0.278806610941
-0.293304414811
-0.314247853489
-0.347476621914
-0.410786468442
-0.340062897995
-0.218025633965
-0.134724341092
-0.0816818673309
-0.049543745734
-0.030355578315
-0.0186576736974
-0.0111095419514
-0.0057734619885
-0.00232196598188
-0.000605323838591
-7.27394953685e-05
-6.12483893736e-06
-0.410521404637
-0.387418981113
-0.353756705246
-0.312963899763
-0.267206756036
-0.218597915111
-0.171818628271
-0.129332544293
-0.091557882165
-0.061645542176
-0.0400066063007
-0.0256281387622
-0.016543257843
-0.0108760201832
-0.00721524010687
-0.00414894512946
-0.00168638919003
-0.000409256992788
-4.69877415653e-05
-4.1708953689e-06
-0.0985510106719
-0.0958650096082
-0.0912233058177
-0.0845413535798
-0.0758201488942
-0.0653196706254
-0.0538964545275
-0.0423495845031
-0.0315079453696
-0.0223470235708
-0.0153242027564
-0.0103722716979
-0.00706492992538
-0.00493651391126
-0.00352556764855
-0.00219552947347
-0.00089644826371
-0.000208975558491
-2.41554113374e-05
-2.4209592125e-06
-0.0356516249271
-0.0347486158925
-0.033178950835
-0.0308319691702
-0.027678398382
-0.0238041585609
-0.0194824846761
-0.0151321594451
-0.0112343354184
-0.00811235010477
-0.00581431126085
-0.00420808425665
-0.00308718252421
-0.00228479152244
-0.0016665303419
-0.0010407580305
-0.000414822396583
-9.40338043417e-05
-1.22689715032e-05
-1.60165951417e-06
-0.0169322257261
-0.0163408217818
-0.0154092369553
-0.0141044908578
-0.0124407107455
-0.0104893097929
-0.00840231849341
-0.00640970221342
-0.00473871204142
-0.00347838828939
-0.0025753794687
-0.00193536092261
-0.00146622267816
-0.00110025070106
-0.00078523477368
-0.000464773295041
-0.00018248350608
-4.37938481331e-05
-7.08559976161e-06
-1.49640633792e-06
-0.00917687845509
-0.00876705037385
-0.00815870338623
-0.00735093279052
-0.00637223686685
-0.00528234102505
-0.00417569909834
-0.00316752011231
-0.00234813788272
-0.00173581558146
-0.00129341917792
-0.000973188822284
-0.000734762600583
-0.000543948347333
-0.000371398252555
-0.00020663518038
-8.38823744712e-05
-2.29788273058e-05
-5.20013739327e-06
-1.81898715101e-06
-0.00517516206292
-0.00490187100783
-0.00451200673479
-0.00401252644805
-0.00343366627984
-0.0028164175118
-0.00221601232928
-0.001684890852
-0.00125584405597
-0.000930101419737
-0.000689376370416
-0.000511463758189
-0.000377832182336
-0.000272447551137
-0.000180791901473
-0.000100517897726
-4.38272797609e-05
-1.46110142336e-05
-5.05303657718e-06
-2.4295772337e-06
-0.00284255725166
-0.00267815056784
-0.00244881176528
-0.0021634993144
-0.00184101303982
-0.00150653763013
-0.0011884923523
-0.00090991635626
-0.000682729200646
-0.000506028259614
-0.000371984464365
-0.000271340295912
-0.000195918057602
-0.000138449089344
-9.19153354612e-05
-5.34755251167e-05
-2.6245706566e-05
-1.13369671675e-05
-5.6116990807e-06
-3.07681951755e-06
-0.00145842685702
-0.00137107524702
-0.00125143115622
-0.00110508112028
-0.000941938325973
-0.000774777124917
-0.000616530520429
-0.000476986970546
-0.0003609433205
-0.00026822315432
-0.000196137971585
-0.000141474889224
-0.000100984559913
-7.10231847018e-05
-4.81661765466e-05
-3.02508309203e-05
-1.73658679171e-05
-9.73334447216e-06
-5.94831378033e-06
-3.46512107304e-06
-0.000689210736741
-0.000647855789689
-0.000591731823265
-0.000523687653785
-0.000448416931713
-0.000371640167668
-0.00029876474445
-0.000233772480231
-0.000178815616295
-0.00013421982199
-9.92381632002e-05
-7.25575883137e-05
-5.26962481486e-05
-3.79846899212e-05
-2.70024179733e-05
-1.86357886736e-05
-1.24969498415e-05
-8.40226359395e-06
-5.71789538125e-06
-3.43346094511e-06
-0.000314614410542
-0.000295895954039
-0.000270652633749
-0.000240268024092
-0.000206894327196
-0.000172929309165
-0.000140497817817
-0.000111243003542
-8.62202895858e-05
-6.58245523177e-05
-4.98534172286e-05
-3.76705790429e-05
-2.85463708178e-05
-2.17297800513e-05
-1.65379518574e-05
-1.24909710561e-05
-9.36624546004e-06
-6.99117072213e-06
-5.02472110879e-06
-3.06218276974e-06
-0.000152552094341
-0.000143467891327
-0.000131333012028
-0.000116937989079
-0.0001013447709
-8.55997484009e-05
-7.05890907523e-05
-5.69772848589e-05
-4.52297358802e-05
-3.55772017589e-05
-2.79450103076e-05
-2.20285172504e-05
-1.74723902856e-05
-1.39292244911e-05
-1.11125035686e-05
-8.83709981524e-06
-6.99655706769e-06
-5.46611514468e-06
-4.02271722128e-06
-2.44760176337e-06
-8.75574668108e-05
-8.22075802081e-05
-7.51908934151e-05
-6.70390212512e-05
-5.83739990599e-05
-4.97523840505e-05
-4.16042819463e-05
-3.42271165311e-05
-2.78245254228e-05
-2.24947774091e-05
-1.81960794984e-05
-1.47691067758e-05
-1.20245438164e-05
-9.79451440774e-06
-7.95475510105e-06
-6.42851496737e-06
-5.15612865602e-06
-4.04929021244e-06
-2.96337604667e-06
-1.73022036217e-06
-6.03513459213e-05
-5.6652827607e-05
-5.1832929822e-05
-4.62662521129e-05
-4.0388205076e-05
-3.45768586728e-05
-2.91064849079e-05
-2.41617580879e-05
-1.98642550972e-05
-1.62575524157e-05
-1.32955969002e-05
-1.0873451791e-05
-8.87695975675e-06
-7.21523502705e-06
-5.82562730433e-06
-4.66509100381e-06
-3.69192988772e-06
-2.84318867662e-06
-2.01902182359e-06
-1.10459610397e-06
-4.63747321516e-05
-4.36674222742e-05
-4.00892729337e-05
-3.58901154153e-05
-3.13954888745e-05
-2.69094425452e-05
-2.26651451098e-05
-1.8823453373e-05
-1.54802904411e-05
-1.26572123517e-05
-1.03095681593e-05
-8.36248661235e-06
-6.74295784097e-06
-5.39325930504e-06
-4.27104185987e-06
-3.34183117129e-06
-2.56993403923e-06
-1.90671941896e-06
-1.29016760093e-06
-6.60725009779e-07
-3.69270306074e-05
-3.4963965576e-05
-3.23064824937e-05
-2.90996319257e-05
-2.5575116012e-05
-2.1977425331e-05
-1.85148215223e-05
-1.5341466872e-05
-1.25526329292e-05
-1.01763647731e-05
-8.18637276621e-06
-6.53268782478e-06
-5.16433405141e-06
-4.03693495276e-06
-3.1136316806e-06
-2.3616279948e-06
-1.74874497636e-06
-1.23621801603e-06
-7.8873394193e-07
-3.80222526038e-07
-2.93303143103e-05
-2.79571620064e-05
-2.60452115313e-05
-2.36618690004e-05
-2.0955109217e-05
-1.81057309729e-05
-1.52879441228e-05
-1.26462088804e-05
-1.02832208344e-05
-8.24646178915e-06
-6.53432859468e-06
-5.11810988489e-06
-3.95884175642e-06
-3.01777304764e-06
-2.26023310387e-06
-1.65504042843e-06
-1.17303121721e-06
-7.85080044519e-07
-4.69643968108e-07
-2.14243617473e-07
-2.28271679381e-05
-2.19126960923e-05
-2.0600602655e-05
-1.89071323644e-05
-1.69122300454e-05
-1.47350033918e-05
-1.25069639426e-05
-1.03538555512e-05
-8.3809376108e-06
-6.65506986862e-06
-5.19863015807e-06
-4.00035965517e-06
-3.02991354853e-06
-2.25270588078e-06
-1.6369921096e-06
-1.15500278518e-06
-7.81201271946e-07
-4.93632578742e-07
-2.76460180914e-07
-1.19653006811e-07
-1.72595568685e-05
-1.66855626723e-05
-1.58349208004e-05
-1.46956797631e-05
-1.33001528608e-05
-1.1715208737e-05
-1.00278330969e-05
-8.33594293069e-06
-6.73769616001e-06
-5.31226617353e-06
-4.10205498564e-06
-3.10963901391e-06
-2.31180664008e-06
-1.67872463648e-06
-1.18381306943e-06
-8.04110443703e-07
-5.18522185252e-07
-3.09412210594e-07
-1.6260239141e-07
-6.71242347692e-08
-1.26239821738e-05
-1.22883346183e-05
-1.17718678134e-05
-1.10513355263e-05
-1.01312941807e-05
-9.04042521139e-06
-7.82681594171e-06
-6.55660469208e-06
-5.31107282256e-06
-4.17241965935e-06
-3.19664010985e-06
-2.39652020078e-06
-1.75439342647e-06
-1.2466501746e-06
-8.53745288629e-07
-5.58333655528e-07
-3.43592615292e-07
-1.94136991101e-07
-9.62780435128e-08
-3.81356963684e-08
-8.91551604555e-06
-8.73505666393e-06
-8.44465728642e-06
-8.01964338405e-06
-7.45125516746e-06
-6.74518059328e-06
-5.92060108252e-06
-5.01379615145e-06
-4.0841048627e-06
-3.20838470851e-06
-2.44929770422e-06
-1.82428491559e-06
-1.31948242695e-06
-9.19144415613e-07
-6.1182276766e-07
-3.85699950431e-07
-2.27139140924e-07
-1.22099412552e-07
-5.75944870886e-08
-2.20609566002e-08
-6.07585312449e-06
-5.989495173e-06
-5.84075225391e-06
-5.60900799687e-06
-5.28190767571e-06
-4.85394478035e-06
-4.32648785242e-06
-3.71284327405e-06
-3.05012689117e-06
-2.40425163833e-06
-1.8379862579e-06
-1.36697596609e-06
-9.79813343675e-07
-6.69970218055e-07
-4.34068536558e-07
-2.64490613784e-07
-1.49758487603e-07
-7.71168322239e-08
-3.48745655955e-08
-1.30053271985e-08
-3.99724002541e-06
-3.9628479857e-06
-3.89570470101e-06
-3.78087977352e-06
-3.60692777712e-06
-3.36480314508e-06
-3.04746754814e-06
-2.65388743503e-06
-2.20337390476e-06
-1.74909704712e-06
-1.34691051325e-06
-1.00481072064e-06
-7.14889198174e-07
-4.80328649343e-07
-3.03579478948e-07
-1.79535381888e-07
-9.82943690337e-08
-4.88562573642e-08
-2.1359263538e-08
-7.78863695679e-09
-2.5418276119e-06
-2.53289059264e-06
-2.50825371146e-06
-2.45815930139e-06
-2.37377735115e-06
-2.24665690414e-06
-2.06700292746e-06
-1.82723860677e-06
-1.53530353925e-06
-1.23294108211e-06
-9.62518065934e-07
-7.21968434523e-07
-5.09830779772e-07
-3.36975434373e-07
-2.08412904953e-07
-1.20222871947e-07
-6.40489834767e-08
-3.09440957303e-08
-1.31656158149e-08
-4.70378998017e-09
-1.56511958961e-06
-1.56669671747e-06
-1.56168131278e-06
-1.54399196149e-06
-1.50774803722e-06
-1.44616720086e-06
-1.35016242298e-06
-1.21054738856e-06
-1.03058832821e-06
-8.42572190609e-07
-6.70095130911e-07
-5.04790842686e-07
-3.53475886704e-07
-2.30208848262e-07
-1.39880148954e-07
-7.91194161709e-08
-4.12764071372e-08
-1.95032471945e-08
-8.10878328812e-09
-2.8321279795e-09
-9.36477617116e-07
-9.41004960762e-07
-9.43298610945e-07
-9.39859798126e-07
-9.27025906095e-07
-8.9984408961e-07
-8.51029481844e-07
-7.72681926594e-07
-6.68126967851e-07
-5.60178574294e-07
-4.53633751913e-07
-3.41717426033e-07
-2.37129750328e-07
-1.52575205501e-07
-9.1474153869e-08
-5.09951887642e-08
-2.61819136197e-08
-1.21485860896e-08
-4.94259203114e-09
-1.6752618789e-09
-5.50129917415e-07
-5.54250090681e-07
-5.57931555388e-07
-5.59352957441e-07
-5.56357019985e-07
-5.45562903811e-07
-5.21569308995e-07
-4.79064886931e-07
-4.22699392911e-07
-3.64338670988e-07
-2.97938574172e-07
-2.23336971273e-07
-1.53675076442e-07
-9.80127239259e-08
-5.8222939006e-08
-3.21211148211e-08
-1.62869621212e-08
-7.43547664843e-09
-2.95288493555e-09
-9.56108287873e-10
-3.32575320779e-07
-3.34724629601e-07
-3.36967879138e-07
-3.38621167502e-07
-3.38593689389e-07
-3.3466972838e-07
-3.22941013168e-07
-2.9998956658e-07
-2.69633568144e-07
-2.35061793031e-07
-1.9092422168e-07
-1.41643122239e-07
-9.6675218049e-08
-6.12567523314e-08
-3.61534032267e-08
-1.97856551893e-08
-9.9222145079e-09
-4.45197262052e-09
-1.7135871746e-09
-5.15839515974e-10
-2.46340760622e-07
-2.45790214461e-07
-2.45492202524e-07
-2.4576144621e-07
-2.46416848953e-07
-2.45962132905e-07
-2.40342851381e-07
-2.2337228447e-07
-1.94571469307e-07
-1.60550256142e-07
-1.2457192993e-07
-8.99567113217e-08
-6.05022055794e-08
-3.79921312761e-08
-2.22568737155e-08
-1.20728678478e-08
-5.9758888269e-09
-2.62165267089e-09
-9.64860330151e-10
-2.57754571874e-10
-2.18694831698e-07
-2.19094042369e-07
-2.20604531337e-07
-2.23952699349e-07
-2.29556015206e-07
-2.36510514243e-07
-2.40236085522e-07
-2.28228178595e-07
-1.88773600177e-07
-1.3757915625e-07
-9.51437478492e-08
-6.37639222543e-08
-4.10405581764e-08
-2.50836700662e-08
-1.44164460954e-08
-7.67948616135e-09
-3.71509567967e-09
-1.5690740185e-09
-5.35694839048e-10
-1.17972358771e-10
-1.16228437592e-07
-1.18010490315e-07
-1.20863328891e-07
-1.25033825442e-07
-1.30751498722e-07
-1.37882639085e-07
-1.45586317003e-07
-1.50514354885e-07
-1.4378404258e-07
-1.18234787911e-07
-8.45910587094e-08
-5.56616105846e-08
-3.47124484843e-08
-2.05986965984e-08
-1.15281889773e-08
-5.97786725038e-09
-2.78792284733e-09
-1.11074081085e-09
-3.404806722e-10
-6.16975823458e-11
-1.6279933807e-06
-3.39921370563e-07
-1.5853916389e-06
-3.42217052806e-07
-1.09562743999e-06
-2.88751466579e-07
-7.43362576465e-07
-2.86948661406e-07
-6.70436721131e-07
-3.74289539854e-07
-8.20690869932e-07
-5.52263825544e-07
-1.14127204369e-06
-8.14962561747e-07
-1.56869720922e-06
-1.11965665941e-06
-1.94424947203e-06
-1.34325786151e-06
-2.06819369886e-06
-1.30067649381e-06
-1.82093301826e-06
-8.71159741165e-07
-1.48016106878e-06
-9.36730755686e-07
-8.48869182083e-07
-2.42918674111e-07
-4.86881390561e-07
-9.20010141663e-08
-3.02219602152e-07
-5.00706709635e-08
-1.96165450645e-07
-3.20245353225e-08
-1.26998047534e-07
-2.12270141123e-08
-8.02785244588e-08
-1.38446644513e-08
-4.95997164442e-08
-8.85770542551e-09
-3.02284484971e-08
-5.57132608032e-09
-1.83310662071e-08
-3.47478346416e-09
-1.11714290836e-08
-2.17376394974e-09
-6.86105742845e-09
-1.36555262506e-09
-4.23640331141e-09
-8.5867781945e-10
-2.60520274771e-09
-5.33860343998e-10
-1.57088490548e-09
-3.22026433774e-10
-9.0869427741e-10
-1.83767626005e-10
-4.89037968655e-10
-9.58138869014e-11
-2.32407905844e-10
-4.35208518921e-11
-9.15584615958e-11
-1.655433931e-11
-3.03270937075e-11
-5.66492547676e-12
-1.24966457231e-11
-2.69994837145e-12
)
;

boundaryField
{
    inletfuel
    {
        type            calculated;
        value           nonuniform 0();
    }
    inletair
    {
        type            calculated;
        value           nonuniform 0();
    }
    outlet
    {
        type            calculated;
        value           uniform 0;
    }
    axis
    {
        type            empty;
    }
    leftside
    {
        type            calculated;
        value           uniform 0;
    }
    burnerwall
    {
        type            calculated;
        value           nonuniform 0();
    }
    front
    {
        type            wedge;
    }
    back
    {
        type            wedge;
    }
    procBoundary1to0
    {
        type            processor;
        value           uniform 0;
    }
}


// ************************************************************************* //
