/*--------------------------------*- C++ -*----------------------------------*\
  =========                 |
  \\      /  F ield         | OpenFOAM: The Open Source CFD Toolbox
   \\    /   O peration     | Website:  https://openfoam.org
    \\  /    A nd           | Version:  7
     \\/     M anipulation  |
\*---------------------------------------------------------------------------*/
FoamFile
{
    version     2.0;
    format      ascii;
    class       volScalarField;
    location    "0.08";
    object      ed::R_H2O;
}
// * * * * * * * * * * * * * * * * * * * * * * * * * * * * * * * * * * * * * //

dimensions      [1 -3 -1 0 0 0 0];

internalField   nonuniform List<scalar> 
815
(
2.3419556327
2.33111618114
2.33252315143
3.71957600973
3.73965333579
3.73911041268
0.888881447277
0.888398930563
0.888954483239
0.322796201669
0.322794776533
0.322256447569
0.155773296402
0.155314560217
0.154643243723
0.0851071124205
0.0848967598764
0.0843785275339
0.0483985963662
0.048202966364
0.0478540517709
0.0266032365188
0.0265520026515
0.0263457123407
0.0137096842258
0.0136711559966
0.0135589688298
0.00646788756676
0.00645971846234
0.00640751306451
0.00296192604807
0.00295462161408
0.00292918903134
0.0014386494249
0.00143401158659
0.00142104125901
0.000829563937593
0.000826037953504
0.000817581135813
0.000573252793985
0.000570262709746
0.000564040442258
0.000438901539204
0.000436930418291
0.00043234403366
0.000348069981042
0.000346401179099
0.000342955819108
0.000274464322567
0.000273386866395
0.000270980116898
0.000212188951096
0.000211470755172
0.000209825728172
0.000159405448254
0.000158948541131
0.000157870249591
0.000115877504175
0.00011560256106
0.000114927825553
8.1363560734e-05
8.12164548531e-05
8.08152884784e-05
5.51955580535e-05
5.50949048566e-05
5.48615465406e-05
3.61103497373e-05
3.60693270438e-05
3.59492945094e-05
2.28744599557e-05
2.28490000269e-05
2.27868017528e-05
1.40218943174e-05
1.40129831951e-05
1.39857309273e-05
8.36325135377e-06
8.35964980561e-06
8.34790457858e-06
4.90212567693e-06
4.90056937027e-06
4.89566390227e-06
2.96492158187e-06
2.96379966016e-06
2.96123195582e-06
2.20814913471e-06
2.20741257684e-06
2.20544507305e-06
1.95115064762e-06
1.95271371141e-06
1.95372372893e-06
1.02553134706e-06
1.026932216e-06
1.02900760837e-06
2.3336042064
3.72505619184
0.887228326708
0.321448851529
0.153617775671
0.083671079684
0.0473452063511
0.0260634806829
0.0133949001884
0.00633252207447
0.00289234684282
0.00140300959619
0.000806420858321
0.000556031434444
0.000426553623648
0.000338710956674
0.000268085258775
0.000207913815874
0.000156669868132
0.000114219052793
8.04238690466e-05
5.46562012033e-05
3.58615651608e-05
2.27521529742e-05
1.39792778038e-05
8.35029336863e-06
4.89966590875e-06
2.96337792221e-06
2.20397984074e-06
1.95396739623e-06
1.03189907493e-06
0.18237158885
0.101533005784
0.0507857378351
0.0199203921456
0.00497726389516
0.00059307362194
5.31026072482e-05
2.3495471501
2.40319226294
2.49141910299
2.6209716462
2.80812245668
3.105055116
3.67079263748
3.03880599323
1.9482795891
1.20389827164
0.729910112063
0.442723485425
0.271257799235
0.166725188152
0.0992749954877
0.051591723166
0.0207491148945
0.0054091808292
0.000650000972685
5.47316316488e-05
3.66842402426
3.4619805002
3.16117401336
2.79664903132
2.38776266527
1.95339350004
1.5353732513
1.15571711303
0.818162294951
0.550865278527
0.357499497042
0.229013344664
0.147830743599
0.097188242264
0.0644754691226
0.0370750217073
0.0150695933246
0.00365712522534
0.000419883002583
3.72711693011e-05
0.880652972245
0.856650835644
0.815172516837
0.755462514286
0.677529728254
0.583697332885
0.481619341593
0.378436377381
0.281555364576
0.19969326133
0.136937253233
0.0926867399672
0.0631322956007
0.0441127454588
0.0315045133214
0.0196192767916
0.00801067206229
0.00186740800989
0.000215853035347
2.16337195493e-05
0.318583333072
0.310514033884
0.296487488759
0.275514833433
0.247334488362
0.21271423647
0.174095708606
0.13522115198
0.100390151353
0.0724920544492
0.0519567527366
0.0376034896325
0.0275870987752
0.0204169234945
0.0148921344279
0.00930022580891
0.00370685773808
0.000840287164184
0.000109635671385
1.43124479603e-05
0.151306565105
0.146021772613
0.137697119818
0.126037893587
0.111170335242
0.0937325937391
0.075083215327
0.0572771731813
0.04234518566
0.0310829180217
0.0230136207463
0.0172944076092
0.0131021828258
0.00983185300177
0.00701686702791
0.00415321954496
0.00163067472286
0.000391342333899
6.33170014965e-05
1.33719043589e-05
0.0820046921112
0.0783424636329
0.072906267909
0.0656880205145
0.0569423824106
0.0472030605511
0.0373140954829
0.0283049963925
0.0209829873033
0.0155112681307
0.0115580087472
0.00869642658209
0.00656584710482
0.00486072872881
0.00331881908434
0.001846494364
0.000749573869343
0.00020533906682
4.64684879459e-05
1.62544902391e-05
0.0462453081048
0.0438031760727
0.0403193444155
0.035855982791
0.0306832816267
0.0251675394898
0.0198023118282
0.0150562041587
0.0112222370224
0.00831139705413
0.00616027522664
0.00457044606416
0.00337631275535
0.00243459447097
0.00161555852451
0.000898229097725
0.000391641079312
0.000130564192337
4.51539933504e-05
2.17107302865e-05
0.0254011245078
0.0239319844779
0.0218826102833
0.0193330549193
0.0164513138364
0.0134624377034
0.0106203814188
0.00813102309323
0.00610087604062
0.00452187438597
0.00332405747986
0.00242470002545
0.00175072603079
0.00123718266514
0.000821356501743
0.000477857911505
0.000234531937708
0.000101307269852
5.01462079492e-05
2.74944948278e-05
0.0130325192779
0.0122519442797
0.0111828032993
0.00987501768387
0.00841717178528
0.0069234173575
0.00550932386785
0.00426236109066
0.00322539369046
0.0023968452121
0.00175269118468
0.0012642212479
0.000902399196436
0.000634664000699
0.000430413511218
0.000270321775304
0.000155181596744
8.69772788817e-05
5.31542008019e-05
3.09643620228e-05
0.00615879512219
0.00578924683659
0.00528772242291
0.00467967893672
0.00400705889291
0.00332098084059
0.00266976521507
0.00208899358962
0.00159789841728
0.0011993898831
0.000886793375192
0.000648375449138
0.000470894283497
0.000339431628867
0.000241293919604
0.000166529623326
0.000111672888455
7.50827247447e-05
5.10951793203e-05
3.06814467532e-05
0.00281139801475
0.00264412967075
0.0024185550684
0.00214703784476
0.00184881010295
0.00154529830862
0.00125549012649
0.000994068767465
0.000770465505872
0.000588208961532
0.000445490713485
0.000336624730422
0.000255090700096
0.000194177566095
0.00014778332925
0.00011161946196
8.36968778596e-05
6.24731825065e-05
4.49009659971e-05
2.73637006799e-05
0.00136320728106
0.00128203073776
0.00117359331587
0.00104495922415
0.000905618045982
0.00076492034266
0.000630784932141
0.000509149677099
0.00040417344343
0.000317918286778
0.000249716935615
0.000196847085164
0.000156133481862
0.000124471711305
9.93014605332e-05
7.89684262521e-05
6.25213149529e-05
4.88452682116e-05
3.59470476585e-05
2.18717976922e-05
0.000782414537034
0.00073460788842
0.000671906694008
0.000599061469981
0.000521630731369
0.000444587879836
0.000371776345106
0.000305853909553
0.00024864028129
0.00020101359134
0.000162600377045
0.000131976909124
0.000107451462746
8.75238941342e-05
7.10837836716e-05
5.74452841684e-05
4.60752253603e-05
3.61845042152e-05
2.64807626587e-05
1.54612691863e-05
0.000539300325813
0.00050625032334
0.000463179660935
0.000413435764484
0.000360909468115
0.000308979209381
0.000260095886089
0.000215909749983
0.000177507213508
0.000145277676593
0.000118809607817
9.7165291081e-05
7.93246151509e-05
6.44754237292e-05
5.20578730321e-05
4.16873072157e-05
3.29911282165e-05
2.54067669285e-05
1.80420023889e-05
9.87068357249e-06
0.000414405143366
0.000390212590961
0.00035823820703
0.000320714486835
0.000280550452034
0.000240463090102
0.000202535999086
0.000168206597252
0.00013833205459
0.000113104996101
9.21264204211e-05
7.47272771767e-05
6.02551493271e-05
4.81942275851e-05
3.81660795037e-05
2.98626420335e-05
2.29649603255e-05
1.70384668011e-05
1.15289526176e-05
5.9042463363e-06
0.000329980372995
0.000312438401149
0.000288691101561
0.000260034647762
0.000228539532755
0.000196390527181
0.000165448659461
0.000137091525569
0.000112170473172
9.09361134192e-05
7.31535218088e-05
5.83761740282e-05
4.61485488685e-05
3.60740974716e-05
2.7823448743e-05
2.1103535101e-05
1.56268053532e-05
1.10468585024e-05
7.0481356359e-06
3.39767289434e-06
0.000262096028221
0.000249825523337
0.000232740311757
0.000211442735311
0.000187255098551
0.000161793021576
0.000136613245663
0.000113006668954
9.189098042e-05
7.36904780134e-05
5.8390835967e-05
4.57354891814e-05
3.53762557651e-05
2.69668548891e-05
2.01974691818e-05
1.47894604281e-05
1.04822205367e-05
7.01548436634e-06
4.19674393587e-06
1.91448344594e-06
0.000203983836955
0.000195812105954
0.000184087223809
0.000168954353688
0.000151127883471
0.000131672160889
0.000111762374579
9.25221730678e-05
7.48921555125e-05
5.94697813887e-05
4.64550192747e-05
3.57472601889e-05
2.70753425456e-05
2.01302058292e-05
1.46281804421e-05
1.03211182593e-05
6.98082360972e-06
4.41110643819e-06
2.4704513771e-06
1.06922065404e-06
0.000154231599983
0.000149102381201
0.000141501035586
0.000131320764489
0.000118850319934
0.000104687240896
8.96088326417e-05
7.44900825301e-05
6.02081308851e-05
4.74704720243e-05
3.66560108393e-05
2.77877702272e-05
2.06583308985e-05
1.50011027854e-05
1.05785672929e-05
7.18554023375e-06
4.63352025011e-06
2.76491109579e-06
1.45301685201e-06
5.99822938965e-07
0.000112808050847
0.000109808700405
0.000105193547058
9.87548621997e-05
9.05333620838e-05
8.07853443459e-05
6.99405178626e-05
5.85898954312e-05
4.74598082263e-05
3.72847903782e-05
2.85652130276e-05
2.14153322576e-05
1.56772799688e-05
1.11400803921e-05
7.62907778261e-06
4.98927600938e-06
3.07034758787e-06
1.73481039992e-06
8.60341711397e-07
3.40781024228e-07
7.9669154594e-05
7.80565674707e-05
7.54615552715e-05
7.16636261197e-05
6.65845024362e-05
6.02750118674e-05
5.29065598135e-05
4.48033404518e-05
3.64956083329e-05
2.86701628973e-05
2.18869526393e-05
1.63018311246e-05
1.17909102422e-05
8.21348513844e-06
5.46725533461e-06
3.44661922212e-06
2.02971799278e-06
1.09108176405e-06
5.14665003369e-07
1.97136963569e-07
5.42938938579e-05
5.35221982036e-05
5.21930297567e-05
5.0122160393e-05
4.71991881364e-05
4.33749067491e-05
3.86615455351e-05
3.31780104788e-05
2.72559692094e-05
2.14844204731e-05
1.64242664781e-05
1.22153130578e-05
8.75562338194e-06
5.98686162448e-06
3.8788414677e-06
2.36349118667e-06
1.3382435789e-06
6.891169055e-07
3.11639521888e-07
1.16215754402e-07
3.57193831413e-05
3.54120554763e-05
3.4812062307e-05
3.37859854257e-05
3.22315483722e-05
3.00679198573e-05
2.72322052893e-05
2.37151688422e-05
1.96893747204e-05
1.56299514616e-05
1.2036007939e-05
8.97900023188e-06
6.38825815083e-06
4.29222237108e-06
2.71278973828e-06
1.60433025095e-06
8.78359619594e-07
4.36580081393e-07
1.90866626242e-07
6.95993500114e-08
2.27138009655e-05
2.2633939658e-05
2.24137842025e-05
2.19661399742e-05
2.121210189e-05
2.00761521039e-05
1.84707620886e-05
1.63282253432e-05
1.37194902002e-05
1.10175757829e-05
8.60107257983e-06
6.4515182888e-06
4.55585375012e-06
3.01121638257e-06
1.86238013136e-06
1.07431297548e-06
5.72342457813e-07
2.76516797672e-07
1.17648095334e-07
4.20331217164e-08
1.39859267715e-05
1.40000200042e-05
1.39552022899e-05
1.3797130042e-05
1.34732539151e-05
1.29229668485e-05
1.20650670419e-05
1.08174654781e-05
9.20934923155e-06
7.52923484936e-06
5.98797784721e-06
4.51081681398e-06
3.15866461561e-06
2.05714893309e-06
1.24997063038e-06
7.07012018833e-07
3.68846452016e-07
1.74281242711e-07
7.24601813343e-08
2.53079284111e-08
8.36837482773e-06
8.40883122296e-06
8.42932730755e-06
8.39859803639e-06
8.28391422863e-06
8.04101720185e-06
7.60480930174e-06
6.90469464103e-06
5.97039031932e-06
5.00576222482e-06
4.0536764586e-06
3.05359087493e-06
2.11899419408e-06
1.36341380265e-06
8.17414097928e-07
4.55693597145e-07
2.33961883202e-07
1.08559905935e-07
4.41670596085e-08
1.49701595436e-08
4.91596731062e-06
4.95278522663e-06
4.98568283787e-06
4.99838450307e-06
4.97161277128e-06
4.87515642419e-06
4.66074938315e-06
4.28092937553e-06
3.77724666845e-06
3.25573458173e-06
2.6623825479e-06
1.99574176077e-06
1.37324226211e-06
8.7584283565e-07
5.20280856978e-07
2.87034653893e-07
1.45540482062e-07
6.64435054075e-08
2.63870139683e-08
8.54379472887e-09
2.97189691655e-06
2.99110316507e-06
3.0111488689e-06
3.02592267286e-06
3.02567712813e-06
2.99061256712e-06
2.88580463221e-06
2.6807102398e-06
2.40944868636e-06
2.10051490373e-06
1.70610105518e-06
1.26572458007e-06
8.63890867651e-07
5.47391047975e-07
3.23067229765e-07
1.76804843821e-07
8.86650237075e-08
3.97828788754e-08
1.53126348297e-08
4.60954788638e-09
2.20130388869e-06
2.19638420183e-06
2.19372116371e-06
2.1961271284e-06
2.2019838149e-06
2.19792046703e-06
2.14770650228e-06
1.9960573199e-06
1.73869290219e-06
1.43467894751e-06
1.11317620797e-06
8.03854213759e-07
5.40648409464e-07
3.39498124901e-07
1.98887681179e-07
1.0788328685e-07
5.34006117373e-08
2.34271186167e-08
8.62200307998e-09
2.30329783817e-09
1.95425954779e-06
1.95782689897e-06
1.97132464586e-06
2.00124391398e-06
2.05131520934e-06
2.11346069325e-06
2.14675244133e-06
2.03944964602e-06
1.68688307653e-06
1.22940893294e-06
8.50205632217e-07
5.6979514743e-07
3.66738902972e-07
2.24147966094e-07
1.28825529201e-07
6.86239772397e-08
3.31981380015e-08
1.40212635938e-08
4.78697528323e-09
1.05420236369e-09
1.03861866385e-06
1.05454310761e-06
1.08003610615e-06
1.11730371161e-06
1.16839690623e-06
1.23212085907e-06
1.30096101412e-06
1.34499801769e-06
1.28485586902e-06
1.05654743352e-06
7.559066799e-07
4.97392796553e-07
3.10190841506e-07
1.84070191265e-07
1.03016030157e-07
5.34182909524e-08
2.49129108383e-08
9.92559274427e-09
3.04253922837e-09
5.51330310087e-10
1.45477676965e-05
3.03754130247e-06
1.41670780385e-05
3.05805554557e-06
9.79053948733e-06
2.58028644809e-06
6.64269658887e-06
2.5641765602e-06
5.99103030137e-06
3.34465566111e-06
7.33370311447e-06
4.93503593837e-06
1.01984201944e-05
7.28251488622e-06
1.40178964217e-05
1.00052648703e-05
1.73738357898e-05
1.20033678007e-05
1.84814028355e-05
1.1622860206e-05
1.62718785313e-05
7.78469353207e-06
1.32267364458e-05
8.37063687692e-06
7.58550483807e-06
2.17072408401e-06
4.35077774246e-06
8.22122127644e-07
2.70063786349e-06
4.47432095376e-07
1.75293673788e-06
2.86171618376e-07
1.13485602297e-06
1.89684843843e-07
7.17369823912e-07
1.2371608181e-07
4.43223640339e-07
7.9152558224e-08
2.70121765711e-07
4.97854343504e-08
1.63806619837e-07
3.10507052617e-08
9.98280196177e-08
1.94247798195e-08
6.1310488608e-08
1.22025940659e-08
3.78565490337e-08
7.67315493513e-09
2.32801219128e-08
4.77058221422e-09
1.40374457008e-08
2.87763194016e-09
8.12010258248e-09
1.64214963337e-09
4.37004894927e-09
8.56194002545e-10
2.0767997371e-09
3.88902836329e-10
8.18167472751e-10
1.47929767716e-10
2.71003260453e-10
5.06218396406e-11
1.11670170849e-10
2.41267699034e-11
)
;

boundaryField
{
    inletfuel
    {
        type            calculated;
        value           nonuniform 0();
    }
    inletair
    {
        type            calculated;
        value           nonuniform 0();
    }
    outlet
    {
        type            calculated;
        value           uniform 0;
    }
    axis
    {
        type            empty;
    }
    leftside
    {
        type            calculated;
        value           uniform 0;
    }
    burnerwall
    {
        type            calculated;
        value           nonuniform 0();
    }
    front
    {
        type            wedge;
    }
    back
    {
        type            wedge;
    }
    procBoundary1to0
    {
        type            processor;
        value           uniform 0;
    }
}


// ************************************************************************* //
