/*--------------------------------*- C++ -*----------------------------------*\
  =========                 |
  \\      /  F ield         | OpenFOAM: The Open Source CFD Toolbox
   \\    /   O peration     | Website:  https://openfoam.org
    \\  /    A nd           | Version:  7
     \\/     M anipulation  |
\*---------------------------------------------------------------------------*/
FoamFile
{
    version     2.0;
    format      ascii;
    class       volScalarField;
    location    "0.08";
    object      epsilon;
}
// * * * * * * * * * * * * * * * * * * * * * * * * * * * * * * * * * * * * * //

dimensions      [0 2 -3 0 0 0 0];

internalField   nonuniform List<scalar> 
815
(
1184.42092877
1182.60575874
1172.00730306
524.025370194
525.293620569
524.507456039
337.218063911
337.07112729
336.422838728
308.562329623
308.16835548
307.188265227
300.461738589
299.890970571
298.480746822
273.978222263
273.385573924
271.971927583
231.071561494
230.63458498
229.406607332
176.124995509
175.976643199
175.245470213
119.468859892
119.483377123
119.086301911
72.1166167637
72.1631435049
71.9941349992
40.6053937142
40.6167540768
40.5205379547
22.5662012672
22.5643890334
22.5214978598
13.4467128234
13.4332632327
13.4026152583
8.96279574895
8.95210281115
8.92522107454
6.71462630746
6.70615850421
6.68507880661
5.50944068952
5.50177144664
5.48117947339
4.78539254605
4.77925328504
4.76205493007
4.30624773911
4.30095891786
4.28592815486
3.95616643158
3.95163705323
3.93865994684
3.6802606774
3.67655426041
3.66567044892
3.44916169311
3.44627059153
3.43783820958
3.24903997167
3.24650410832
3.23903618407
3.0618630045
3.0600771653
3.05487750746
2.88615644418
2.88455681144
2.88025642691
2.71273465989
2.71153910765
2.70871971526
2.54593905353
2.54482132564
2.54286060034
2.40708096608
2.40579204606
2.40418367568
2.43053040178
2.42857822174
2.42674102821
3.39674249893
3.39335178739
3.3904907138
9.27869469984
9.27685571982
9.27122998557
36.583884038
36.5679059355
36.5353066183
1158.34549661
522.705165352
335.542832541
305.991888245
296.719991587
270.194122957
227.90336616
174.337128977
118.610230936
71.7879820928
40.4163695126
22.4834915036
13.3809118825
8.91042260082
6.6754361818
5.47357303146
4.75816449647
4.28469184578
3.93999353309
3.6695863391
3.44438318321
3.247274595
3.06522682751
2.89155088683
2.72089698792
2.55507138799
2.41571806601
2.43659936897
3.39539914395
9.25904372257
36.4775363591
100.315995279
66.1895703089
31.7157746328
9.87036106395
2.68018223481
0.798753501288
0.582094802303
1126.93504206
1059.0430597
969.419691718
866.842991503
758.253689087
648.110118221
538.690477414
434.940748808
338.191865584
252.506977052
184.438860692
135.807388872
104.515813681
87.6726484127
73.220084339
40.1970507225
12.1297483724
3.07405071331
0.876227871318
0.62581813006
517.537454344
501.297069655
475.324397941
439.139897213
392.258165368
335.989573147
274.237658563
213.547313594
159.665948686
116.158820407
83.8984759664
62.6493893449
51.2803526175
49.0296611954
50.3429963078
31.9158823787
9.46228542401
2.44908743283
0.764861839179
0.656305949202
333.501895565
327.585835913
313.763973073
287.95923402
248.727659227
199.165788424
147.010961199
101.731627675
68.9613390869
47.8600439
34.8484828012
27.4627187058
24.5314620733
25.3205756588
25.4809636663
15.634485957
5.22556951706
1.69859822482
0.657050988318
0.697703695685
303.364483534
295.514185956
277.727779467
245.953741424
200.504070796
147.564030935
97.5594049515
59.8402983267
36.9285259584
24.7705910666
18.5250226992
15.4950098034
14.3963473971
14.1063353051
12.4897605984
7.55175692928
3.06947450917
1.26043923349
0.633678444202
0.75247695602
292.922600768
282.479898047
261.050714467
225.379764843
177.249283667
124.50541923
78.0804322372
45.7365020628
27.5313805718
18.4324152065
13.8888804796
11.5501616638
10.2631255962
9.13200629703
7.26984920855
4.45414875748
2.21794175954
1.16074596533
0.729596267302
0.844302933439
266.392439224
256.40539366
236.661364566
204.41114562
161.291984627
114.24267649
72.8004376247
43.6204405206
26.7369925493
17.9257905574
13.2810918578
10.6405660126
8.93559352129
7.46234196174
5.68448660608
3.650000431
2.19910753565
1.39958513095
0.997657341847
1.02195108404
224.753330411
216.843646041
201.681088802
176.962121992
143.55885576
106.173253244
71.7488437144
45.7955798648
29.3850152012
20.0175510805
14.7226515365
11.5212341191
9.34127396142
7.54919571695
5.77112327066
4.09755947735
2.87262360419
2.0792825211
1.57225773443
1.40548087364
172.423345368
167.385574909
157.667135219
141.64392308
119.476834894
93.6475918154
68.2734663422
47.2543621101
32.3130002371
22.73515413
16.7906941516
12.9916746611
10.3738754193
8.39106953792
6.73103800259
5.28839665594
4.14626300903
3.25216999304
2.5779214833
2.0969028418
117.65011209
115.072661501
109.9397882
101.224319207
88.7302296125
73.4389695816
57.3405456924
42.7216216349
31.1085433059
22.7750474988
17.1280405819
13.3413292917
10.781865307
8.96300546271
7.57353064056
6.44517930409
5.54080988665
4.72618156761
3.97191880079
3.108788631
71.3718907158
70.1619821945
67.646032019
63.2936068487
56.9220629479
48.8643073915
39.977215534
31.3935370695
24.0683978713
18.4183872161
14.360082498
11.5644683939
9.67310433598
8.37193220339
7.48733224163
6.89748882252
6.53614535618
6.17515909637
5.5601499368
4.38922000114
40.2249480827
39.6485473824
38.4016146672
36.2420208942
33.0773356088
29.0358083864
24.4876205902
19.9697418348
15.987757038
12.8237434937
10.5063948743
8.90183005923
7.84570445602
7.19719132538
6.86357870473
6.78889545552
6.97901180123
7.2686852826
7.12503107326
6.13340134759
22.4100944635
22.140222731
21.5174395814
20.4320414827
18.8481259448
16.8401519932
14.600770998
12.3841940616
10.4293974201
8.88551141634
7.77899415222
7.05580692645
6.64468465439
6.48259799958
6.53622938431
6.80916600173
7.35808240079
8.11161417573
8.55545665577
8.62063556549
13.344722888
13.2133318565
12.8885815739
12.3087655266
11.4641926271
10.4163707106
9.28888462941
8.22274168337
7.33481213998
6.69038980002
6.29873250345
6.13252457768
6.15648026602
6.34359479212
6.68858914987
7.2219475649
8.01358876227
9.06218697286
10.1371871464
11.9103616052
8.89076361709
8.82409617538
8.64204274469
8.30348763539
7.81142852996
7.22210028329
6.62780310701
6.12182722231
5.77084137668
5.60393969328
5.61799117754
5.79394271949
6.11144474107
6.55764269699
7.1377995071
7.8902597324
8.8913211785
10.2293283078
12.0302241084
15.7597346454
6.66679185843
6.63445656647
6.52479759221
6.30588415268
5.98422943134
5.61162274247
5.2683782994
5.03137111207
4.95003826044
5.04119085111
5.29773338204
5.7045628172
6.24857176044
6.92318651595
7.7363203129
8.72571053893
9.97170996541
11.6416567968
14.1555630558
19.6656384829
5.47179064443
5.46167911098
5.39524109988
5.24315265886
5.00953145463
4.74018314255
4.51006742932
4.39378388805
4.44151836957
4.67266373153
5.08555789965
5.67262256141
6.42752754224
7.34717628157
8.43811062705
9.7326437983
11.3049134253
13.3609723847
16.4770104296
23.2155076324
4.764099597
4.77133328162
4.73452769944
4.62379015183
4.43739386966
4.21356811653
4.02359252346
3.94608354643
4.04197967299
4.34375674773
4.86476409762
5.61331824626
6.59522855275
7.81281844933
9.27024080392
10.985016561
13.0053513321
15.5036153962
19.0479153998
26.3298498854
4.29686142042
4.31888409343
4.30517544133
4.22336701422
4.06420684171
3.85683858881
3.66809464592
3.58231718278
3.67571756774
4.00289995347
4.60324213671
5.51254280305
6.75908466273
8.35628987012
10.3038190481
12.5884375375
15.1983035935
18.1833458409
21.9469947528
29.128232878
3.9579604547
3.99338544729
3.99936956441
3.94044545063
3.7995753227
3.59571812808
3.3893667467
3.26916939281
3.32786078317
3.64843758415
4.30882328734
5.38824063666
6.95250988428
9.03423738383
11.6203067279
14.6414635107
17.9705944814
21.4525812611
25.2011157402
31.9147570057
3.69317592658
3.74105704475
3.76470865284
3.72572916798
3.59984080662
3.39574553361
3.1657799758
2.999535044
3.00503204661
3.29770914206
4.00677482642
5.27520712425
7.22613975773
9.91545187054
13.2994821739
17.2136990209
21.3448492022
25.261722559
28.7766964885
34.8075778832
3.47325101147
3.53250376635
3.57209317839
3.55135496547
3.43986879496
3.23678356537
2.9851951555
2.77241881393
2.71899925365
2.97499771093
3.73373697814
5.22617411707
7.65218832713
11.0852401926
15.4206033528
20.3384375718
25.2807169207
29.4884860552
32.5810487772
37.8524316428
3.2800879658
3.34880595106
3.40190790429
3.39718195338
3.29970581237
3.10065839138
2.83406283325
2.58278190708
2.47686977131
2.7029924471
3.53216741229
5.30689393891
8.31563973409
12.6306758724
18.0348692897
23.9939566329
29.677026123
34.0080039011
36.5039158786
41.0035021017
3.1015756209
3.1772804337
3.24037954353
3.24827959619
3.16331779852
2.97091481542
2.69752427298
2.42130514029
2.28099398551
2.50359139302
3.45305156142
5.60365767927
9.32745701545
14.6498540896
21.1809917534
28.1458509203
34.4194530537
38.7095354069
40.4722497691
44.1442370543
2.92954677321
3.0089256355
3.07781825049
3.09396252925
3.01874055557
2.83450060276
2.56260585337
2.27850366148
2.13246949474
2.40129333285
3.55984687737
6.22175484609
10.8057793161
17.2232572409
24.8708843012
32.7220993488
39.3940724559
43.4489104178
44.3641606229
47.1260801242
2.75946713306
2.83895145635
2.90884045712
2.92820346768
2.85924510584
2.6837207401
2.42135629976
2.14956472966
2.03935227013
2.43541766625
3.94189311383
7.29117046128
12.8730187247
20.4161773688
29.0878431695
37.6333829636
44.5021649628
48.119394494
48.0428394077
49.6989168706
2.59248437009
2.66848805084
2.73468880182
2.75233501251
2.68603847175
2.51960045537
2.27542363065
2.0412335313
2.02658923273
2.67065890262
4.71390487986
8.9430627934
15.6109624122
24.2189022174
33.7368832436
42.7473663522
49.5728102125
52.5665254663
51.3634509412
51.6075995058
2.45034271238
2.51905232838
2.57652317923
2.58707479861
2.51925553114
2.36173538954
2.14529491688
1.98156514698
2.14560365068
3.19897493624
5.99257719827
11.2489433561
18.9899358162
28.5076504791
38.6370929328
47.8452327761
54.3974848851
56.6402728045
54.2208699939
52.6814162552
2.46575794644
2.51972091267
2.55809564753
2.54952931457
2.46841494511
2.31177041097
2.12672119633
2.06873986634
2.51289086839
4.15756117499
7.88391395951
14.2135863233
22.9120725612
33.1192421322
43.5881183992
52.7453857147
58.919595693
60.4708331013
56.9757592122
53.518139029
3.40930098363
3.42182317029
3.40376061051
3.33008341523
3.18413513264
2.9766427008
2.7819080626
2.82641856897
3.62951399459
6.02312427558
10.7992993702
18.1812043188
27.7084367899
38.4208541851
49.0806914846
58.1704290518
64.1785736208
65.5352356663
61.71468927
56.8580664504
9.22417389786
9.11616256158
8.93081308172
8.64843670688
8.26608129331
7.81946072727
7.43770807128
7.4812212229
8.70274674811
12.061099913
18.122224916
26.7075881807
37.1502193521
48.421565826
59.386912384
68.6345294361
74.9809923996
77.0368586879
74.3223681835
69.4792039466
36.3266170599
35.9685759112
35.4318355581
34.7011215257
33.7861348694
32.7594519507
31.8407876775
31.6375736592
33.3851376545
38.200005918
45.9556288211
55.7111199273
66.511291023
77.3891976274
87.4230074112
95.6746269513
101.400120319
104.005629541
103.285033196
100.853653866
1.58752861571
1.5634498147
1.70849260476
1.61126634422
1.884636754
1.6525038025
2.08257321371
1.70889832818
2.24807817446
1.79814911714
2.37089254789
1.95315450143
2.49332431835
2.22581424039
2.78694842373
2.66855526124
3.43878323948
3.37609519817
4.73796804555
4.6971911348
7.79199951166
7.61183717361
15.7826474598
52.5633074266
23.3881572474
73.9072832332
30.7837869778
96.4947620846
37.8941456365
121.737176479
44.6656736226
149.035500154
51.2675936253
177.491190903
58.0273679286
206.107884107
64.7812374383
234.520288556
72.0721422756
262.747890119
79.8339325499
290.737819069
87.8338193986
318.174869077
95.9692878799
344.489735312
103.785309212
369.129757878
110.815260334
391.236413378
116.459456767
409.901897178
119.979797927
424.193687271
120.959345448
433.484884616
119.569383209
438.510855367
118.672000375
441.188638017
124.828414642
443.664912682
145.500207372
438.472049535
)
;

boundaryField
{
    inletfuel
    {
        type            turbulentMixingLengthDissipationRateInlet;
        mixingLength    0.005;
        phi             phi;
        k               k;
        value           nonuniform 0();
    }
    inletair
    {
        type            turbulentMixingLengthDissipationRateInlet;
        mixingLength    0.005;
        phi             phi;
        k               k;
        value           nonuniform 0();
    }
    outlet
    {
        type            inletOutlet;
        inletValue      uniform 200;
        value           nonuniform List<scalar> 
26
(
36.583884038
36.5679059355
36.5353066183
36.4775363591
36.3266170599
35.9685759112
35.4318355581
34.7011215257
33.7861348694
32.7594519507
31.8407876775
31.6375736592
33.3851376545
38.200005918
45.9556288211
55.7111199273
66.511291023
77.3891976274
87.4230074112
95.6746269513
101.400120319
104.005629541
103.285033196
100.853653866
145.500207372
438.472049535
)
;
    }
    axis
    {
        type            empty;
    }
    leftside
    {
        type            epsilonWallFunction;
        value           nonuniform List<scalar> 
32
(
1.5634498147
1.61126634422
1.6525038025
1.70889832818
1.79814911714
1.95315450143
2.22581424039
2.66855526124
3.37609519817
4.6971911348
7.61183717361
52.5633074266
73.9072832332
96.4947620846
121.737176479
149.035500154
177.491190903
206.107884107
234.520288556
262.747890119
290.737819069
318.174869077
344.489735312
369.129757878
391.236413378
409.901897178
424.193687271
433.484884616
438.510855367
441.188638017
443.664912682
438.472049535
)
;
    }
    burnerwall
    {
        type            epsilonWallFunction;
        value           nonuniform 0();
    }
    front
    {
        type            wedge;
    }
    back
    {
        type            wedge;
    }
    procBoundary1to0
    {
        type            processor;
        value           nonuniform List<scalar> 
27
(
2015.38999988
2003.84814039
1976.23923151
1944.14996538
64.0197705645
37.0075926793
15.4062156097
5.01705367367
1.61614781352
0.574826649102
0.528810256185
1869.31059018
1726.58333219
1547.3395819
1350.15888807
1151.57862756
961.993302516
788.67963162
634.531971478
497.944095545
377.213651281
275.446390707
196.872550787
140.396813357
140.396813357
1.52273176577
1.50443390606
)
;
    }
}


// ************************************************************************* //
