/*--------------------------------*- C++ -*----------------------------------*\
  =========                 |
  \\      /  F ield         | OpenFOAM: The Open Source CFD Toolbox
   \\    /   O peration     | Website:  https://openfoam.org
    \\  /    A nd           | Version:  7
     \\/     M anipulation  |
\*---------------------------------------------------------------------------*/
FoamFile
{
    version     2.0;
    format      ascii;
    class       volScalarField;
    location    "0.08";
    object      H2;
}
// * * * * * * * * * * * * * * * * * * * * * * * * * * * * * * * * * * * * * //

dimensions      [0 0 0 0 0 0 0];

internalField   nonuniform List<scalar> 
815
(
0.0197516302132
0.0197160185823
0.0195451562464
0.0049157426031
0.00493221989146
0.00492565663954
0.00126368326994
0.00126269261768
0.00125896832565
0.000437708625674
0.000436292371912
0.000433398249623
0.000195060216664
0.000194185038136
0.000192369100264
0.000100961106267
0.000100477348434
9.94283140859e-05
5.46690430183e-05
5.44433280253e-05
5.38910725406e-05
2.87627214706e-05
2.86621719743e-05
2.83886588333e-05
1.39615785654e-05
1.39219942476e-05
1.37989302528e-05
6.19235343753e-06
6.17734493904e-06
6.12632849229e-06
2.70284830683e-06
2.69569182588e-06
2.6733229032e-06
1.32474200493e-06
1.32020051592e-06
1.30861405147e-06
8.28624623538e-07
8.248389017e-07
8.16662843587e-07
6.54159548837e-07
6.51061197885e-07
6.44340324271e-07
5.77616644844e-07
5.74959215711e-07
5.69211405636e-07
5.14395300987e-07
5.12218515699e-07
5.07489732024e-07
4.41990197477e-07
4.40332161358e-07
4.3668381681e-07
3.62241773524e-07
3.61039920336e-07
3.5838202507e-07
2.82929099221e-07
2.82108106576e-07
2.80276679408e-07
2.11014304098e-07
2.10483056612e-07
2.09285528727e-07
1.50705031341e-07
1.50371553455e-07
1.49616737147e-07
1.03248478494e-07
1.03059042486e-07
1.02612562769e-07
6.80461642359e-08
6.79447529422e-08
6.76942996966e-08
4.32684598209e-08
4.32162473539e-08
4.30817042045e-08
2.66046292108e-08
2.65805627323e-08
2.65134632376e-08
1.58699581191e-08
1.58585346486e-08
1.58257184931e-08
9.18260768372e-09
9.17793323718e-09
9.16342835395e-09
5.10210357296e-09
5.10091739614e-09
5.09593281529e-09
2.56400920768e-09
2.56460376209e-09
2.56438473913e-09
9.57881002457e-10
9.58608364363e-10
9.59638800337e-10
2.73210359752e-10
2.73547460949e-10
2.74037138318e-10
0.0192681046359
0.00489755107003
0.00125076399325
0.000428849801258
0.00018973456087
9.79346122659e-05
5.310048577e-05
2.79847420297e-05
1.36113520714e-05
6.04706800776e-06
2.63921317998e-06
1.2916994351e-06
8.05333692466e-07
6.35135296682e-07
5.61325833491e-07
5.0096870177e-07
4.31613774651e-07
3.54662970698e-07
2.77696547979e-07
2.0758572629e-07
1.48538798791e-07
1.01970446597e-07
6.73311362506e-08
4.28842877205e-08
2.64134078658e-08
1.57763575093e-08
9.1412479953e-09
5.08793921691e-09
2.56372842399e-09
9.61302017514e-10
2.74766692074e-10
0.000204498281862
9.93510106612e-05
3.85552963305e-05
1.13483325467e-05
2.99938074271e-06
6.5506040562e-07
7.38149617968e-08
0.0185957405779
0.0170703245189
0.0150349539702
0.0126893910378
0.0102080710168
0.00774162250814
0.00551213711394
0.00375661395672
0.00237825491573
0.00144629570722
0.000868349472671
0.000527410404831
0.000324864849812
0.000195293983061
0.000105155370484
4.33152265243e-05
1.22963164652e-05
3.13976886514e-06
6.7578980247e-07
7.43863838989e-08
0.00480882064969
0.00452020263405
0.00410345604403
0.00359645096069
0.00302963785039
0.00243327928229
0.00186486441365
0.0013600136897
0.000931795792847
0.000611449139912
0.000392749201825
0.000253407502416
0.00016564283988
0.000106720417448
6.4090151997e-05
3.00432115715e-05
8.87775395388e-06
2.3016343345e-06
4.82629027895e-07
5.04565486667e-08
0.00122730210353
0.00116531806335
0.00107669346838
0.000966545572874
0.000839607257778
0.00070093072272
0.000559989162254
0.000424992869473
0.000305636159513
0.000211811943303
0.000144194506521
9.74246679783e-05
6.48952498258e-05
4.19718757014e-05
2.59552898241e-05
1.34391980077e-05
4.69299130502e-06
1.39943740705e-06
2.81496818464e-07
2.9071325714e-08
0.000418159736379
0.000394934249708
0.000363809769061
0.000326407215344
0.000284345630685
0.000239171053298
0.000193177838832
0.000149051481459
0.000109978512592
7.85712420913e-05
5.51726412691e-05
3.82686937568e-05
2.59164636436e-05
1.69491081614e-05
1.06260957573e-05
5.89712667469e-06
2.42782288252e-06
7.77700096569e-07
1.51943172056e-07
1.91015284223e-08
0.000183855278997
0.000171967047583
0.000156698966547
0.000139016224477
0.000119872999583
0.000100128685874
8.07639053872e-05
6.28050803658e-05
4.71967656092e-05
3.45379991355e-05
2.47923953596e-05
1.7469379666e-05
1.19763901327e-05
7.93433598613e-06
5.0525533946e-06
2.90207847518e-06
1.30955210241e-06
4.22717594568e-07
8.61842318677e-08
1.77492886726e-08
9.46114800692e-05
8.79472882363e-05
7.94999377081e-05
6.987655987e-05
5.96958548825e-05
4.9496138297e-05
3.98192619721e-05
3.11150267026e-05
2.36768723944e-05
1.76116504479e-05
1.28409530459e-05
9.17835193701e-06
6.4120981876e-06
4.34364573324e-06
2.78871826769e-06
1.59177188127e-06
7.34189298838e-07
2.39042368682e-07
6.03198331456e-08
2.14026911872e-08
5.13260875487e-05
4.76149118571e-05
4.29046055557e-05
3.75301450962e-05
3.19050716565e-05
2.63508298825e-05
2.11892580419e-05
1.66354201989e-05
1.27892247935e-05
9.64515949761e-06
7.14187430051e-06
5.19022874498e-06
3.69702284122e-06
2.56012317852e-06
1.66835463221e-06
9.57046916489e-07
4.49103258287e-07
1.61048671147e-07
5.75419085144e-08
2.80538708361e-08
2.70734344621e-05
2.51512156177e-05
2.26944636503e-05
1.98848857954e-05
1.69312063087e-05
1.4021175571e-05
1.13295674313e-05
8.96650701054e-06
6.97406755466e-06
5.33589414291e-06
4.01453187755e-06
2.96811973927e-06
2.15490835269e-06
1.5266586748e-06
1.02380097873e-06
6.12381643212e-07
3.11602663314e-07
1.36804861958e-07
6.6200386675e-08
3.50619432174e-08
1.31850538403e-05
1.22943658285e-05
1.11503982964e-05
9.83417984742e-06
8.43984570969e-06
7.06006066677e-06
5.77596924012e-06
4.63859783966e-06
3.66784048134e-06
2.85636672553e-06
2.18808088692e-06
1.64945810824e-06
1.22511507475e-06
8.93659860057e-07
6.27572170726e-07
4.07187597273e-07
2.37952308576e-07
1.30825176874e-07
7.45390290519e-08
3.90425606201e-08
5.86694367597e-06
5.49600937965e-06
5.01789902312e-06
4.46419560197e-06
3.87404825209e-06
3.28731605859e-06
2.73707327006e-06
2.24405920127e-06
1.81737681915e-06
1.45603159549e-06
1.15462298205e-06
9.05961701822e-07
7.03551284508e-07
5.38874385531e-07
4.02340381669e-07
2.86170504284e-07
1.9143554787e-07
1.22302593598e-07
7.43666693548e-08
3.69696246214e-08
2.56311949985e-06
2.41091409157e-06
2.21507841336e-06
1.98844533966e-06
1.74753043901e-06
1.50842667313e-06
1.28350118502e-06
1.08065263989e-06
9.03818263879e-07
7.53317112172e-07
6.26421811515e-07
5.18724959469e-07
4.26569150665e-07
3.46569564832e-07
2.75154295759e-07
2.1041538132e-07
1.53111195012e-07
1.04870677443e-07
6.45868155976e-08
2.92739498617e-08
1.25456549755e-06
1.18222571194e-06
1.09045334466e-06
9.86382051444e-07
8.78359293477e-07
7.73531366725e-07
6.76784166058e-07
5.90540016579e-07
5.15240623136e-07
4.49751400695e-07
3.91717175822e-07
3.3854926249e-07
2.88734763052e-07
2.41500826515e-07
1.96472870159e-07
1.54049782016e-07
1.1506564182e-07
8.01308976461e-08
4.87556564406e-08
2.02943801332e-08
7.81113124076e-07
7.34953209395e-07
6.77945675062e-07
6.15594442932e-07
5.534207127e-07
4.9553789371e-07
4.44013395871e-07
3.98814811334e-07
3.58398934585e-07
3.20657714189e-07
2.83869186349e-07
2.47193556987e-07
2.10758239179e-07
1.75215750312e-07
1.41352778373e-07
1.09981894161e-07
8.15958611651e-08
5.62044084623e-08
3.33456657773e-08
1.30133384975e-08
6.15627485709e-07
5.78422192395e-07
5.33047461899e-07
4.84285818123e-07
4.36579502758e-07
3.92882505821e-07
3.54145540887e-07
3.19461472986e-07
2.86914047463e-07
2.54762074758e-07
2.22274199811e-07
1.89745088369e-07
1.58030242384e-07
1.28116004123e-07
1.00812868286e-07
7.66066365314e-08
5.55772707903e-08
3.73960741501e-08
2.14916063346e-08
7.99012897967e-09
5.4459049403e-07
5.12282973793e-07
4.72475398664e-07
4.29183923358e-07
3.86154228102e-07
3.45848884715e-07
3.09010241633e-07
2.74895108135e-07
2.42153349646e-07
2.09867252582e-07
1.78061980677e-07
1.47471699106e-07
1.19036348501e-07
9.352732963e-08
7.1381652611e-08
5.26591988819e-08
3.71023158813e-08
2.41839635484e-08
1.33880872353e-08
4.7773574459e-09
4.87020653876e-07
4.59681308144e-07
4.25320906542e-07
3.87008674373e-07
3.47744100654e-07
3.09613717362e-07
2.7344533325e-07
2.39027335412e-07
2.05811280958e-07
1.73643542779e-07
1.43012801435e-07
1.14757945366e-07
8.96581839907e-08
6.81645667905e-08
5.03433857185e-08
3.59334977265e-08
2.44792077462e-08
1.53685316657e-08
8.16074603866e-09
2.8007363921e-09
4.2065709414e-07
3.98824255841e-07
3.70825408575e-07
3.38803529471e-07
3.04965577234e-07
2.70933914451e-07
2.3751510359e-07
2.04899609721e-07
1.73172348805e-07
1.42761666207e-07
1.1447262407e-07
8.91856612549e-08
6.75182227968e-08
4.96712338638e-08
3.54560653637e-08
2.44245968998e-08
1.60161168063e-08
9.64346906422e-09
4.8960300091e-09
1.61677113882e-09
3.46554733882e-07
3.3018529154e-07
3.08837211693e-07
2.83896627721e-07
2.56839589353e-07
2.28776163944e-07
2.00301929131e-07
1.71714152828e-07
1.43418152469e-07
1.16200655254e-07
9.11136394033e-08
6.9118990865e-08
5.07765161628e-08
3.61530250809e-08
2.49181531991e-08
1.65356918332e-08
1.04068979487e-08
5.99563531628e-09
2.90930717355e-09
9.2664384754e-10
2.72029452061e-07
2.60478812185e-07
2.45229371371e-07
2.27127695948e-07
2.0707541288e-07
1.85720512441e-07
1.63357491988e-07
1.40148903276e-07
1.16517422903e-07
9.3370693828e-08
7.19286747066e-08
5.32820346146e-08
3.80365354187e-08
2.62188337572e-08
1.74425577024e-08
1.11387064973e-08
6.72188117631e-09
3.70514686114e-09
1.72176461708e-09
5.30164149421e-10
2.03833462359e-07
1.96136940327e-07
1.85897687586e-07
1.73615176027e-07
1.59806083259e-07
1.4477121838e-07
1.28539472043e-07
1.11053052552e-07
9.25390603394e-08
7.38030820809e-08
5.61083452452e-08
4.06909765786e-08
2.82646121653e-08
1.8878063516e-08
1.21314383325e-08
7.45995257647e-09
4.32304210798e-09
2.2853377194e-09
1.02135198611e-09
3.05388360059e-10
1.46165887212e-07
1.41299692875e-07
1.34821099094e-07
1.27013641647e-07
1.18154822861e-07
1.08341188817e-07
9.74335939875e-08
8.5183972968e-08
7.15631672282e-08
5.71213062378e-08
4.30263977927e-08
3.06139248712e-08
2.07202518318e-08
1.34323698518e-08
8.35545802199e-09
4.96119967439e-09
2.77074210525e-09
1.41096567815e-09
6.09825622296e-10
1.78246770071e-10
1.00548511413e-07
9.7634542023e-08
9.37667190899e-08
8.91115787559e-08
8.38163911803e-08
7.78787935798e-08
7.10918952042e-08
6.31090839035e-08
5.36917070845e-08
4.30834369311e-08
3.22531308761e-08
2.25584183299e-08
1.49097005925e-08
9.40893545166e-09
5.68728260721e-09
3.27627929787e-09
1.77313918207e-09
8.75051089206e-10
3.6770392353e-10
1.0560035627e-10
6.65224408285e-08
6.48691338013e-08
6.26938563194e-08
6.00992305327e-08
5.71611416861e-08
5.3842814561e-08
4.99413311862e-08
4.50984915816e-08
3.89617041925e-08
3.15172817097e-08
2.34925331342e-08
1.61795148889e-08
1.0474485471e-08
6.46362999951e-09
3.8172859554e-09
2.14626679508e-09
1.13261833384e-09
5.4503500654e-10
2.23972837017e-10
6.33914870565e-11
4.24453694849e-08
4.15579218678e-08
4.0408622559e-08
3.90649839371e-08
3.75665000132e-08
3.58758423627e-08
3.38206662688e-08
3.10879139811e-08
2.72950246718e-08
2.22688290252e-08
1.65315473002e-08
1.12336070617e-08
7.1543948576e-09
4.34183008184e-09
2.52062181064e-09
1.39188984818e-09
7.20574071128e-10
3.39946757815e-10
1.37155900726e-10
3.82790700711e-11
2.61893649981e-08
2.57421161186e-08
2.51794610339e-08
2.45439659037e-08
2.38602317954e-08
2.30968519218e-08
2.21245819895e-08
2.06899557073e-08
1.84373480749e-08
1.51354326734e-08
1.11776602242e-08
7.51579514677e-09
4.73512807792e-09
2.84353174298e-09
1.63264613687e-09
8.90455123164e-10
4.54550349689e-10
2.11113756595e-10
8.37677330443e-11
2.29783169797e-11
1.56673764066e-08
1.54587110723e-08
1.52095270548e-08
1.49476145741e-08
1.46887556885e-08
1.44094024999e-08
1.40167417899e-08
1.33131201407e-08
1.19966210962e-08
9.85938558848e-09
7.23371805918e-09
4.83168308289e-09
3.02967320101e-09
1.81106928046e-09
1.03370459201e-09
5.59240640536e-10
2.82362623899e-10
1.29269654918e-10
5.03470332737e-11
1.34566318319e-11
9.09310248297e-09
9.00745639609e-09
8.91570736856e-09
8.83597426973e-09
8.77819153011e-09
8.72600794074e-09
8.61253590604e-09
8.28595651978e-09
7.50644392771e-09
6.1396427929e-09
4.47510699359e-09
2.98364787599e-09
1.87220569638e-09
1.11913584965e-09
6.37120129883e-10
3.4259264308e-10
1.71153495964e-10
7.70501751883e-11
2.92397526577e-11
7.48278309557e-12
5.07106280886e-09
5.0463111382e-09
5.02919234471e-09
5.03083071829e-09
5.05720084008e-09
5.09705033234e-09
5.10270822707e-09
4.95917868012e-09
4.49172160825e-09
3.64370087819e-09
2.64465395445e-09
1.76777635563e-09
1.11385071574e-09
6.67077057633e-10
3.79009830883e-10
2.02311724091e-10
9.96006474969e-11
4.37073357499e-11
1.58927247278e-11
3.77263006408e-12
2.56297545262e-09
2.56786910682e-09
2.58373892162e-09
2.61630662411e-09
2.66877553643e-09
2.73500105214e-09
2.78675251912e-09
2.74905919361e-09
2.50445180559e-09
2.02922009156e-09
1.47611674e-09
9.92793691587e-10
6.28858609265e-10
3.77054538979e-10
2.13154192437e-10
1.12252248157e-10
5.38744544751e-11
2.26277203848e-11
7.64273046844e-12
1.59760311257e-12
9.6558407294e-10
9.77066128702e-10
9.95789185352e-10
1.02343362161e-09
1.06116224318e-09
1.1078494571e-09
1.15771694631e-09
1.19029883814e-09
1.1474406374e-09
9.7435538205e-10
7.29830412815e-10
4.99958606224e-10
3.19867064908e-10
1.92041092983e-10
1.07611380683e-10
5.54367931041e-11
2.55541279123e-11
1.00240705201e-11
3.02643535271e-12
5.29965600831e-13
2.76521773902e-10
2.80678256601e-10
2.87159628333e-10
2.96338605095e-10
3.08622540449e-10
3.23971698709e-10
3.42292474737e-10
3.62082008199e-10
3.72710434535e-10
3.48947973378e-10
2.86329591211e-10
2.09492732882e-10
1.39913112866e-10
8.6146068811e-11
4.87217090908e-11
2.49421824764e-11
1.12014404192e-11
4.18866421474e-12
1.16974980004e-12
1.87650908569e-13
1.09378718091e-08
1.55735487351e-09
1.06158879295e-08
1.61152707886e-09
7.26854520276e-09
1.405024064e-09
4.91457460408e-09
1.44949111397e-09
4.50188018056e-09
1.97146919405e-09
5.73206261407e-09
3.04421295635e-09
8.44547978669e-09
4.70740814348e-09
1.22445539801e-08
6.77874924957e-09
1.55093997977e-08
8.5018776298e-09
1.552841615e-08
8.52299954069e-09
1.07455604517e-08
5.81096927958e-09
4.88932681535e-09
1.34922306413e-09
2.19057971182e-09
3.08227684425e-10
1.11358126773e-09
1.04889363853e-10
6.51009123961e-10
5.20454279051e-11
4.10550940663e-10
3.08156341986e-11
2.62020924423e-10
1.91701759178e-11
1.63929573249e-10
1.1873950408e-11
1.00868201093e-10
7.28095652109e-12
6.11221526696e-11
4.41927375108e-12
3.68417797311e-11
2.67401873961e-12
2.23325639883e-11
1.63041206571e-12
1.36422514702e-11
1.00256324026e-12
8.38220297386e-12
6.19572347838e-13
5.13227090433e-12
3.80075790886e-13
3.07638083299e-12
2.27100969934e-13
1.76441299728e-12
1.28867992179e-13
9.35003551474e-13
6.70501172601e-14
4.33515684407e-13
3.04630626374e-14
1.65313155438e-13
1.16001711769e-14
5.35593245287e-14
3.97375007162e-15
2.23624447197e-14
1.90737145936e-15
)
;

boundaryField
{
    inletfuel
    {
        type            fixedValue;
        value           nonuniform 0();
    }
    inletair
    {
        type            fixedValue;
        value           nonuniform 0();
    }
    outlet
    {
        type            zeroGradient;
    }
    axis
    {
        type            empty;
    }
    leftside
    {
        type            zeroGradient;
    }
    burnerwall
    {
        type            zeroGradient;
    }
    front
    {
        type            wedge;
    }
    back
    {
        type            wedge;
    }
    procBoundary1to0
    {
        type            processor;
        value           nonuniform List<scalar> 
27
(
0.044073650953
0.0437823110851
0.0431054699593
0.0421512628632
0.000127058627062
5.85126287804e-05
2.11765286118e-05
6.43966368e-06
1.89557965129e-06
4.16541588847e-07
4.53917346097e-08
0.0399907132985
0.0358469949409
0.0306686318786
0.0250661447252
0.019609692291
0.014679542178
0.0103580189877
0.00663896703088
0.00374999556145
0.00208531502096
0.00115899776906
0.000653461787707
0.000372299651042
0.000372299651042
6.79080249091e-09
9.80598325102e-10
)
;
    }
}


// ************************************************************************* //
