/*--------------------------------*- C++ -*----------------------------------*\
  =========                 |
  \\      /  F ield         | OpenFOAM: The Open Source CFD Toolbox
   \\    /   O peration     | Website:  https://openfoam.org
    \\  /    A nd           | Version:  7
     \\/     M anipulation  |
\*---------------------------------------------------------------------------*/
FoamFile
{
    version     2.0;
    format      ascii;
    class       volScalarField;
    location    "0.08";
    object      H2O;
}
// * * * * * * * * * * * * * * * * * * * * * * * * * * * * * * * * * * * * * //

dimensions      [0 0 0 0 0 0 0];

internalField   nonuniform List<scalar> 
815
(
0.226836103721
0.226840251189
0.226812775047
0.194351837775
0.194322505542
0.19414705064
0.157626449618
0.157475699133
0.15713937692
0.134956659576
0.134758371762
0.134332833174
0.120003142641
0.119801689478
0.119367574301
0.108334517489
0.108168661337
0.107806014693
0.0972598693549
0.0971516252585
0.0968989730543
0.0852091124814
0.0851553281796
0.0850107205914
0.0717774100932
0.071765985114
0.0717059302423
0.0581749114505
0.0581861497814
0.0581771631306
0.0464270569408
0.0464437229346
0.0464562744619
0.037536477451
0.0375526063748
0.0375760452597
0.0314297438672
0.031440575496
0.031464248099
0.0273681906778
0.0273793468159
0.027402385087
0.0246523953145
0.024662045909
0.0246823310251
0.0227393695077
0.0227472361294
0.0227636574162
0.0212920087249
0.0212984278491
0.0213113932659
0.0201229679738
0.0201274906363
0.0201367286919
0.019122663652
0.0191255673182
0.019131393119
0.0182302227536
0.0182317213214
0.0182345356899
0.0174115829145
0.0174117590426
0.0174117982468
0.016644900376
0.0166441269893
0.0166419209573
0.0159195523297
0.0159179274721
0.0159137885447
0.0152300404671
0.0152276043943
0.015221717342
0.0145729468995
0.0145698469722
0.0145625020746
0.0139489033626
0.0139451156325
0.0139363857544
0.013358638179
0.0133542911659
0.0133444197987
0.0128073562289
0.012802541107
0.0127917097167
0.0123074052523
0.0123021562526
0.0122903908954
0.0118734763762
0.011867852119
0.0118553625318
0.0115557022668
0.0115500293473
0.011537497123
0.226756121062
0.193842859535
0.156641526583
0.133724057537
0.118752271744
0.107292571667
0.0965379048633
0.0847947789214
0.0716048957553
0.0581481284476
0.0464619069451
0.0376007769374
0.0314940248325
0.0274333547752
0.0247101255218
0.0227863738184
0.0213291935988
0.0201493436856
0.0191392459565
0.0182381675998
0.0174115682086
0.0166385731621
0.0159077499574
0.0152132393189
0.0145519900679
0.0139239832347
0.0133304647
0.0127764591607
0.0122739057569
0.0118379615966
0.0115200269803
0.113330618822
0.0829807376772
0.0483404810259
0.0202234228477
0.00632308009475
0.00172360401656
0.00111926966487
0.226598762792
0.22611172223
0.225277156859
0.224004576169
0.222105633793
0.219037613316
0.213224303092
0.202933362712
0.1895856647
0.173637581593
0.157510115734
0.142719234675
0.128913250657
0.113752731138
0.0920292844254
0.057830139507
0.0238203715718
0.0073331646339
0.00212966312277
0.00151327815521
0.193071181762
0.191039295903
0.187934751855
0.183679893198
0.178130715462
0.171056741342
0.16203522438
0.151137660649
0.138974632016
0.126393258445
0.114497973118
0.104246351817
0.0956868255145
0.0873885512865
0.0752896472431
0.0507662395235
0.0207690191223
0.006396434436
0.00226969146399
0.00205148610227
0.155485447638
0.152883404294
0.149074477844
0.143942756574
0.13738335156
0.12934505481
0.119911363857
0.109509965317
0.098904090344
0.0889351720851
0.0800785338521
0.0723812214886
0.0654051402005
0.0581086545407
0.0480954146254
0.0319093366126
0.0140453083661
0.00525469551358
0.00268288098859
0.00287609928344
0.132369384396
0.129441564328
0.125240100506
0.119669978831
0.112688408513
0.104369060308
0.0950177655045
0.0852523654494
0.075856188285
0.0673653820016
0.0598324204494
0.0529768265453
0.0462717177668
0.0390203514841
0.0304536196864
0.0201368957263
0.0102782557788
0.00522349860278
0.0037648187104
0.00411284139254
0.117392127637
0.114484617935
0.110340271503
0.104883467138
0.0981104689728
0.0901682847037
0.0814561364437
0.0726254633094
0.0643234480092
0.0568258522162
0.0499834212701
0.0434713428983
0.0369247976523
0.0300795354378
0.0229852068975
0.0158660223044
0.00994248965251
0.00682808621504
0.00578373931988
0.00590454468248
0.106143681149
0.103673618831
0.100137111796
0.0954559076733
0.0896107774034
0.0827170664626
0.0751122861449
0.0673485237503
0.0599660276523
0.0531880454966
0.0468908402731
0.0408461358843
0.0348604564595
0.0288178828527
0.0227922957476
0.017148631632
0.0128407153229
0.0103644611048
0.00904157470586
0.00839006822595
0.095718692273
0.0939043170746
0.0912803047516
0.0877510269653
0.0832737229012
0.0778890490455
0.0718092093098
0.0654209703664
0.0591569896133
0.0532765848205
0.047792512465
0.0425612080532
0.037429526622
0.0322849347695
0.0271713350218
0.0224401684906
0.0187221402221
0.0160671967854
0.0137524534835
0.0116534344304
0.0842978875843
0.083168920378
0.0815102852197
0.0792316992188
0.0762635539361
0.0725912452533
0.0683101343695
0.0636397385981
0.0588782421311
0.054271899635
0.0499157913464
0.0457726759361
0.0417313376717
0.0376999549202
0.0336734422033
0.029831682769
0.0264216108242
0.0231799291167
0.019567140174
0.0154422089967
0.0713659308865
0.0708050065348
0.0699606056754
0.0687539215294
0.0671109308144
0.0649898905846
0.0624114445481
0.0594771112945
0.0563585763156
0.0532255819566
0.0501923359399
0.047295668486
0.0445115715116
0.041799061901
0.0390997119069
0.0363825524711
0.0335414651469
0.0300325228389
0.0252632611705
0.0190488553839
0.0580735070512
0.0578809487677
0.0575681147831
0.0570728440936
0.0563346738467
0.055311271938
0.0539957340176
0.0524324356593
0.0507165027875
0.0489583071765
0.0472475037402
0.0456193184325
0.0440856491822
0.0426238398319
0.0411718532431
0.0396070512174
0.0376255493412
0.0344768040559
0.0291895190711
0.0216219410059
0.0464709327051
0.0464772691933
0.0464545342416
0.0463582117346
0.0461457820579
0.045783990451
0.0452590141097
0.0445904787431
0.0438336296672
0.0430620038283
0.0423327315111
0.0416702327697
0.0410785040503
0.0405386451134
0.0399911379265
0.0392863929762
0.0380586427314
0.0355199514863
0.03052684713
0.0229423288631
0.0376523419203
0.0377576764141
0.0378823534697
0.0379984297966
0.0380786893896
0.038099286791
0.0380483999299
0.037931429763
0.0377741739536
0.0376150181836
0.0374835567082
0.0373853778116
0.0373167784244
0.0372544227836
0.0371342679462
0.0368068381206
0.035934997236
0.033865835034
0.029698699129
0.0235285410781
0.0315599040424
0.0317048594701
0.0318959403382
0.0321171814579
0.0323511892172
0.0325812242973
0.0327953888892
0.0329888117657
0.0331652690391
0.0333334127583
0.0334991787673
0.0336583972843
0.0337982156247
0.0338910894917
0.0338759111333
0.0336249892323
0.0328829649797
0.0312081485818
0.0280970351448
0.0238168009932
0.0275011464927
0.0276518931859
0.0278607240562
0.0281201797625
0.0284202069939
0.0287483357528
0.0290908392966
0.0294341233314
0.0297666590007
0.0300790222699
0.0303624098191
0.0306059653094
0.0307938536117
0.0308991969907
0.0308720602741
0.0306204945263
0.0299875992136
0.0287372853581
0.0266561064986
0.0240637504377
0.0247711155497
0.0249079946635
0.025103488624
0.0253561408392
0.0256617418873
0.0260119567915
0.0263934179344
0.0267877774525
0.0271744335503
0.0275336529505
0.0278487468339
0.0281056141537
0.0282904731983
0.0283837702806
0.028354052428
0.0281497815851
0.0276947257079
0.0268877047129
0.0256883542068
0.0244034646192
0.0228364734103
0.0229503551465
0.0231167219698
0.023337855256
0.0236140071259
0.0239411874019
0.0243089309075
0.0246989300061
0.025087363133
0.025449836959
0.0257661281344
0.0260221509233
0.026208410956
0.0263160725113
0.0263335299122
0.0262437829294
0.0260259429922
0.0256573887232
0.0251808611609
0.0248533293435
0.021368166997
0.0214566885919
0.0215880598293
0.0217666210004
0.0219957005505
0.0222754114852
0.022599966657
0.0229551009627
0.0233188979029
0.0236669666449
0.0239789080809
0.0242426024476
0.0244538759282
0.0246145475958
0.0247298875091
0.0248076621588
0.0248582409663
0.0249024874154
0.0250090379824
0.0253710694463
0.0201770929222
0.0202405869228
0.020336276054
0.0204691384399
0.0206441181429
0.0208647022247
0.021130305378
0.0214332869177
0.02175796836
0.0220843561519
0.0223950748219
0.0226809519006
0.0229429111782
0.0231910117556
0.0234423211847
0.0237193985746
0.0240482743459
0.0244679562544
0.0250436379386
0.0259052737365
0.0191565604406
0.0191968242272
0.0192587604575
0.01934703149
0.0194670898369
0.0196246120786
0.0198237005771
0.0200643497112
0.0203403460331
0.0206405903399
0.0209542476177
0.0212762314636
0.0216111367199
0.0219735305576
0.0223865773331
0.0228787629077
0.0234824781525
0.0242380445369
0.0251952347037
0.02643410912
0.0182461837039
0.0182656747644
0.0182970333645
0.0183440448748
0.0184119166184
0.0185072154597
0.0186375899536
0.0188104232943
0.0190307903595
0.019300860745
0.0196206676687
0.0199909443738
0.0204176000339
0.0209151928815
0.0215068142264
0.0222208646236
0.0230892583677
0.0241447424349
0.0254187934138
0.0269566850523
0.0174112514319
0.0174123810141
0.0174167290834
0.0174268401619
0.0174471071692
0.0174842015241
0.0175479369156
0.0176517907461
0.0178128332743
0.0180501808105
0.0183799800375
0.0188106422129
0.0193463885829
0.0199961085243
0.0207777924562
0.0217157621766
0.022836378734
0.0241615571512
0.0257053002396
0.0274895738436
0.0166311581434
0.0166164478727
0.0165972473126
0.0165749822779
0.0165531173305
0.0165379251424
0.0165403492475
0.0165786235252
0.0166815140492
0.0168878909309
0.0172350819266
0.0177403512303
0.0184015797884
0.0192167098433
0.0201952717682
0.0213544254753
0.0227123861161
0.0242806716911
0.0260611380009
0.0280564604927
0.0158942220281
0.0158658220473
0.0158262837222
0.015776102955
0.0157178032941
0.0156571893378
0.0156059963862
0.0155864777772
0.0156388455296
0.015823764559
0.0162027628852
0.0168005423336
0.017602894715
0.0185930047205
0.01976976616
0.0211424002899
0.0227209289952
0.0245080428661
0.0264961395242
0.028677377749
0.0151942975165
0.0151540299657
0.0150969518657
0.0150229202605
0.0149337886417
0.0148353071893
0.014740055283
0.0146747702305
0.0146917448907
0.0148750636187
0.0153097831818
0.0160215464402
0.0169780718375
0.018146571735
0.019516211741
0.0210888807582
0.022868127088
0.0248509858921
0.0270212801973
0.0293688743873
0.0145284430091
0.0144779951497
0.0144060895824
0.0143121006672
0.0141978101588
0.0140693577137
0.0139414094535
0.013846780031
0.0138524545572
0.0140665761025
0.0145903254416
0.0154378264349
0.0165553932136
0.017897664734
0.0194467444288
0.0211994763889
0.0231554112224
0.0253075622129
0.0276379113765
0.030139952594
0.0138963411386
0.0138372816192
0.013753077107
0.0136430594884
0.0135094789818
0.0133598431335
0.0132127737978
0.0131105565258
0.0131390988359
0.013428043365
0.0140778614335
0.0150767445715
0.0163522702261
0.0178535441823
0.0195601331742
0.0214670378117
0.0235720863791
0.0258677170899
0.028340980743
0.030994166191
0.0132994473407
0.0132333769455
0.0131394463257
0.0130174109942
0.0128706870809
0.0127096379555
0.0125596159475
0.0124775828687
0.0125722088701
0.0129845769125
0.0137895461344
0.0149412983345
0.0163589708229
0.017994581047
0.0198299600927
0.0218601033522
0.024083798141
0.0264994578979
0.0291063131892
0.0319213459198
0.012742630705
0.0126708353148
0.0125693982276
0.0124389691476
0.0122849238365
0.0121220872701
0.0119861865551
0.0119548369745
0.0121605536401
0.0127356005082
0.0137053551725
0.0149949253363
0.0165287954806
0.0182680995655
0.0201986512617
0.0223186076866
0.0246327808986
0.0271514357678
0.0298934994368
0.0328943475585
0.0122374734766
0.0121604402516
0.0120524841277
0.0119154254113
0.0117568570998
0.0115966524854
0.0114830081701
0.0115196350435
0.0118636359409
0.0126167804898
0.0137407286823
0.0151436127339
0.0167636851489
0.0185739580681
0.0205675792558
0.0227494425639
0.0251337826947
0.0277466499967
0.0306319766155
0.0338457997185
0.0117996274089
0.0117184126456
0.0116049971216
0.0114619289954
0.0112980985466
0.0111363584135
0.0110334192714
0.0111153659279
0.0115699634777
0.012478804824
0.0137396888725
0.0152392379731
0.0169266796149
0.0187884214446
0.0208274127258
0.0230577918926
0.025502880603
0.0282042979055
0.0312225140744
0.0346335812803
0.0114811726575
0.0113982918546
0.0112823720477
0.0111361446971
0.0109691375949
0.0108052992421
0.0107035347066
0.0107946233839
0.0112791429593
0.0122508608424
0.0135922141909
0.0151675613904
0.0169175050028
0.0188301027566
0.0209154183625
0.023191434465
0.0256891356016
0.0284503159164
0.0315485698278
0.0350524122213
0.00233727914533
0.00333720182379
0.00292491142599
0.0040132722003
0.00375929059911
0.00489848846359
0.00487414454592
0.00602727280561
0.00628837586845
0.00741582910676
0.00803025827057
0.0090582560753
0.0100645704271
0.0109015519002
0.0123834143648
0.0129115627664
0.0149158920204
0.015013282898
0.0172926259526
0.0170184823027
0.0191217773805
0.0187668599156
0.0205392470828
0.020302177252
0.0218652653102
0.0218359481554
0.023129009444
0.023300700837
0.0242743341831
0.0246088035503
0.0252721073934
0.0257322162472
0.0261397723266
0.0266968100445
0.0269124041457
0.0275467355347
0.0276151989934
0.0283185882264
0.0282767068114
0.0290444451361
0.0289216086136
0.0297524764635
0.0295732360509
0.0304666181425
0.0302562155493
0.0312092800387
0.0309902456631
0.0319990415283
0.0317923316875
0.0328501562013
0.0326737184685
0.0337707870118
0.0336372481132
0.0347572911774
0.0346695371566
0.0357872510032
0.0357301351528
0.0368052995114
0.0367208582832
0.0377073609036
0.037468354859
0.0383496840383
0.0378249717981
0.0386268099391
)
;

boundaryField
{
    inletfuel
    {
        type            fixedValue;
        value           nonuniform 0();
    }
    inletair
    {
        type            fixedValue;
        value           nonuniform 0();
    }
    outlet
    {
        type            zeroGradient;
    }
    axis
    {
        type            empty;
    }
    leftside
    {
        type            zeroGradient;
    }
    burnerwall
    {
        type            zeroGradient;
    }
    front
    {
        type            wedge;
    }
    back
    {
        type            wedge;
    }
    procBoundary1to0
    {
        type            processor;
        value           nonuniform List<scalar> 
27
(
0.23552772452
0.235563456219
0.23563625428
0.23573028788
0.0816240627896
0.0550779212738
0.0295749303982
0.012140848577
0.00389009618549
0.00106857643384
0.000803955944732
0.235922475483
0.236146296433
0.236151221362
0.235649961355
0.234289448016
0.231707410316
0.227926630324
0.222752330354
0.213878525272
0.197735164782
0.178624845467
0.158721098662
0.137728472287
0.137728472287
0.00193019646061
0.00282298867916
)
;
    }
}


// ************************************************************************* //
