/*--------------------------------*- C++ -*----------------------------------*\
  =========                 |
  \\      /  F ield         | OpenFOAM: The Open Source CFD Toolbox
   \\    /   O peration     | Website:  https://openfoam.org
    \\  /    A nd           | Version:  7
     \\/     M anipulation  |
\*---------------------------------------------------------------------------*/
FoamFile
{
    version     2.0;
    format      ascii;
    class       volScalarField;
    location    "0.08";
    object      HE;
}
// * * * * * * * * * * * * * * * * * * * * * * * * * * * * * * * * * * * * * //

dimensions      [0 0 0 0 0 0 0];

internalField   nonuniform List<scalar> 
815
(
0.000102461791544
0.000102327245289
0.000102210741142
0.000132318178836
0.000132209338165
0.000132059881866
0.000144032805732
0.000143981445549
0.000143872267576
0.00014873725238
0.000148689541174
0.000148583102167
0.000151204705851
0.000151161930479
0.000151066622322
0.000152802489249
0.000152774556512
0.000152712489429
0.000153728412239
0.000153721122784
0.000153705484066
0.000153716500569
0.000153734271621
0.000153771951966
0.000152449124213
0.000152492887421
0.000152583789183
0.000149968986739
0.000150037133497
0.000150177823074
0.000146767496551
0.000146855955516
0.000147039611147
0.000143358372716
0.000143461561014
0.000143678674343
0.00014000370008
0.000140110402435
0.000140339815589
0.000136606555494
0.000136709501675
0.000136929756006
0.00013295105275
0.00013304247705
0.000133238213908
0.000128801818878
0.000128879727758
0.000129045969422
0.000124002079579
0.000124069348247
0.000124210815756
0.000118509661791
0.000118566586606
0.000118686317815
0.000112323771058
0.000112372299726
0.000112473771727
0.000105498291673
0.000105539453034
0.000105624774781
9.81408037511e-05
9.81738384821e-05
9.82420979309e-05
9.03771631201e-05
9.04037924462e-05
9.04561423532e-05
8.23870992068e-05
8.24065932216e-05
8.24422790008e-05
7.43654973546e-05
7.43764488375e-05
7.43935331484e-05
6.64870046222e-05
6.64895348046e-05
6.64880024187e-05
5.89260120602e-05
5.89184946713e-05
5.8896416448e-05
5.18046144123e-05
5.17877358429e-05
5.17462101692e-05
4.52391561986e-05
4.52137607421e-05
4.51544114131e-05
3.93739782208e-05
3.93409069011e-05
3.92650137416e-05
3.43976142449e-05
3.43576272908e-05
3.42678393772e-05
3.08846807156e-05
3.08414363322e-05
3.07453220672e-05
0.000102122218248
0.0001318906305
0.000143726967167
0.000148434350104
0.000150931381903
0.000152623753031
0.00015368178001
0.000153822151828
0.000152706660448
0.00015036756217
0.000147286644234
0.00014396962436
0.000140648289128
0.000137228277304
0.00013350456574
0.000129272637344
0.000124402960664
0.000118848378144
0.000112610514887
0.000105739031893
9.83328705732e-05
9.05250829983e-05
8.24882320529e-05
7.44137039646e-05
6.64823225951e-05
5.8862650437e-05
5.16858127034e-05
4.50696326898e-05
3.91579386992e-05
3.41425534674e-05
3.06110914193e-05
4.57035193642e-05
3.22413495754e-05
1.89656684139e-05
1.04745121014e-05
6.53977034896e-06
3.95572713224e-06
1.88416603941e-06
0.000102020612544
0.000102287196446
0.00010273792168
0.000103173281238
0.00010342323576
0.000103370556778
0.00010283776018
0.000101639487047
9.96199028733e-05
9.64331725935e-05
9.14364580039e-05
8.41759803743e-05
7.44577603947e-05
6.19217893947e-05
4.58704905147e-05
2.75334836802e-05
1.49494328903e-05
9.55901950458e-06
6.11321341294e-06
3.18416716769e-06
0.000131563640933
0.000131111395789
0.000130481788477
0.000129547228174
0.000128179275305
0.000126241499334
0.000123561763916
0.000119909355707
0.000115030486972
0.000108618083458
0.000100357749828
9.01001246073e-05
7.79822911471e-05
6.42331799899e-05
4.85930800129e-05
3.12950129161e-05
1.8619771539e-05
1.29334736047e-05
8.8765367691e-06
5.11924801284e-06
0.000143416531619
0.000142751607349
0.000141729227831
0.000140226782534
0.000138083007086
0.000135085070757
0.00013096042786
0.000125410755546
0.000118225842678
0.000109375522228
9.89506804906e-05
8.70980510809e-05
7.38723989965e-05
5.93917432861e-05
4.43757888599e-05
3.08185905731e-05
2.2261234056e-05
1.74286822199e-05
1.29814111772e-05
8.29041698094e-06
0.000148105755228
0.000147358219595
0.000146178614961
0.000144414554387
0.00014186032997
0.000138252264712
0.00013329045648
0.000126727566904
0.000118502505633
0.000108752443579
9.77018107049e-05
8.55674237039e-05
7.25531492792e-05
5.91193683468e-05
4.63262670065e-05
3.58034463572e-05
2.92277643046e-05
2.46179866556e-05
1.97073989493e-05
1.36312145135e-05
0.000150629131939
0.000149926523256
0.000148793173097
0.000147061197088
0.000144508205975
0.000140868189142
0.000135879053374
0.000129388261658
0.000121438951488
0.000112206880222
0.000101868125011
9.05971055623e-05
7.86775430766e-05
6.67534022091e-05
5.59485521943e-05
4.71686620339e-05
4.10790288246e-05
3.62566855378e-05
3.04629868789e-05
2.21556775855e-05
0.000152420716469
0.000151931237171
0.000151104457921
0.000149784180547
0.000147762668953
0.000144800055421
0.000140667147932
0.000135239736942
0.000128556923394
0.000120757258297
0.000111974740554
0.000102417363995
9.24141467089e-05
8.24661143036e-05
7.33078374773e-05
6.55105267648e-05
5.94755920589e-05
5.40378250061e-05
4.66828706196e-05
3.4605547146e-05
0.000153622961687
0.000153452161793
0.000153094744421
0.00015242037192
0.000151251997714
0.00014939159505
0.000146643420118
0.000142885512347
0.000138113257498
0.000132436109863
0.000126020759777
0.000119024601206
0.00011162998259
0.000104048496502
9.67072639452e-05
9.01069516383e-05
8.44810091997e-05
7.83575947386e-05
6.83658362051e-05
5.10980312361e-05
0.000153928548272
0.000154110165181
0.000154268627941
0.00015429723826
0.000154056244172
0.000153390774593
0.000152150691697
0.000150233055181
0.000147615492165
0.000144374144892
0.00014062487787
0.000136481669401
0.000131999294265
0.000127255452567
0.000122421925838
0.000117751938658
0.000112996077415
0.000106012847542
9.32779580642e-05
6.94377575988e-05
0.000152975831193
0.000153493387299
0.000154129647732
0.000154786568571
0.000155339428807
0.000155655693837
0.000155617389865
0.000155147778311
0.000154230323721
0.000152917623804
0.000151307981695
0.000149492597173
0.00014755503266
0.000145589704824
0.000143567870674
0.000141369998391
0.000138248561249
0.000131350052008
0.00011632290973
8.54949529289e-05
0.000150784161276
0.000151597219532
0.000152627007034
0.000153757509519
0.000154844674859
0.000155742159698
0.000156331878593
0.000156551336892
0.000156407399651
0.000155973659089
0.000155365587331
0.000154705615557
0.000154136626165
0.000153793754754
0.000153661168094
0.000153483877164
0.000152219394244
0.000146676583651
0.000130709654296
9.47445699651e-05
0.000147826869695
0.000148880506673
0.00015020228574
0.000151633713532
0.000152978610469
0.000154040402567
0.000154668734096
0.000154799555493
0.000154471031596
0.000153810906566
0.000152993742242
0.000152199161485
0.000151601193822
0.000151358662929
0.000151543193879
0.000151943184911
0.000151516450272
0.000147104275855
0.000131639675824
9.47966664733e-05
0.000144597854427
0.000145817178956
0.000147315107655
0.000148877106757
0.000150234431839
0.00015111734856
0.000151326654826
0.00015079304851
0.000149594818853
0.000147927329431
0.000146036978644
0.000144152642145
0.000142479965233
0.000141189147736
0.000140355285919
0.000139782127041
0.000138500164383
0.000133713540376
0.000119193989921
8.68823477709e-05
0.000141308399672
0.000142586003295
0.000144122340932
0.000145649350788
0.000146824102258
0.000147298351174
0.000146817528409
0.000145306915202
0.000142891087348
0.000139834499007
0.000136447384753
0.000133002080402
0.000129710782805
0.000126727757812
0.00012410091474
0.00012163263661
0.00011850548908
0.000112514590387
9.92673560962e-05
7.35301598645e-05
0.000137861307169
0.00013908412142
0.000140528775751
0.000141892948396
0.000142777827352
0.000142766036935
0.000141544855883
0.000139020912824
0.000135347640079
0.000130844222323
0.000125872909976
0.00012074590272
0.000115688757532
0.00011084205563
0.000106230690741
0.00010166752204
9.6548121787e-05
8.93957134953e-05
7.74604789942e-05
5.76064987312e-05
0.000134069091773
0.000135161813482
0.000136435980215
0.000137580003754
0.0001381652976
0.000137720358452
0.000135868051603
0.000132469855886
0.000127677515949
0.000121847437035
0.000115394667647
0.000108680756546
0.000101968311772
9.54089259437e-05
8.90329898025e-05
8.27025992787e-05
7.60199503768e-05
6.80510185644e-05
5.72645472436e-05
4.19715879491e-05
0.000129754853116
0.00013069341379
0.000131779322637
0.000132712554627
0.000133060639023
0.000132316767529
0.000130035070438
0.000126000122553
0.000120322275578
0.000113375344113
0.000105636006347
9.75401402661e-05
8.94133060801e-05
8.14482845238e-05
7.37085272351e-05
6.61217928249e-05
5.84647252683e-05
5.01730515637e-05
4.05132121981e-05
2.8737914793e-05
0.000124811539059
0.000125608664765
0.000126527950857
0.00012729426577
0.000127491269189
0.000126597040423
0.000124102308599
0.000119693597893
0.000113402076694
0.000105595167836
9.68161182177e-05
8.76019731749e-05
7.83670356893e-05
6.93686158595e-05
6.07199991008e-05
5.24164965312e-05
4.43470878479e-05
3.62294532827e-05
2.77781766739e-05
1.87925390019e-05
0.00011919418259
0.00011987223285
0.000120656699514
0.000121304160944
0.000121428231387
0.000120512894212
0.000118001168876
0.000113474907837
0.000106853282394
9.84631627072e-05
8.89096821492e-05
7.8851571314e-05
6.8820509944e-05
5.91571070969e-05
5.00290441235e-05
4.1489600605e-05
3.34944798786e-05
2.59433675321e-05
1.87680035434e-05
1.19994943899e-05
0.000112903203591
0.000113480891869
0.000114154937137
0.000114716239615
0.000114818040078
0.000113969778525
0.000111591335721
0.000107168915696
0.000100487122908
9.17919150658e-05
8.17332081962e-05
7.11052458163e-05
6.05818001701e-05
5.05940532897e-05
4.13610639114e-05
3.29661994003e-05
2.54024817154e-05
1.86521298328e-05
1.27154910494e-05
7.65279745911e-06
0.000105984376962
0.000106471557241
0.000107045433217
0.000107530384846
0.00010762481563
0.000106878874315
0.000104718359645
0.000100561634561
9.4052968798e-05
8.53178781744e-05
7.50176389427e-05
6.40901334616e-05
5.33660004233e-05
4.33679021517e-05
3.43450073368e-05
2.63782901209e-05
1.94691346124e-05
1.36060930044e-05
8.77714266676e-06
4.98410733504e-06
9.85304166982e-05
9.89264205714e-05
9.93967535487e-05
9.97950820144e-05
9.98649643736e-05
9.92080978751e-05
9.72818333856e-05
9.34719060413e-05
8.73014142195e-05
7.87524257939e-05
6.84622909359e-05
5.75038723912e-05
4.68676271624e-05
3.71501749103e-05
2.85947895599e-05
2.12567541195e-05
1.51141222119e-05
1.01234080952e-05
6.22918162645e-06
3.36262329788e-06
9.06743754661e-05
9.09741463321e-05
9.13275686999e-05
9.16143231868e-05
9.16205495277e-05
9.10030218933e-05
8.92688865386e-05
8.58080787718e-05
8.00604235975e-05
7.18672495541e-05
6.18202226864e-05
5.11100904112e-05
4.0858289985e-05
3.16861268701e-05
2.38034247865e-05
1.72209761562e-05
1.18778106334e-05
7.68845301875e-06
4.55266231043e-06
2.35658674265e-06
8.25863555206e-05
8.27806862969e-05
8.29994139348e-05
8.31439496546e-05
8.3037065467e-05
8.23890033893e-05
8.07664328753e-05
7.75926412752e-05
7.22717074675e-05
6.45418576793e-05
5.49481425462e-05
4.47654006676e-05
3.51821873785e-05
2.6787311331e-05
1.97293181695e-05
1.39681523875e-05
9.40663292161e-06
5.92871361685e-06
3.40711529901e-06
1.70360827293e-06
7.44556425486e-05
7.45342249483e-05
7.45997482453e-05
7.45713582554e-05
7.43026343695e-05
7.35537872696e-05
7.19504045744e-05
6.89697591751e-05
6.40229832027e-05
5.68054915723e-05
4.78468432783e-05
3.84565924464e-05
2.97917906742e-05
2.23507225748e-05
1.62076215281e-05
1.12836419692e-05
7.45874250776e-06
4.60295752922e-06
2.58204557708e-06
1.25289445723e-06
6.64662439558e-05
6.64219794322e-05
6.6321781652e-05
6.60971119119e-05
6.56288381992e-05
6.47186309219e-05
6.30495265078e-05
6.01596178535e-05
5.55057799811e-05
4.88141820539e-05
4.06454109729e-05
3.22760182367e-05
2.47164853541e-05
1.83324702286e-05
1.31360487137e-05
9.0264081989e-06
5.87885606278e-06
3.56553525043e-06
1.95772569226e-06
9.22390705646e-07
5.87857795505e-05
5.86159086807e-05
5.83441403926e-05
5.79120987987e-05
5.72225849963e-05
5.61116492893e-05
5.43129264566e-05
5.142682919e-05
4.69910246942e-05
4.08364394076e-05
3.35903085216e-05
2.63982316443e-05
2.00387805919e-05
1.47370593195e-05
1.04628770866e-05
7.11356061246e-06
4.57395576238e-06
2.72961509588e-06
1.46625671886e-06
6.68212096522e-07
5.15507081519e-05
5.12592789509e-05
5.08201591674e-05
5.01834796511e-05
4.92696284921e-05
4.79437037745e-05
4.59818329371e-05
4.30499548347e-05
3.8797509677e-05
3.32194944234e-05
2.6992067361e-05
2.10364197632e-05
1.58668210578e-05
1.15943110937e-05
8.16935333083e-06
5.50148046948e-06
3.49357894281e-06
2.04905706329e-06
1.07242746371e-06
4.68225425469e-07
4.48809078761e-05
4.44768701389e-05
4.38833026749e-05
4.30581799437e-05
4.19370803859e-05
4.0409089208e-05
3.82878699842e-05
3.53066252992e-05
3.12555044246e-05
2.63121325051e-05
2.1133639247e-05
1.63619378624e-05
1.22797970522e-05
8.92368620058e-06
6.24300243249e-06
4.16331261094e-06
2.60703183733e-06
1.49685129867e-06
7.56865071303e-07
3.1158904551e-07
3.8920733715e-05
3.84149358803e-05
3.76844666699e-05
3.66971925854e-05
3.54044900422e-05
3.37183858559e-05
3.14860002723e-05
2.85023415118e-05
2.46988332642e-05
2.04121258922e-05
1.62122506673e-05
1.2475177765e-05
9.3188280399e-06
6.73511550299e-06
4.67625862355e-06
3.08368794631e-06
1.89822453283e-06
1.06048813235e-06
5.12195234579e-07
1.9501489366e-07
3.38662328649e-05
3.32760930141e-05
3.24334965933e-05
3.13176979504e-05
2.98987705321e-05
2.81169363972e-05
2.58604206131e-05
2.29782530661e-05
1.94820199402e-05
1.5782004586e-05
1.23697330014e-05
9.44550684466e-06
7.01793698308e-06
5.0442351915e-06
3.47629071887e-06
2.26652166765e-06
1.37060727806e-06
7.43879856931e-07
3.425519933e-07
1.20552019601e-07
3.03119698076e-05
2.96687573281e-05
2.87530924564e-05
2.75507509335e-05
2.60473416558e-05
2.4209961905e-05
2.19740048529e-05
1.92531567037e-05
1.6099272642e-05
1.28779261687e-05
9.99289834112e-06
7.57891991205e-06
5.60846118559e-06
4.02136094572e-06
2.7642548431e-06
1.79555757323e-06
1.0780902251e-06
5.78558122599e-07
2.61103470051e-07
8.91438843735e-08
1.56621941755e-06
1.70271997837e-06
2.76482259903e-06
3.01801480674e-06
4.7350955018e-06
5.21564544315e-06
8.00011639154e-06
8.77998808746e-06
1.31757473354e-05
1.41719775253e-05
2.07873317464e-05
2.15595508866e-05
3.08800850557e-05
3.05763166456e-05
4.28506446325e-05
4.04189372408e-05
5.47783420758e-05
4.950079513e-05
6.29253062725e-05
5.52391853717e-05
6.37679156136e-05
5.5264840812e-05
5.84093014968e-05
4.82537409501e-05
4.92532497794e-05
3.89606141228e-05
3.86585989478e-05
2.92824699927e-05
2.86850170131e-05
2.08212571754e-05
2.03290480362e-05
1.42231427615e-05
1.38404677752e-05
9.42393500785e-06
9.11212893121e-06
6.09885083073e-06
5.88887960679e-06
3.89936684187e-06
3.79686478109e-06
2.49816441548e-06
2.48668248893e-06
1.62742018806e-06
1.67767053265e-06
1.09051786412e-06
1.16956826609e-06
7.53396782885e-07
8.3715625878e-07
5.33017026748e-07
6.06787167444e-07
3.81069919258e-07
4.37757810857e-07
2.70732061782e-07
3.0862212546e-07
1.87883032787e-07
2.08632173765e-07
1.2520871643e-07
1.32709542315e-07
7.9060085277e-08
7.93583421212e-08
4.76795077399e-08
4.81244120756e-08
2.97092890412e-08
3.58949638223e-08
2.29309811709e-08
)
;

boundaryField
{
    inletfuel
    {
        type            fixedValue;
        value           nonuniform 0();
    }
    inletair
    {
        type            fixedValue;
        value           nonuniform 0();
    }
    outlet
    {
        type            zeroGradient;
    }
    axis
    {
        type            empty;
    }
    leftside
    {
        type            zeroGradient;
    }
    burnerwall
    {
        type            zeroGradient;
    }
    front
    {
        type            wedge;
    }
    back
    {
        type            wedge;
    }
    procBoundary1to0
    {
        type            processor;
        value           nonuniform List<scalar> 
27
(
5.64472014588e-05
5.64234631314e-05
5.64819522275e-05
5.66099372348e-05
2.56823052711e-05
1.76666371356e-05
1.03806550942e-05
6.14165886846e-06
3.97170261513e-06
2.29144452036e-06
1.00555620594e-06
5.69719404569e-05
5.80660224133e-05
5.96589662093e-05
6.15656486494e-05
6.3632114732e-05
6.58171613235e-05
6.7701523481e-05
6.90571361226e-05
6.98242133533e-05
6.97057228862e-05
6.78880069762e-05
6.35922873695e-05
5.6310538211e-05
5.6310538211e-05
8.35187122211e-07
9.29602102064e-07
)
;
    }
}


// ************************************************************************* //
