/*--------------------------------*- C++ -*----------------------------------*\
  =========                 |
  \\      /  F ield         | OpenFOAM: The Open Source CFD Toolbox
   \\    /   O peration     | Website:  https://openfoam.org
    \\  /    A nd           | Version:  7
     \\/     M anipulation  |
\*---------------------------------------------------------------------------*/
FoamFile
{
    version     2.0;
    format      ascii;
    class       volScalarField;
    location    "0.08";
    object      k;
}
// * * * * * * * * * * * * * * * * * * * * * * * * * * * * * * * * * * * * * //

dimensions      [0 2 -2 0 0 0 0];

internalField   nonuniform List<scalar> 
815
(
5.36947318043
5.3626227833
5.33199673742
3.30667721522
3.30872624731
3.30311865725
2.71432812241
2.71084828949
2.70215777336
2.65562422832
2.65017953244
2.63777744726
2.6187534225
2.61215617985
2.59704228836
2.43775083026
2.4315664353
2.41754652067
2.12769868346
2.12319115096
2.11192489524
1.70701296449
1.70499579346
1.69822360372
1.23913305888
1.23873894057
1.23511796387
0.815795693764
0.81595078881
0.81432483203
0.512879035179
0.512876448093
0.511880729786
0.331306247219
0.331200323792
0.330621967435
0.239603483336
0.239371424002
0.238855482919
0.198464720807
0.198233829239
0.197690291515
0.181778096217
0.181550752804
0.181021102509
0.175018525257
0.174782267295
0.174201621656
0.171130062715
0.170903453542
0.17034334045
0.167647755798
0.167435557538
0.166901295936
0.163808286647
0.163613924855
0.163120536514
0.159543462587
0.159372366994
0.158932060685
0.154914082599
0.154769785743
0.154401177473
0.150076752351
0.149946797872
0.149612252999
0.144824659601
0.144721725361
0.144461086149
0.139312707673
0.139220845579
0.138996085528
0.133362910085
0.133288934305
0.133118700931
0.127039322197
0.126974689956
0.126843547959
0.120251577502
0.120193749463
0.12009675878
0.113043936703
0.112996972615
0.112952462722
0.107911013789
0.107890755766
0.107942455747
0.12587513905
0.125877588368
0.125940240616
0.270991574222
0.270904248278
0.270751204672
5.29239664521
3.29326528456
2.69043669397
2.62132776688
2.57691756202
2.39889733562
2.09719924429
1.68920972902
1.23033804713
0.81210973729
0.510662252642
0.330010032557
0.238383058
0.197251249955
0.180613470754
0.173796580985
0.169993530952
0.166611760549
0.162905420969
0.15880177837
0.154365028211
0.14964553266
0.144579033336
0.13916513969
0.133338290806
0.127090397508
0.12035778589
0.113227434076
0.108220910509
0.126074631508
0.270492745731
0.843580426877
0.608928824171
0.329687657431
0.127281225738
0.0549022133084
0.035909443189
0.0338135854878
5.20169174183
4.99966151262
4.71840489403
4.37297161635
3.97625717034
3.53808525383
3.06543875257
2.58287261205
2.10635689408
1.66523947302
1.30115314064
1.03324731466
0.859539733128
0.768997698966
0.675247529871
0.409532052662
0.149991223501
0.058493909118
0.0364097669854
0.0349288871961
3.2674401709
3.1925298955
3.06619730868
2.87758957711
2.61803745732
2.29056882433
1.9159401946
1.53480766305
1.18953908699
0.908495519117
0.699486409091
0.562491531489
0.493571063401
0.489801812082
0.503496022589
0.342800627924
0.12480615272
0.0522249254354
0.0349007275677
0.0356597277711
2.66457665917
2.60226778666
2.4850486113
2.28868558661
2.00252758486
1.64148881031
1.25164528608
0.899635156858
0.636544209975
0.465930768479
0.36217485944
0.304702069554
0.283869848422
0.291987496767
0.287794671904
0.19023681833
0.0815025687701
0.0449248974174
0.0334106118169
0.0363892800996
2.58558245063
2.49925931384
2.34344407994
2.09463756947
1.75167880329
1.34778296999
0.948811727008
0.627273564644
0.417726024893
0.300275151414
0.237705641525
0.205831431997
0.191926685728
0.184286958889
0.162396521592
0.10882451574
0.0598209910934
0.0411554020663
0.032768165327
0.0371809449501
2.53340525203
2.43056635705
2.25195929718
1.97789830069
1.61493742502
1.20664949611
0.824889185092
0.535183056767
0.355585481207
0.257269182686
0.203836953721
0.173220942655
0.153567170315
0.135713969707
0.111338963332
0.07870596466
0.0534067257614
0.0416149318374
0.0342820582117
0.0388633866021
2.35837027273
2.26372849291
2.10112283094
1.85302537293
1.52489898205
1.15516407882
0.807245974442
0.53883648497
0.366601709482
0.267227525414
0.209663512686
0.17360145872
0.148129119127
0.126026515759
0.102092398711
0.076779052168
0.0589166217158
0.0479089956161
0.039856343524
0.0428034059728
2.06534260988
1.99171731459
1.86616014588
1.67312540484
1.41402915238
1.11440857841
0.820362930577
0.578631836864
0.410193761966
0.304640603327
0.239747744844
0.197374390917
0.166636658992
0.140835246649
0.116177448931
0.0937304553905
0.0768255826756
0.0638385889613
0.0533028942483
0.0520262969601
1.66952442389
1.62218585341
1.54009473528
1.41156367382
1.23466335986
1.02237221668
0.801851886232
0.604983986687
0.452880153717
0.347281582293
0.277016220693
0.229365692989
0.194854957633
0.167830787674
0.145065097982
0.125139268064
0.108230421468
0.0920967172992
0.0776759454427
0.0686926335723
1.22011898624
1.19505825513
1.15018118283
1.0775898932
0.974108629553
0.844349571466
0.701285737438
0.563089436908
0.445533367347
0.355503075023
0.29109439067
0.246114634277
0.21489492678
0.192432163102
0.175036242239
0.160180282481
0.146406644695
0.129981660764
0.111928000138
0.0919408198498
0.807381653467
0.795168972983
0.77231690841
0.734390675936
0.679115755335
0.607835989282
0.526266712061
0.443573325571
0.369253942596
0.309280633563
0.264935469664
0.23426865479
0.214088983018
0.200934639202
0.192507345921
0.186595603632
0.181166032129
0.170549035471
0.15091531189
0.117486108259
0.508277046228
0.502129025436
0.490182369422
0.470257816556
0.441295231133
0.403969592051
0.361098669186
0.317425224685
0.278163116902
0.246969270152
0.224985788378
0.211256170718
0.204014498309
0.201396950673
0.201827481032
0.203829515173
0.206484461854
0.204840419501
0.188108286134
0.143431648835
0.328804506336
0.32547977946
0.318826688119
0.30788895644
0.292446702359
0.273345911594
0.252596684774
0.232882816267
0.216825598911
0.20613600541
0.20105538722
0.200706711165
0.203813234387
0.209041456397
0.215358810121
0.222110126637
0.229183159706
0.232853960905
0.220009992098
0.176292091859
0.237525619698
0.235354368549
0.231117048789
0.224381860474
0.21541519972
0.205373564507
0.1961040539
0.189505303227
0.186916737674
0.188768275938
0.19458490847
0.203341110178
0.213875369883
0.225108325544
0.236238233074
0.246906096936
0.256920652158
0.263244989686
0.255642463775
0.225621904691
0.196513034349
0.194810631017
0.191627154498
0.18675666895
0.180733252247
0.174943394062
0.171256371376
0.171311735357
0.17593991575
0.185011756715
0.197671156252
0.212771299557
0.22917677389
0.245855058971
0.262013955084
0.277251069277
0.291162517105
0.301873084059
0.303673731869
0.294335914458
0.179968635
0.178531019475
0.175845376456
0.171753400502
0.166859105762
0.16265635529
0.161146880856
0.164065638238
0.17224083932
0.185476993682
0.202853476889
0.22320260507
0.245379994322
0.268322511316
0.291120337678
0.313137862936
0.333702921575
0.351895904439
0.365332994192
0.375261411052
0.173232167494
0.17204585831
0.169712764514
0.165996151837
0.161411440926
0.157427210379
0.156184213066
0.15972599688
0.1692636801
0.184927089152
0.206035042013
0.231568367988
0.260414978718
0.291420170209
0.32344083221
0.355456891723
0.386246810698
0.414812593522
0.439130459915
0.458270303069
0.169575069154
0.168687039898
0.166699590469
0.163237738509
0.158621016176
0.154177407092
0.152126447775
0.154908435131
0.16437790809
0.181329282938
0.205657519411
0.23676745775
0.273721988823
0.315267771888
0.359911336783
0.405898298008
0.45084688341
0.491786281176
0.523412461361
0.537024295398
0.166352650757
0.165808404042
0.164210882778
0.161015862359
0.156288039084
0.151118401337
0.147701946291
0.148856183121
0.15720863607
0.174555027482
0.201783091633
0.239093898427
0.28594947465
0.341005510655
0.40218747531
0.466430068418
0.529208484667
0.583379085229
0.617085537296
0.611478684933
0.162826258419
0.162663537685
0.161507889953
0.15864489064
0.153867782728
0.147962447913
0.142978994973
0.14200437346
0.148464643341
0.165429410066
0.195280779294
0.239527859482
0.298329458725
0.370220159799
0.452053704201
0.538630681411
0.621843321079
0.688569142224
0.717983153936
0.682856405466
0.158917560687
0.159159298921
0.158485825358
0.156030467978
0.151327445279
0.144832974505
0.138350398005
0.135070308336
0.139148557779
0.15513096209
0.18744076226
0.239541703806
0.312635402788
0.404857478122
0.511207493822
0.623260363217
0.727731975343
0.804332813382
0.823570574064
0.752829641358
0.154679565107
0.155327266612
0.155152380394
0.153166118487
0.148677074462
0.141822279279
0.134098457449
0.128650491113
0.130235060909
0.144998049768
0.179958418809
0.241272606284
0.331379175182
0.447355084417
0.581307662574
0.720180382357
0.844537362768
0.92638104317
0.930444849461
0.822275562814
0.150126210953
0.151144444867
0.151442993956
0.149939684671
0.145768908161
0.138794648197
0.130204183744
0.123003981949
0.122423154317
0.136304593642
0.174797298481
0.247346839365
0.357435827413
0.500100280019
0.66321052262
0.828051313703
0.968997299719
1.05115963883
1.03549782373
0.889849554809
0.145219833463
0.146550603949
0.147250829305
0.146187979636
0.14237896863
0.135485062425
0.126438465646
0.118107626338
0.116170607539
0.130308958675
0.174277684419
0.261061247533
0.394344228378
0.565628058412
0.757424981715
0.945396892006
1.09784651501
1.17553195662
1.13669665268
0.953412152247
0.139911105995
0.141464479573
0.142463964412
0.141754202546
0.138292296767
0.131626306533
0.122531047141
0.113842331775
0.111836455644
0.128365332011
0.181139441067
0.286141372722
0.445504364163
0.6456786798
0.863623426814
1.06979591036
1.2276494509
1.29516793778
1.230013274
1.00901592561
0.134160195935
0.135837478845
0.137010802224
0.136538499564
0.133377472187
0.12705104706
0.1183199176
0.11021665674
0.110031188488
0.132366953085
0.198859720294
0.326636067779
0.513841035914
0.741060483229
0.980276857143
1.19780595745
1.3543053772
1.40535066454
1.3099530181
1.05042748332
0.127939411405
0.129644234916
0.130874028124
0.130531448093
0.127629548391
0.121768619609
0.113886032199
0.107599511169
0.111944315605
0.144953018368
0.231183926937
0.385628000588
0.600046830689
0.849522055581
1.10262675542
1.32312695457
1.46971019999
1.49717412103
1.36705205943
1.06770863755
0.121200075017
0.122857204695
0.124055355152
0.123772254799
0.121132719486
0.115928917153
0.109528534473
0.106716394266
0.119235423736
0.168797295015
0.280236394093
0.462267133025
0.699438049677
0.963161846093
1.22030302677
1.43300365477
1.55942393712
1.55549467553
1.38645053511
1.04860118951
0.114041599581
0.115580929329
0.116669158598
0.116393047253
0.114044352398
0.109725309895
0.105533196816
0.108129320015
0.132836654554
0.204060022909
0.342599607839
0.54788889647
0.798700408316
1.06480033095
1.31240819245
1.50354420844
1.59841749115
1.55577188457
1.34707172556
0.982113417458
0.10893625165
0.110156639254
0.110899167564
0.110394467196
0.108138770998
0.104596790434
0.102722075215
0.111448417438
0.149906127548
0.242912682061
0.403096702016
0.620288697793
0.869774986037
1.12106828208
1.34166950732
1.49577693777
1.54855502873
1.46545320805
1.22992600259
0.872543928618
0.126353905732
0.12657852989
0.126134777671
0.12442954449
0.121180179823
0.11708349021
0.11546728193
0.126395391758
0.171328911299
0.274281457046
0.439219328764
0.64750602808
0.872679625889
1.085702357
1.25837929218
1.36068625875
1.36875319855
1.26229244653
1.04421487454
0.764225468979
0.2698034274
0.268035073898
0.265082018272
0.260615548052
0.254573163134
0.247683792235
0.242758409701
0.248134526121
0.2819538378
0.363771046456
0.493049440557
0.649228986567
0.807741164767
0.946206678109
1.04567672824
1.09177831832
1.07558440237
0.999737290645
0.876306901613
0.746782844672
0.0467968506188
0.0295847608154
0.0489293609717
0.030475789365
0.0516628688985
0.0312357793185
0.0545356429088
0.0322743557462
0.0569613836653
0.0339224086533
0.0591073406664
0.0367975032087
0.061987994726
0.0418707730232
0.0685262694639
0.0501178376383
0.0809796746747
0.0633001157261
0.0997563185376
0.0879232388151
0.125722076486
0.142256730906
0.141991264293
0.212494809994
0.165688090448
0.266723215683
0.195876715705
0.318605450057
0.229826174496
0.371966519527
0.265373291098
0.425654769193
0.301405836838
0.478220832346
0.337844119068
0.528311634515
0.374780213483
0.575790688727
0.413073785062
0.621090998098
0.452524253541
0.664428840131
0.492442186764
0.705577551941
0.531640310676
0.743943933784
0.568119227725
0.778990846633
0.599250705161
0.80977718324
0.621015388483
0.835321848408
0.629055404266
0.854618922181
0.61945918
0.867042271301
0.593233604995
0.873717214595
0.566917941334
0.877252901133
0.581561787109
0.880525148382
0.686377942726
0.873681102313
)
;

boundaryField
{
    inletfuel
    {
        type            turbulentIntensityKineticEnergyInlet;
        intensity       0.05;
        value           nonuniform 0();
    }
    inletair
    {
        type            turbulentIntensityKineticEnergyInlet;
        intensity       0.05;
        value           nonuniform 0();
    }
    outlet
    {
        type            inletOutlet;
        inletValue      uniform 1;
        value           nonuniform List<scalar> 
26
(
0.270991574222
0.270904248278
0.270751204672
0.270492745731
0.2698034274
0.268035073898
0.265082018272
0.260615548052
0.254573163134
0.247683792235
0.242758409701
0.248134526121
0.2819538378
0.363771046456
0.493049440557
0.649228986567
0.807741164767
0.946206678109
1.04567672824
1.09177831832
1.07558440237
0.999737290645
0.876306901613
0.746782844672
0.686377942726
0.873681102313
)
;
    }
    axis
    {
        type            empty;
    }
    leftside
    {
        type            kqRWallFunction;
        value           nonuniform List<scalar> 
32
(
0.0295847608154
0.030475789365
0.0312357793185
0.0322743557462
0.0339224086533
0.0367975032087
0.0418707730232
0.0501178376383
0.0633001157261
0.0879232388151
0.142256730906
0.212494809994
0.266723215683
0.318605450057
0.371966519527
0.425654769193
0.478220832346
0.528311634515
0.575790688727
0.621090998098
0.664428840131
0.705577551941
0.743943933784
0.778990846633
0.80977718324
0.835321848408
0.854618922181
0.867042271301
0.873717214595
0.877252901133
0.880525148382
0.873681102313
)
;
    }
    burnerwall
    {
        type            kqRWallFunction;
        value           nonuniform 0();
    }
    front
    {
        type            wedge;
    }
    back
    {
        type            wedge;
    }
    procBoundary1to0
    {
        type            processor;
        value           nonuniform List<scalar> 
27
(
7.56930354278
7.54002485998
7.4720718379
7.39135674168
0.571678052111
0.368739491464
0.181868046967
0.0795202088122
0.0452291463558
0.0338799499079
0.0323937716055
7.20386927818
6.83531384576
6.35379733906
5.79469412656
5.19376860818
4.57644780825
3.96283388554
3.3681116494
2.79783965378
2.25879963609
1.77604041748
1.38063101226
1.07825938504
1.07825938504
0.0452843144857
0.0284786251571
)
;
    }
}


// ************************************************************************* //
