/*--------------------------------*- C++ -*----------------------------------*\
  =========                 |
  \\      /  F ield         | OpenFOAM: The Open Source CFD Toolbox
   \\    /   O peration     | Website:  https://openfoam.org
    \\  /    A nd           | Version:  7
     \\/     M anipulation  |
\*---------------------------------------------------------------------------*/
FoamFile
{
    version     2.0;
    format      ascii;
    class       volScalarField;
    location    "0.08";
    object      N2;
}
// * * * * * * * * * * * * * * * * * * * * * * * * * * * * * * * * * * * * * //

dimensions      [0 0 0 0 0 0 0];

internalField   nonuniform List<scalar> 
815
(
0.733085680606
0.73311302156
0.733246855016
0.747185669916
0.747175909775
0.747196611614
0.753105535798
0.753119528686
0.753151872474
0.75566491043
0.755683334246
0.755722765763
0.75711726555
0.757135551906
0.757174908601
0.758172002116
0.758186897138
0.758219449264
0.759135738093
0.759145444404
0.759168042719
0.760164746039
0.760169617135
0.760182561652
0.761303577142
0.761304680904
0.761310056611
0.762455800726
0.762454848255
0.762455599384
0.763452939789
0.763451432585
0.763450160531
0.764210631455
0.764209110449
0.764206793052
0.76473444438
0.764733349448
0.764730958564
0.765086428719
0.765085305471
0.765082970062
0.765325694189
0.765324716193
0.765322652442
0.76549840267
0.7654975996
0.76549591618
0.765633308954
0.765632647403
0.765631302806
0.765746332349
0.765745851978
0.765744866434
0.765846771213
0.765846445128
0.765845786413
0.765939694707
0.765939502902
0.765939133208
0.766027780716
0.766027718216
0.766027620001
0.766112628295
0.766112658963
0.766112783998
0.766194740974
0.766194858098
0.766195181274
0.766274131273
0.766274334883
0.766274845118
0.766350664789
0.766350942028
0.76635161463
0.766423838459
0.766424195791
0.766425029915
0.766493255235
0.766493680263
0.766494652945
0.766558134996
0.76655861828
0.766559710907
0.766617003254
0.766617540606
0.766618749685
0.766668027776
0.766668613465
0.766669916792
0.766705146606
0.766705743997
0.766707065407
0.733464661489
0.74724502584
0.753201727585
0.755779451094
0.757230715452
0.758265521775
0.759200307516
0.760201830341
0.761319020656
0.762458048849
0.763449401444
0.764204250587
0.764727914241
0.765079822547
0.765319824481
0.765493590398
0.765629459186
0.765743523155
0.765844899939
0.765938652422
0.766027517066
0.766112990944
0.766195663932
0.766275588676
0.766352584622
0.766426220277
0.766496031874
0.766561252049
0.766620445265
0.766671732584
0.766708907733
0.758021836929
0.760735382425
0.763781355078
0.766231613624
0.767437296603
0.7678349922
0.767877274148
0.733994689597
0.735207215722
0.736841002169
0.738751206641
0.740820760592
0.742981038902
0.745197019614
0.747435427647
0.749648466015
0.751744486886
0.753588516639
0.755141297957
0.756509286939
0.75794052009
0.759914059053
0.762940326257
0.765910686602
0.767342100615
0.767792236622
0.767833557536
0.74738087024
0.747779262656
0.748369059538
0.749128209506
0.750046000929
0.751119254885
0.752340412695
0.753676323932
0.755064891259
0.756409899423
0.757621899593
0.758636103878
0.759469696469
0.760262640133
0.761373715518
0.763546477781
0.766165219953
0.767412989254
0.76776948144
0.767773377268
0.753320727632
0.753595220507
0.7539953778
0.754527495228
0.7551972288
0.756005440558
0.756938106119
0.757952604518
0.758976127072
0.759928693647
0.7607687676
0.76149627467
0.762154227412
0.762835750639
0.763745414833
0.765176514495
0.766734268162
0.767497442971
0.767718116558
0.767682948704
0.755905964552
0.756179381141
0.756570148803
0.757085459847
0.75772805643
0.758490798092
0.75934605056
0.760238930268
0.761099609881
0.761879709916
0.762574114146
0.763207781869
0.763827102651
0.764491439653
0.765263668554
0.766177442168
0.767038945321
0.767478418489
0.767601406726
0.767550517686
0.757354082483
0.757617264658
0.757991263066
0.758482098834
0.7590896567
0.759800970688
0.760581262548
0.761373837498
0.762122161334
0.76280181973
0.763425486774
0.764021151754
0.764619795455
0.765242307368
0.765880992669
0.766514331509
0.767035282086
0.767307149273
0.767394197241
0.767363093232
0.758368565516
0.758589719016
0.758905640457
0.759322809257
0.759842657844
0.760455110112
0.76113095048
0.761822416795
0.762482724558
0.763092506249
0.763662439496
0.764211868836
0.764756595544
0.765304992995
0.76584820699
0.766353042375
0.766735613154
0.766954490393
0.767068746808
0.767108678809
0.75927345433
0.759435099443
0.759668456631
0.759981640609
0.760378227801
0.760854626691
0.761392507494
0.761958490436
0.762515277156
0.763040513716
0.763533049144
0.764005168884
0.764469705013
0.76493570586
0.765397716398
0.765823493851
0.76615707304
0.766396125892
0.766604344712
0.766780784719
0.760246109444
0.760346356939
0.760493387683
0.760694930237
0.76095692616
0.761280566873
0.7616575992
0.76206906521
0.762489267196
0.762896957737
0.763284053935
0.76365394198
0.764016564761
0.764379852809
0.764743661446
0.765091300324
0.765401221192
0.765699434666
0.766032829971
0.76640293801
0.761340174658
0.761389606767
0.761463928229
0.761569923127
0.761713949176
0.761899561903
0.762124927917
0.762381234595
0.762653669234
0.762927576643
0.763193189516
0.763447757293
0.763693829185
0.763935229321
0.764177928847
0.764425227293
0.764688022669
0.765018341804
0.765467159084
0.766039898066
0.762464351132
0.762480655985
0.762507274387
0.762549597116
0.762612861713
0.762700710808
0.762813689721
0.76294790218
0.763095109342
0.763245805274
0.76339240624
0.763532118763
0.7636643839
0.763791793077
0.763921221967
0.764065227287
0.764253513003
0.764557373101
0.765063183156
0.76577071653
0.763448015846
0.763446245094
0.76344660863
0.763453037643
0.763469295705
0.763498299353
0.763541207204
0.763596235715
0.763658541975
0.763721791198
0.763781187234
0.763834890761
0.763883062669
0.763928164286
0.763976743483
0.764044125392
0.764166099393
0.764417347075
0.764900831432
0.765615149323
0.764198907522
0.764188035778
0.764174970345
0.764162290462
0.764152524708
0.764147843315
0.764149258963
0.764156188452
0.764166272042
0.764176160687
0.764183415197
0.764187845314
0.764190297466
0.764193632995
0.764204762472
0.764238906456
0.764328948317
0.764536528724
0.764942236295
0.765523955775
0.764721205037
0.764706662993
0.764687581289
0.764665574633
0.764642399783
0.764619673312
0.764598428868
0.76457893128
0.764560650644
0.764542737306
0.764524766
0.764507392301
0.76449224471
0.764482489102
0.764484602526
0.764511464514
0.76458786445
0.764755118384
0.765057038255
0.76545771545
0.765072956067
0.7650579269
0.765037358961
0.76501217701
0.764983559797
0.764952802478
0.764921103723
0.764889433208
0.764858495349
0.764828913138
0.764801471611
0.764777359752
0.764758396046
0.764747553762
0.764750049806
0.764775065439
0.764837721652
0.764959740169
0.765158347436
0.76539525239
0.765313642624
0.765299994007
0.765280824191
0.765256556166
0.765227896475
0.765195822645
0.765161517483
0.765126319737
0.76509161575
0.765058792773
0.765029201748
0.765004211224
0.764985342166
0.764974748765
0.764975722012
0.764993384402
0.765034988032
0.765109457413
0.765218436271
0.765327124168
0.765488482285
0.765477073367
0.765460745403
0.765439595686
0.765413959485
0.765384473655
0.765352099502
0.765318147004
0.765284169073
0.765251784382
0.765222476113
0.765197463675
0.765177759372
0.765164409357
0.765158710845
0.765162378385
0.765177315252
0.765205064004
0.765240053567
0.76525407129
0.765625437571
0.765616470962
0.76560348993
0.765586399895
0.765565272512
0.765540421133
0.765512446018
0.765482305317
0.76545127768
0.765420771599
0.765392055117
0.765365992799
0.765343000362
0.765323061081
0.765305822137
0.765290596006
0.765276292215
0.765260456216
0.765235552246
0.76518083819
0.765740582941
0.765734003498
0.76572439421
0.765711586767
0.765695508689
0.765676207359
0.765653887965
0.765628961837
0.765602076643
0.765574024753
0.765545523169
0.765516960452
0.765488184326
0.765458382183
0.765426083357
0.765389202561
0.765345176286
0.765289961496
0.765216716749
0.765111687039
0.765842958694
0.765838583613
0.765832143651
0.765823476968
0.765812455844
0.765798956091
0.765782835623
0.765763900261
0.765741920606
0.765716673155
0.765687959702
0.765655548047
0.765618854629
0.765576656126
0.765526944701
0.765467110596
0.765394018676
0.765303620587
0.765190807792
0.765047160552
0.76593760262
0.765935202484
0.765931636562
0.76592679733
0.765920558981
0.765912727664
0.765902903575
0.765890322861
0.765873762507
0.765851611263
0.765822324437
0.765784841506
0.765738372669
0.765681745331
0.765613032294
0.76552967965
0.765428640082
0.76530668882
0.765160661518
0.764985795599
0.766027277551
0.766026644564
0.766025643388
0.766024255098
0.766022400274
0.766019866635
0.766016097221
0.766009868241
0.765998925088
0.765979964789
0.765949592397
0.765905714312
0.765847635914
0.765774816515
0.765685904237
0.765578783843
0.765450985729
0.765300413562
0.765125743815
0.764924665073
0.766113455739
0.766114379666
0.766115661466
0.766117358435
0.766119441572
0.766121708529
0.766123507609
0.766123243306
0.766117648759
0.766101489146
0.766069047952
0.766017102459
0.765945554604
0.765855037239
0.765745097835
0.76561435543
0.765461172929
0.765284529524
0.765084374771
0.764860475793
0.766196754222
0.766199066762
0.766202382163
0.766206817329
0.766212393436
0.766218909503
0.766225615141
0.766230557911
0.766229429354
0.766214852574
0.766178535898
0.766116351402
0.766029448965
0.765920030437
0.765788743267
0.765635002407
0.765458003849
0.765257645667
0.765034884751
0.764790633009
0.766277256111
0.766280821582
0.766285961909
0.766292827688
0.766301463782
0.766311617915
0.766322407678
0.766331413067
0.766333138275
0.766317847298
0.766274794641
0.766199755471
0.766095835104
0.765966926277
0.765814653696
0.765639155543
0.765440278368
0.76521850458
0.764975723534
0.764713098773
0.766354764317
0.766359453123
0.766366206436
0.7663751985
0.766386436737
0.766399569135
0.766413428662
0.766424908402
0.766426958935
0.766407339037
0.766353679389
0.766263134584
0.766141198145
0.765993078192
0.765821076971
0.765625806948
0.765407501717
0.765167059076
0.764906561196
0.764626769248
0.766428876484
0.766434560558
0.766442717654
0.766453503047
0.766466833735
0.766482153818
0.766497799385
0.766509572919
0.766508334755
0.766479535078
0.766411035222
0.766303055488
0.766163237674
0.765997336479
0.765807837622
0.765595482862
0.765360649496
0.765104273748
0.764827862433
0.764531195598
0.766499097989
0.766505631049
0.766514956303
0.766527163646
0.766542008547
0.766558571172
0.766574383249
0.766583562072
0.766574400248
0.76653108235
0.766444458523
0.766318767041
0.766162684217
0.765981588881
0.765777633652
0.765551498405
0.765303413666
0.765033626418
0.764742272351
0.764427486619
0.766564670923
0.766571924863
0.766582197458
0.766595465441
0.766611239453
0.766628062017
0.766642257336
0.766645585841
0.766623620005
0.766561490675
0.766455694063
0.766313946588
0.76614442487
0.765951458374
0.765736696332
0.765500418364
0.765242150225
0.764960794844
0.764654274349
0.764318661194
0.766624192244
0.766632112198
0.766643225315
0.766657367371
0.766673778818
0.766690401816
0.766702120615
0.766697733902
0.766660013589
0.766577447979
0.766453755495
0.766298744674
0.766119136217
0.765917920173
0.765695890188
0.765452540238
0.765186318371
0.76489434574
0.76457173652
0.764212244486
0.76667573188
0.766684204605
0.766696044273
0.766710995507
0.766728133245
0.766745032139
0.766755573589
0.766746001427
0.766695636005
0.766595231806
0.766455718329
0.766289421112
0.766101891681
0.76589462657
0.765667306987
0.765418373839
0.765145242102
0.764843278753
0.764505738319
0.764124128664
0.766713005366
0.766721748825
0.766733981771
0.766749420936
0.766767055225
0.766784310517
0.766794776685
0.766784104266
0.76673013921
0.766622344777
0.766473473315
0.766298386114
0.76610360915
0.765890453338
0.765657798377
0.765403645692
0.765124544873
0.7648158351
0.764469297443
0.764077278356
0.767738603543
0.767626423653
0.76767315955
0.767551188514
0.76758068521
0.767453334703
0.767458413197
0.767329878695
0.76730566545
0.767180218654
0.767121097114
0.767006143746
0.766910169627
0.766813926888
0.766673942614
0.766606522522
0.766416168077
0.76638896346
0.766167553264
0.766175839274
0.765962499323
0.765979532575
0.76579054454
0.7657931938
0.765623412464
0.765605182243
0.765462829849
0.765426135411
0.765318394849
0.765267830288
0.765194320769
0.765133688919
0.765088395377
0.765020172708
0.764996051024
0.764921553215
0.764913763388
0.764833086042
0.764837620748
0.764750675854
0.764764293115
0.76467080993
0.764690770673
0.764590573995
0.764614045956
0.764507316559
0.764531771467
0.764418877695
0.764441966955
0.764323619093
0.76434333337
0.764220604424
0.764235530455
0.76411022881
0.764120042671
0.763994993381
0.764001387803
0.763881089032
0.763890546612
0.763780159184
0.76380691415
0.76370828915
0.763767013476
0.763677281182
)
;

boundaryField
{
    inletfuel
    {
        type            fixedValue;
        value           nonuniform 0();
    }
    inletair
    {
        type            fixedValue;
        value           nonuniform 0();
    }
    outlet
    {
        type            zeroGradient;
    }
    axis
    {
        type            empty;
    }
    leftside
    {
        type            zeroGradient;
    }
    burnerwall
    {
        type            zeroGradient;
    }
    front
    {
        type            wedge;
    }
    back
    {
        type            wedge;
    }
    procBoundary1to0
    {
        type            processor;
        value           nonuniform List<scalar> 
27
(
0.713780187892
0.714000918243
0.7145143242
0.715238748232
0.760833918707
0.763185226441
0.76542027886
0.766937652291
0.767653229335
0.767897013441
0.767911357931
0.716880621542
0.720041025595
0.724013626036
0.728354719564
0.732657190275
0.736660272461
0.74029985172
0.74359821512
0.746578919717
0.749246694504
0.751606565843
0.75371702253
0.755755802908
0.755755802908
0.767783889048
0.767683744676
)
;
    }
}


// ************************************************************************* //
