/*--------------------------------*- C++ -*----------------------------------*\
  =========                 |
  \\      /  F ield         | OpenFOAM: The Open Source CFD Toolbox
   \\    /   O peration     | Website:  https://openfoam.org
    \\  /    A nd           | Version:  7
     \\/     M anipulation  |
\*---------------------------------------------------------------------------*/
FoamFile
{
    version     2.0;
    format      ascii;
    class       volScalarField;
    location    "0.08";
    object      nut;
}
// * * * * * * * * * * * * * * * * * * * * * * * * * * * * * * * * * * * * * //

dimensions      [0 2 -1 0 0 0 0];

internalField   nonuniform List<scalar> 
815
(
0.0021907851661
0.00218855274575
0.00218319205182
0.00187790579327
0.00187569428904
0.00187214375399
0.0019663298471
0.00196214628554
0.00195334270223
0.0020569931675
0.00205118607616
0.00203851630547
0.0020541991696
0.00204775218989
0.0020336875485
0.00195211362247
0.00194643181788
0.00193405183704
0.00176325961209
0.00175912324577
0.00174982060608
0.00148900156237
0.00148673684335
0.00148110365663
0.00115670783593
0.00115583169797
0.00115291576292
0.000830558031486
0.00083033816389
0.0008289736919
0.000583027013404
0.000582858062612
0.000581975722132
0.000437767284499
0.000437522544421
0.000436826171279
0.000384248901443
0.00038388893207
0.000383109912199
0.000395517446312
0.000395069032329
0.000394088907488
0.000442898044898
0.000442348749148
0.000441158233904
0.000500383565565
0.000499729171437
0.000498279332422
0.000550779236496
0.000550027165784
0.000548401239711
0.000587406822695
0.00058664125413
0.000584947703761
0.000610435372592
0.000609685668026
0.000608010816181
0.000622475058617
0.000621766866637
0.000620171950509
0.000626196670686
0.000625554997743
0.000624105904254
0.000623899016733
0.000623305478682
0.000621957967675
0.000616512358582
0.000615995577696
0.000614823501899
0.000605207229928
0.000604744527482
0.000603693492377
0.000590072425599
0.000589677868268
0.000588784789871
0.000570519959059
0.000570189920776
0.000569451470952
0.000540671372754
0.000540440878518
0.000539929975141
0.000473190479505
0.000473177439183
0.000473162682706
0.000308539967646
0.000308732318906
0.000309289045822
0.000153686440055
0.000153722887999
0.00015396932023
0.00018066094322
0.000180623415183
0.000180580374041
0.00217625191266
0.00186740772008
0.00194151208491
0.00202104159387
0.00201417291681
0.00191685797139
0.00173688536063
0.00147305773178
0.00114860120281
0.000826837564668
0.000580701199729
0.00043594634496
0.000382214863653
0.000392992023127
0.000439808013085
0.000496654127928
0.000546597759039
0.000583088160761
0.000606202988973
0.000618494899286
0.000622628337222
0.000620656070527
0.000613748614734
0.00060279909214
0.000588085101591
0.000568938006712
0.000539690336604
0.000473545499175
0.000310437403009
0.000154501176011
0.000180521218033
0.000638447678424
0.000504180462357
0.000308441327538
0.000147719615202
0.000101218032427
0.000145293798057
0.000176779229623
0.00216089094494
0.00212427186135
0.00206690770167
0.00198543367719
0.00187662245249
0.00173832227276
0.0015699596755
0.00138044270479
0.00118071007469
0.000988376749582
0.000826127173059
0.000707502014362
0.000636198173391
0.000607055592079
0.000560451831818
0.000375512255822
0.00016692539526
0.000100173482831
0.00013616366904
0.000175454240128
0.00185659002313
0.00182985757859
0.00178013360535
0.00169706046846
0.00157261432897
0.00140541116824
0.0012047011208
0.000992787532946
0.000797604577556
0.000639493148112
0.000524864257403
0.000454524862372
0.000427553914849
0.0004403767604
0.000453205881691
0.000331374336451
0.000148155731442
0.000100229110654
0.00014332715402
0.000174378209984
0.00191602266143
0.00186046440413
0.00177136969743
0.00163713226942
0.00145102682449
0.00121759714966
0.000959081090583
0.000716010438992
0.000528803069887
0.000408236844333
0.000338762426482
0.000304263452452
0.000295636197884
0.000303038246347
0.000292544649546
0.000208328194692
0.000114406703901
0.000106936516277
0.000152901692813
0.000170812014172
0.00198332806729
0.00190233419349
0.00177964089502
0.00160548722286
0.00137729910217
0.00110790348461
0.000830488177311
0.00059178333383
0.000425268879843
0.000327600781438
0.000274512887985
0.000246078712062
0.000230282491182
0.000216679344662
0.000190038608152
0.000141139311067
0.00010492662077
0.000120941205796
0.000152502803567
0.000165344651512
0.00197196390404
0.00188221801664
0.00174839154065
0.00156219593251
0.00132424828439
0.00105248648125
0.00078431680431
0.000563617247056
0.000413335360004
0.000323173542136
0.000269240947007
0.0002338057792
0.000206804330902
0.000181520389684
0.000153465745441
0.000125167934196
0.000115740213189
0.000134277640689
0.000144975188486
0.000160999859474
0.00187907709526
0.00179872192033
0.00167887371177
0.00151182202911
0.00129751346278
0.00105123906494
0.000805601554143
0.000599054660298
0.000452396176692
0.000358530883753
0.000297888984734
0.000254908618495
0.000221003924281
0.000191553998466
0.000165020568032
0.000145356710689
0.000142059968979
0.000147596929201
0.000143303241226
0.000161350032535
0.00170812867581
0.00164646008324
0.00155408637452
0.00142370227591
0.00125351417012
0.00105272825078
0.000844188941205
0.000657996521191
0.000515340996367
0.000417260368865
0.000351370695105
0.000304316228701
0.000267533086078
0.000236463733332
0.000210487267493
0.000192965068223
0.000184916434243
0.000176398775025
0.00016263737336
0.000173325874691
0.00145489615482
0.00141489985023
0.00135392998124
0.00126603440919
0.00114830146963
0.00100453245647
0.000847576421281
0.000697089214675
0.000571257354356
0.000477428246316
0.000411324196907
0.000364446926539
0.000329400611454
0.000302112333209
0.000281375537917
0.000266505212968
0.000254263699507
0.000234724040253
0.000210642460818
0.000202527748627
0.00113881855507
0.00111698799096
0.00108297923573
0.00103243962353
0.000962466640379
0.000873696325815
0.00077191716897
0.00066795859249
0.000574279488182
0.000499424612491
0.000445248535503
0.000408618741754
0.000385479185807
0.000371829781819
0.000364082734935
0.000358282516539
0.000348169589726
0.000321733490427
0.000283870090476
0.000244719208097
0.000822002352798
0.000811072190716
0.000793581013241
0.000766896883555
0.000729204752487
0.000680492876356
0.00062350762471
0.000564070130901
0.000509853740023
0.00046740823861
0.000439911976732
0.000427115373339
0.000426447208175
0.000434036676663
0.00044546133835
0.000454312115202
0.000451933310352
0.000423928772384
0.000368657112839
0.000283027213658
0.000578026849587
0.000572329170545
0.000563129653887
0.000549164113142
0.000529871374742
0.000505831579467
0.000479234083063
0.0004541014936
0.000435566086464
0.000428068749086
0.000433609673155
0.000451213429513
0.000477455200844
0.000507207005011
0.000534136788791
0.000550779200754
0.000549823539225
0.000519538764536
0.0004469630273
0.000301877751828
0.000434184528793
0.000430634232148
0.000425168668443
0.000417560078959
0.000408383128244
0.000399320556452
0.000393298248775
0.00039413921696
0.000405699434056
0.000430395569394
0.000467681825509
0.000513830181211
0.000562642969603
0.000606678023933
0.000638617051712
0.000652056617622
0.000642455819989
0.000601592597247
0.000509194993481
0.000324465769077
0.000380499306265
0.000377289478968
0.000372993575292
0.000368131940451
0.000364293751874
0.000364430874757
0.000372607921631
0.000393068823034
0.000428696462025
0.000479345998654
0.000541012940704
0.000606811206514
0.000668700372282
0.000718935933029
0.000750945399155
0.000759716934259
0.000741333266743
0.000688223850625
0.000580217781394
0.000384662708048
0.000390918450867
0.000387077192754
0.000382419651038
0.000378036909741
0.000376346752815
0.000381394205743
0.000398259722518
0.000431455162725
0.000482760948362
0.00054972781287
0.000625962133106
0.000703225166283
0.0007734634988
0.000829570038091
0.000865619457809
0.000876794202222
0.000858118255974
0.000801759612393
0.00068989539294
0.000494743529891
0.000437239368564
0.000432378931658
0.000426518008961
0.000421024346196
0.000418730019389
0.000424322553696
0.000443618209637
0.000481494601487
0.000539394134994
0.000614171226231
0.000699064620787
0.000785992968359
0.000867241499813
0.000935945794924
0.000985946067688
0.00101137653707
0.00100506208292
0.000957317817818
0.000848580706449
0.000644469357416
0.00049359427698
0.000487758417956
0.000480463796062
0.000472983561526
0.000468073474494
0.000470551310787
0.000486781138289
0.000522582704487
0.000580548630344
0.000658686934053
0.000751252771821
0.000850779646013
0.000949577650591
0.00104030638595
0.00111580161612
0.00116838388461
0.0011876954192
0.00115906638013
0.00105329789942
0.000814156238149
0.000543232422913
0.000536742754591
0.000528244414312
0.00051866331643
0.000510312240936
0.000507731333161
0.000517652082805
0.000547301158048
0.000601638033062
0.000681260017178
0.000782473990461
0.000898807869621
0.00102242634822
0.00114496953657
0.00125760005351
0.00134982122849
0.0014066257526
0.00140398459427
0.00129444371765
0.000985784520585
0.000579629677004
0.000572906881281
0.000563709724523
0.000552485660363
0.000540901506757
0.000532900032681
0.000535271860179
0.000556688475936
0.000605136257601
0.000685066131459
0.000796064455742
0.000933313443122
0.00108876268784
0.00125242522811
0.0014128672882
0.00155540596097
0.00165844468542
0.00168449769396
0.00156155823686
0.00115529000789
0.000602864825475
0.000596323198884
0.000587000483136
0.000574843161196
0.000560793333351
0.000547973914842
0.000542835729449
0.000555147674922
0.000596105924579
0.000675088998378
0.000796531261475
0.000958313471935
0.00115210795356
0.00136543534123
0.00158272325026
0.00178336482327
0.00193660930211
0.00198910663508
0.00184098923709
0.00131495152341
0.000615440814008
0.000609413700914
0.000600470932551
0.000588098470279
0.000572525209652
0.0005559583681
0.00054415497909
0.000547404485484
0.000579896944474
0.000656790909266
0.00078917924742
0.000978960709215
0.0012173416031
0.00148776497288
0.0017684883403
0.00203098783067
0.002233018564
0.00230489486952
0.00212130548641
0.0014654200408
0.000619972210601
0.00061468876508
0.000606508115709
0.00059453008985
0.000578347210587
0.000559265166925
0.000542147357818
0.000537287292323
0.000561421779002
0.000636033800067
0.000780626204275
0.00100247757375
0.0012915382861
0.00162480840531
0.00197221037175
0.00229513109437
0.0025391646266
0.00261920415984
0.0023914357743
0.00160762034213
0.000618400832694
0.000613955517081
0.000606761939394
0.000595603014881
0.000579558245953
0.000559157338313
0.000538372556142
0.000527221504089
0.000544585993092
0.000618612458243
0.000778521592859
0.00103756384965
0.00138274789822
0.00178209197466
0.00219498889193
0.00257190629188
0.00284752315368
0.0029241437709
0.00264363464969
0.00173801985354
0.000611944454943
0.000608362150255
0.000602229639949
0.000592123685215
0.000576755002162
0.00055607726753
0.000533378593825
0.000518500128312
0.000532489306305
0.000610418388663
0.000791631392454
0.00109460072292
0.00150048006845
0.00196549118276
0.00243767312053
0.00285796211083
0.00315153257019
0.00321287204781
0.00287325601819
0.00185323229811
0.000601376499048
0.000598585052092
0.00059348478545
0.000584519960233
0.000570180944464
0.000550112287832
0.000527294189402
0.000511917933285
0.000527869381377
0.00061757938579
0.00082953982057
0.0011843796242
0.00165306656201
0.00217851278969
0.00269898276586
0.00314777163244
0.00344318516035
0.00347468779731
0.003069232844
0.00194436248868
0.00058703588682
0.000584956764792
0.0005808075136
0.000572995895339
0.000559958817298
0.000541329486562
0.000520354753743
0.000508611819398
0.000534295930899
0.000647482748465
0.000902882663031
0.0013169628828
0.00184594891262
0.00242089185891
0.00297322988145
0.00343116961284
0.00370932234561
0.0036939563766
0.00321458772567
0.0019981483913
0.000568244262594
0.0005668702499
0.000563691565321
0.000557149219755
0.000545799012728
0.000529641000057
0.000513004494625
0.000510470221248
0.000556520119345
0.000708073942424
0.00102041531369
0.00149655730308
0.00207578860651
0.00268186784354
0.0032433558776
0.00368583746453
0.00392159180894
0.00383776043007
0.00327460123697
0.00198808231938
0.000539537277745
0.000539270396171
0.000537575525788
0.000532942223381
0.000524195421779
0.000512147233029
0.00050328044841
0.000517245165537
0.000596353275318
0.000801609097756
0.00117944568052
0.00170968779875
0.00231855563422
0.00292873194936
0.00346875354148
0.00386276629853
0.00402338953484
0.00384462716935
0.0031906912926
0.00187847647146
0.000474699384355
0.000477158245645
0.000478892308928
0.000478229735755
0.00047421131142
0.000468717793818
0.000471313780311
0.000508655294625
0.000631982045598
0.000901404503197
0.0013399060759
0.00190074491013
0.00250579735415
0.00308104806941
0.0035564135232
0.00385736238436
0.00390268229331
0.00360237064618
0.00286638042741
0.00162205208183
0.000313272318356
0.00031915841676
0.000325192165264
0.000329368462624
0.000330532278789
0.000330790111607
0.000341371535258
0.000395506698729
0.000557227838188
0.000881700452549
0.00135414577414
0.00190461674417
0.00245722152738
0.00294401232812
0.00330082831187
0.0034615762951
0.0033628363604
0.0029492497812
0.00220603261681
0.00120510537802
0.000155773066546
0.00015817962557
0.000160332366081
0.000161120915375
0.000159884374648
0.000157781843814
0.000161332278192
0.000192190755005
0.000303562048017
0.00056136908242
0.000958062587175
0.00141284809473
0.00184497633783
0.00219091355082
0.00239979911647
0.00242781643434
0.00224875229406
0.00186150373072
0.00132039150228
0.000756537900314
0.00018034847667
0.000179763916468
0.000178488152741
0.000176156892948
0.000172635153665
0.000168539250673
0.000166574022822
0.000175151449175
0.000214311442192
0.000311770728704
0.000476085261725
0.000680920523217
0.000882859438303
0.00104120005715
0.00112567145324
0.00112128151517
0.00102681695315
0.000864883169542
0.00066914090633
0.000497667795012
0.000124152137199
5.03842373352e-05
0.000126115508056
5.1878224024e-05
0.000127459406458
5.31379423962e-05
0.000128529585184
5.48581866741e-05
0.000129894918217
5.75957142866e-05
0.000132621360314
6.23939692054e-05
0.000138700782553
7.08884614707e-05
0.000151644881907
8.47131748559e-05
0.000171628640957
0.00010681612852
0.000189030206478
0.000148119293673
0.000182564647792
0.000239275740191
0.000114970363927
7.73137038681e-05
0.00010564016961
8.66317142303e-05
0.000112172420517
9.46771488436e-05
0.000125449624571
0.000102288541665
0.000141900211336
0.000109412713155
0.000159478775676
0.00011596386671
0.000177028163738
0.00012187882377
0.000195140124788
0.000127230538278
0.000213073944892
0.000132133744241
0.000230854693176
0.000136658903376
0.000248479888577
0.000140820585524
0.000265061128994
0.000144592789826
0.000279888852694
0.000147954493933
0.000291648700637
0.000150846178338
0.000298038571615
0.000153204055826
0.000296832998242
0.000154961323485
0.000285514696561
0.000156080660298
0.00026489515174
0.000156676530481
0.000243744401437
0.000156988491454
0.000243848887991
0.000157279077812
0.000291410727101
0.000156677444415
)
;

boundaryField
{
    inletfuel
    {
        type            calculated;
        value           nonuniform 0();
    }
    inletair
    {
        type            calculated;
        value           nonuniform 0();
    }
    outlet
    {
        type            calculated;
        value           nonuniform List<scalar> 
26
(
0.00018066094322
0.000180623415183
0.000180580374041
0.000180521218033
0.00018034847667
0.000179763916468
0.000178488152741
0.000176156892948
0.000172635153665
0.000168539250673
0.000166574022822
0.000175151449175
0.000214311442192
0.000311770728704
0.000476085261725
0.000680920523217
0.000882859438303
0.00104120005715
0.00112567145324
0.00112128151517
0.00102681695315
0.000864883169542
0.00066914090633
0.000497667795012
0.000291410727101
0.000156677444415
)
;
    }
    axis
    {
        type            empty;
    }
    leftside
    {
        type            nutkWallFunction;
        Cmu             0.09;
        kappa           0.41;
        E               9.8;
        value           nonuniform List<scalar> 
32
(
0
0
0
0
0
0
0
0
0
0
0
1.11914736406e-06
2.62248864358e-06
3.90189638324e-06
5.0981332211e-06
6.20577477316e-06
7.21439480547e-06
8.11668437855e-06
8.92606283241e-06
9.66138726211e-06
1.03342601759e-05
1.09473640728e-05
1.14972713286e-05
1.19813846221e-05
1.2391178625e-05
1.27176310399e-05
1.29512097266e-05
1.30868073987e-05
1.31421894233e-05
1.31539174859e-05
1.31612995084e-05
1.30337532685e-05
)
;
    }
    burnerwall
    {
        type            nutkWallFunction;
        Cmu             0.09;
        kappa           0.41;
        E               9.8;
        value           nonuniform 0();
    }
    front
    {
        type            wedge;
    }
    back
    {
        type            wedge;
    }
    procBoundary1to0
    {
        type            processor;
        value           nonuniform List<scalar> 
27
(
0.00255855792246
0.00255342589935
0.00254264114356
0.00252907131188
0.000459442783293
0.000330667094099
0.000193223232825
0.000113435446754
0.00011391953735
0.00017971781698
0.000178593509468
0.00249857672475
0.00243540888234
0.00234813786116
0.00223830189806
0.00210821115804
0.00195941978371
0.00179206443241
0.00160902191434
0.00141484076595
0.00121733617032
0.00103064977573
0.000871390036833
0.000745301083599
0.000745301083599
0.000121203370553
4.85185077801e-05
)
;
    }
}


// ************************************************************************* //
