/*--------------------------------*- C++ -*----------------------------------*\
  =========                 |
  \\      /  F ield         | OpenFOAM: The Open Source CFD Toolbox
   \\    /   O peration     | Website:  https://openfoam.org
    \\  /    A nd           | Version:  7
     \\/     M anipulation  |
\*---------------------------------------------------------------------------*/
FoamFile
{
    version     2.0;
    format      ascii;
    class       volScalarField;
    location    "0.08";
    object      O2;
}
// * * * * * * * * * * * * * * * * * * * * * * * * * * * * * * * * * * * * * //

dimensions      [0 0 0 0 0 0 0];

internalField   nonuniform List<scalar> 
815
(
0.0202241236681
0.0202283814235
0.0202930029494
0.053414431527
0.0534371554538
0.0535986212245
0.0878602985085
0.0879980981179
0.0883059100132
0.108791984115
0.108973312079
0.109362419711
0.122533326886
0.122717411648
0.123114081375
0.133239716799
0.133391189621
0.133722395239
0.143395995096
0.143494765887
0.14372538767
0.154443662258
0.154492658242
0.154624557146
0.166752602062
0.166762919101
0.166817630427
0.179213126484
0.179202787485
0.179210933334
0.189970532925
0.189955292833
0.189943852073
0.19810820798
0.198093501415
0.1980721744
0.203694979428
0.203685139815
0.203663636859
0.207408119888
0.207397987151
0.207377070754
0.209888381827
0.209879620461
0.209861209108
0.211632911608
0.211625772324
0.211610872945
0.212950238251
0.212944415067
0.212932656428
0.214011827773
0.214007729759
0.213999360174
0.214917958435
0.214915333146
0.21491006642
0.215724373234
0.215723025841
0.215720497042
0.216462344861
0.216462198532
0.216462190037
0.217151990917
0.217152707197
0.21715473629
0.217803251551
0.217804739892
0.217808520208
0.218421419494
0.218423641058
0.218429000926
0.219009874702
0.219012694884
0.219019368779
0.219568316297
0.219571754223
0.219579672088
0.220096292789
0.220100231657
0.220109171882
0.220589264517
0.220593621752
0.220603419869
0.221036214951
0.22104095967
0.221051591841
0.221424097276
0.22142917583
0.221440451877
0.221708266173
0.221713384946
0.221724691874
0.0204089905949
0.0538826729244
0.0887622548713
0.109919207217
0.123676346861
0.134191348193
0.144055005354
0.154821583843
0.166909765576
0.179237408073
0.189938765753
0.198049711152
0.203636607303
0.207348959265
0.209835984105
0.211590262177
0.212916512641
0.213987930118
0.214902965893
0.215717233361
0.216462433316
0.21715780884
0.217814030548
0.218436715417
0.219028916574
0.219590918062
0.220121808472
0.22061721407
0.221066488476
0.221456162305
0.221740453921
0.128397342448
0.156152287538
0.187820642931
0.213523140684
0.226230084151
0.230436792996
0.231001498206
0.0207087864207
0.0215084503322
0.0227441490797
0.0244516528712
0.0267621113617
0.0301363547178
0.0359637024195
0.0457729561973
0.0582879944667
0.0730752026416
0.0879415816965
0.101527880983
0.114178139794
0.128049533
0.147905630661
0.179158685526
0.210241696077
0.225312035963
0.230071311252
0.230649905755
0.0546075637068
0.0565301274115
0.0594622507745
0.0634658991076
0.0686654664832
0.0752644829917
0.0836359367483
0.093706092373
0.104913650444
0.116476774908
0.127387020337
0.136774036677
0.144599852885
0.152177854983
0.163223954007
0.185625944471
0.2130382634
0.226175341202
0.229951467931
0.230169966925
0.0898231060949
0.0922133055283
0.0957117216603
0.100422975842
0.106441729375
0.113813488839
0.122459580433
0.13198702654
0.141695920581
0.150814946802
0.158909553361
0.165937981122
0.172301864739
0.178954231201
0.188088839463
0.202869891104
0.219193469246
0.227229033395
0.229585739545
0.229432632524
0.111158385561
0.113836762061
0.117679762307
0.122773739553
0.129157329096
0.136762718282
0.14530971564
0.154232925235
0.162815720815
0.170567584396
0.177440590952
0.183691555468
0.189802709969
0.196412140386
0.204225759397
0.213643961533
0.222651143313
0.227272687222
0.228613915221
0.228322990606
0.124919305469
0.127576223836
0.131362973291
0.136348356606
0.142535493121
0.149789747733
0.15774595805
0.165808505851
0.17338575494
0.180225583174
0.186464431436
0.192399438863
0.198364752959
0.204603469456
0.211072799328
0.217569575446
0.222979839681
0.225828085108
0.226791514268
0.226710188659
0.135240721138
0.137496783627
0.140726643351
0.14500162233
0.150339106229
0.156633527231
0.163576276965
0.170662704691
0.177399013994
0.183581079345
0.189321904538
0.194830399563
0.200284121751
0.205790314392
0.211283400706
0.216431223694
0.220363461742
0.222626771634
0.223842935296
0.224466626015
0.144802904348
0.146459516409
0.148855239267
0.152077381908
0.156164892229
0.161080581838
0.166630450518
0.172461018265
0.178176830749
0.183540820195
0.188541275757
0.193309408233
0.197985441359
0.202672750751
0.207332572962
0.21164527366
0.215035856626
0.217458158679
0.219574778427
0.221514654765
0.155275000989
0.156305461302
0.157819364006
0.159899188421
0.162608532453
0.165960775923
0.169868786171
0.17413199663
0.178477901114
0.182681432589
0.186655515309
0.190433932295
0.194117943365
0.19779141016
0.201459450624
0.204958652587
0.208063860304
0.211014486565
0.214306685697
0.218085380173
0.167127733571
0.167639598946
0.168410186049
0.169511534596
0.171011340735
0.172947831758
0.175302234176
0.177981867734
0.180829856286
0.183691067409
0.186460978481
0.189105432166
0.191645819155
0.194119225414
0.196578163803
0.19905044305
0.201632025671
0.20481765448
0.209153182297
0.214825712554
0.179305490712
0.179481302018
0.179766965924
0.180219337085
0.180893745717
0.181828987778
0.183031507309
0.184460866764
0.186030163094
0.187638457859
0.18920356981
0.190692951228
0.19209512674
0.193430034462
0.194752861282
0.196173951447
0.197968526826
0.200819023956
0.205616513752
0.212512560925
0.18993066146
0.189925194292
0.189946439765
0.190035128463
0.190230196096
0.190562161367
0.191043826451
0.191657405334
0.192352453508
0.19306164075
0.19373246109
0.194342158583
0.194886405518
0.195381485368
0.195880300243
0.196517328031
0.197623588314
0.199915492292
0.204440617175
0.211347695874
0.198002898138
0.197907288403
0.197794270625
0.197689416253
0.197617673111
0.197600979014
0.197650337668
0.197760998196
0.197909443945
0.198060444049
0.198186599399
0.198282285683
0.198350155409
0.198410513572
0.198520417823
0.198814319247
0.199597439217
0.201463842571
0.205239821831
0.210860600505
0.203576801408
0.20344515658
0.203271678086
0.203070978964
0.202859033477
0.202651308501
0.202458920701
0.202286551224
0.202130830831
0.201983694779
0.201839323979
0.201700961141
0.201579618124
0.201499518432
0.201515244073
0.201741803635
0.202410583485
0.203924162239
0.206746625899
0.210651940384
0.207287420505
0.20715051737
0.206960855159
0.206725265993
0.206453018802
0.206155702849
0.205846157979
0.205537103086
0.205239211096
0.204960965608
0.204710023386
0.204495739291
0.204331903555
0.204242279076
0.204271558416
0.204502695906
0.205078075435
0.206213541364
0.208108064095
0.210483382684
0.209780628144
0.209656337233
0.209478778729
0.209249293808
0.208971810186
0.208654154356
0.208308887521
0.207953158059
0.207606031031
0.207285496972
0.207006478689
0.206781346394
0.206622097288
0.206545978501
0.206581121188
0.206774078755
0.207194229208
0.207934762672
0.209035931587
0.210227434847
0.211544802431
0.211441418391
0.211290327983
0.211089449494
0.210838625006
0.210541712562
0.210208661075
0.20985668384
0.209507939707
0.209184829671
0.208905616734
0.208682730504
0.208524326707
0.208438001682
0.208434000372
0.208527680959
0.208738252551
0.209087358852
0.209538563899
0.209863858651
0.212881163235
0.212800832957
0.212681551464
0.212519346036
0.212311230703
0.212057299407
0.211763247502
0.211442695223
0.211116249168
0.210806523827
0.210532106211
0.210303713595
0.210124689156
0.209992973036
0.209903534898
0.209849300914
0.209821103715
0.209800817272
0.209727626699
0.209429298208
0.2139627834
0.213905207161
0.213818364199
0.213697686735
0.213538688097
0.213338348746
0.213097605187
0.212824104623
0.212532958297
0.212243039732
0.211970401213
0.211723166957
0.21150003321
0.211291412802
0.211081541497
0.210849892728
0.210573044482
0.210216132886
0.209720874399
0.208971038803
0.214887305632
0.21485085079
0.214794695725
0.214714548175
0.214605429203
0.214462276331
0.214281709107
0.214064440963
0.213817129721
0.213550851219
0.213275987544
0.212997061962
0.212709388815
0.212399193044
0.212045099459
0.211621149158
0.211098093968
0.210439679041
0.209601240291
0.208511077
0.215710025466
0.215692455057
0.215664098743
0.215621453795
0.215559739779
0.215473033231
0.215354659572
0.215198581158
0.215001301625
0.214762136311
0.214481934147
0.214160083296
0.213790633032
0.213359675007
0.212845796341
0.212223069976
0.211462628093
0.210534960367
0.209411766904
0.208052534936
0.216462794434
0.216461906701
0.216458095954
0.216448982645
0.216430509438
0.216396615402
0.216338586597
0.216244783923
0.21610086866
0.215891044853
0.215601922249
0.215226108988
0.214759087156
0.214191911354
0.213507700162
0.212684192265
0.211697518644
0.210527904467
0.209162726154
0.207582398282
0.217164611193
0.217178100681
0.217195669886
0.217215955852
0.217235736732
0.217249285428
0.217246803166
0.217212261981
0.217120723076
0.21693870959
0.216634017645
0.216191413661
0.215611992408
0.214896557382
0.214035821285
0.213013994843
0.211814561371
0.210427109457
0.208849934198
0.207080707022
0.217826370872
0.217852265635
0.217888272007
0.217933875667
0.217986709043
0.218041458313
0.218087572098
0.218105326572
0.218059414447
0.217896809492
0.217563729582
0.217038324684
0.216332463659
0.215460171067
0.214421757438
0.213208627004
0.211811659391
0.210228382208
0.208465568385
0.20653028557
0.218453948285
0.21849057267
0.218542446069
0.218609641629
0.218690407376
0.218779485233
0.218865552813
0.218924815856
0.218911066556
0.218750261322
0.218367558802
0.217740230263
0.216896294113
0.215864146923
0.214652924421
0.213260678665
0.211684135081
0.209925906231
0.208000414086
0.205916773907
0.219050300241
0.219096104006
0.219161357021
0.219246579177
0.219350100406
0.219466331423
0.219582090234
0.219668131259
0.219665062291
0.219477255543
0.219015338581
0.218266755447
0.217278687421
0.216090921761
0.214719040919
0.213165689364
0.21143120775
0.209521812965
0.207453569618
0.205232355745
0.21961598093
0.219669526455
0.219745845889
0.219845510419
0.219966450009
0.22010187699
0.220235099874
0.220328430413
0.220305563388
0.220051575258
0.219477505802
0.218593796877
0.21746445029
0.216134380468
0.214621565293
0.212930365207
0.211062689887
0.209025279418
0.206829690516
0.204473969986
0.220149894869
0.22020972372
0.220294768296
0.220405233044
0.220538025965
0.220683838443
0.220820010358
0.220895796818
0.220814585866
0.220451115103
0.2197389988
0.218718895221
0.217462476267
0.216012234642
0.214384236265
0.21258289642
0.210609294443
0.20846486655
0.206150342003
0.203650699228
0.220647812393
0.220712757906
0.220804515982
0.2209225022
0.221061894573
0.221209436526
0.221333263137
0.2213642656
0.221184566358
0.22067659304
0.21981781448
0.21867476437
0.217314498738
0.215771517707
0.214058409025
0.212176810434
0.210122461745
0.207886272493
0.205451469333
0.202786679655
0.221099410983
0.221169030047
0.221266603507
0.221390507409
0.221533956924
0.221679224578
0.221783382427
0.221754125964
0.221451649133
0.220785357376
0.219789302096
0.218545166421
0.217107859177
0.215501386266
0.213731854084
0.211794933398
0.209678000656
0.207357943752
0.204795774661
0.201941760779
0.221490773513
0.221564105679
0.221666524113
0.221795756777
0.221943868377
0.222090491403
0.222185145561
0.222115653202
0.22171491735
0.220910180391
0.219792222336
0.218461894908
0.216964410447
0.215311907559
0.213501803889
0.211521567691
0.209350506662
0.206951679452
0.204271405052
0.201242169503
0.22177550973
0.221850290282
0.221954892802
0.22208688332
0.22223775953
0.222386179955
0.222479714261
0.222402018831
0.221974618186
0.221113916105
0.21992431931
0.218526473366
0.216973277246
0.215275422459
0.213424018957
0.211403124261
0.209185241424
0.206733270421
0.203981871624
0.200870220278
0.229922540154
0.229034670246
0.229399153586
0.228432519659
0.228655281826
0.227642959783
0.227659437226
0.226634067062
0.226392778432
0.22538977829
0.224827851551
0.223914037584
0.222994371416
0.222253940188
0.220899780132
0.220441488995
0.218613146051
0.218548244345
0.216476879949
0.216750430715
0.214851944636
0.215198336857
0.213611794187
0.213856373858
0.212462066785
0.212519908679
0.211369500995
0.211243881177
0.2103785853
0.210102544852
0.209513242379
0.209119871661
0.208757991566
0.208273593294
0.208082432538
0.207525612388
0.207465148638
0.206844426358
0.206881875514
0.206202380841
0.206311611552
0.205575086184
0.205734315583
0.204941717343
0.205128568912
0.204282650005
0.204477145705
0.203581547759
0.203765094565
0.202825843636
0.202982510401
0.202008337831
0.202126912808
0.20113229213
0.201210211539
0.200217630407
0.200268344335
0.199313532396
0.199388515746
0.198512432233
0.198724682866
0.197941997102
0.198407978831
0.197695885948
)
;

boundaryField
{
    inletfuel
    {
        type            fixedValue;
        value           nonuniform 0();
    }
    inletair
    {
        type            fixedValue;
        value           nonuniform 0();
    }
    outlet
    {
        type            zeroGradient;
    }
    axis
    {
        type            empty;
    }
    leftside
    {
        type            zeroGradient;
    }
    burnerwall
    {
        type            zeroGradient;
    }
    front
    {
        type            wedge;
    }
    back
    {
        type            wedge;
    }
    procBoundary1to0
    {
        type            processor;
        value           nonuniform List<scalar> 
27
(
0.00656198943345
0.00659689098969
0.00668746960766
0.00682309108741
0.157389277571
0.18166067302
0.204973233558
0.220908917809
0.228450807197
0.231031702139
0.231283635177
0.00714921773569
0.00790761700871
0.00910686175713
0.0108676087075
0.0133800373032
0.0168869578828
0.0213477974451
0.0269414303588
0.0357227352362
0.0508631199711
0.0685417029147
0.0868448247329
0.106087114615
0.106087114615
0.230285072514
0.229492336062
)
;
    }
}


// ************************************************************************* //
