/*--------------------------------*- C++ -*----------------------------------*\
  =========                 |
  \\      /  F ield         | OpenFOAM: The Open Source CFD Toolbox
   \\    /   O peration     | Website:  https://openfoam.org
    \\  /    A nd           | Version:  7
     \\/     M anipulation  |
\*---------------------------------------------------------------------------*/
FoamFile
{
    version     2.0;
    format      ascii;
    class       volScalarField;
    location    "0.08";
    object      one_over_tauStar;
}
// * * * * * * * * * * * * * * * * * * * * * * * * * * * * * * * * * * * * * //

dimensions      [0 0 -1 0 0 0 0];

internalField   nonuniform List<scalar> 
815
(
220.270436672
220.215257732
219.496818589
158.221827997
158.505959112
158.53844872
124.163162233
124.268833983
124.42896867
116.19208045
116.282572096
116.45798662
114.754529062
114.825985392
114.950908337
112.410587681
112.452800642
112.519731657
108.613736575
108.638571239
108.636110557
103.176933029
103.211986527
103.192610473
96.4057589343
96.4479517618
96.4087736318
88.3926453688
88.4325250469
88.4012246257
79.162237653
79.1844615197
79.1503378791
68.0986753126
68.1147614196
68.1041616054
56.1038672502
56.102097722
56.0950001309
45.1455214179
45.1441360777
45.1323058013
36.9273853703
36.9269647654
36.9186150762
31.4717585901
31.4703727275
31.4571050095
27.9587118476
27.9598336404
27.9508831915
25.6833262655
25.6842642252
25.6765007413
24.1493984857
24.1503851609
24.1439624211
23.0663697975
23.067867478
23.0633925048
22.2643918043
22.2664676016
22.2651186156
21.6488607245
21.6507158482
21.6493342261
21.1417031147
21.1444157864
21.1467087695
20.7170466209
20.7192502222
20.7219658364
20.3409964441
20.3433516565
20.3483515814
20.0406609541
20.0421050977
20.0475378757
20.0176332889
20.0165942057
20.0195351625
21.5040753315
21.4957951827
21.4881544644
31.4954457965
31.4700468641
31.428598541
73.7811888389
73.7654623716
73.6842540106
135.090701636
135.075451227
135.031520506
218.562625945
158.468624676
124.645416742
116.733413202
115.165669313
112.653402949
108.681995685
103.205486749
96.3962807708
88.3884319222
79.1352421142
68.1154050342
56.1152552378
45.1578167134
36.9486236801
31.4867236921
27.9856029149
25.7137909212
24.1841235703
23.1070704182
22.3128269812
21.6996687453
21.2011340439
20.7780431341
20.406253441
20.1047568207
20.0720177296
21.5230782909
31.3930594967
73.5089613236
134.946970955
118.934980585
108.717976456
96.2152180059
77.5686361423
48.8377025329
22.2514217431
17.2168940689
216.34715143
211.538795636
205.196686423
198.003025679
190.508854693
183.032647801
175.614821576
168.302915619
160.480258637
151.56566281
141.689421105
131.382703204
121.548251352
113.979588199
108.428833243
98.1518524522
80.866859746
52.5474516454
24.061123573
17.9179022068
158.148526089
156.79984462
154.827095519
152.442404522
149.690021119
146.564667629
143.030104157
139.040952122
134.136326049
127.774781522
119.863362827
111.302667309
103.828699455
100.053065027
99.9622578353
93.0829430815
75.7903871254
46.8673240055
21.9033723825
18.4055222883
125.093646344
125.825941563
126.21101317
125.775056199
124.164245274
121.284902645
117.396781593
113.011493174
108.258298528
102.637374255
96.1419769152
90.0625335179
86.3679071057
86.684702323
88.5071129256
82.1463194364
64.0702247592
37.7734045673
19.6557126999
19.1752166842
117.333704329
118.249252225
118.524048884
117.431977309
114.471011696
109.484447916
102.806726509
95.3645940696
88.3569647013
82.4418377616
77.8872522768
75.2461119202
74.9869241418
76.5261730434
76.8777709331
69.3522583533
51.2704459031
30.6038021431
19.33582878
20.2412665316
115.646006485
116.243846136
115.946555377
113.972827025
109.775765686
103.19530327
94.658782188
85.4531210011
77.4125664136
71.6314324881
68.1233343456
66.6669861188
66.820399148
67.27316962
65.2653976352
56.5554757064
41.5038590681
27.8852372195
21.2868446267
21.7291114326
112.977915031
113.289777206
112.658770291
110.333959533
105.791221924
98.9123926726
90.1946361049
80.9605396754
72.9368531043
67.083115837
63.3450100444
61.2905398015
60.316479573
59.2002445793
55.6609044648
47.5199328832
37.3180846885
29.2177168147
25.040579724
23.8811755345
108.833442197
108.885533086
108.085631377
105.779712628
101.536011398
95.2837471496
87.4702094691
79.1549487112
71.6467275495
65.7169267714
61.4145470645
58.3746867215
56.0556374877
53.5965315395
49.6662821023
43.7113783761
37.3938253861
32.579620978
29.5068935385
27.0221855324
103.276442726
103.185544206
102.375868132
100.346839341
96.7708922042
91.6016081904
85.1494405985
78.1144414252
71.3565456655
65.4720349283
60.6168997235
56.6432958788
53.2374246825
49.9932959917
46.3963961638
42.2595543566
38.3133036251
35.3195652205
33.1964635502
30.5331659358
96.4168797809
96.282821776
95.5777613806
93.9296404586
91.083511262
86.9732192354
81.7625307481
75.8687768641
69.8222559515
64.0629317814
58.8377052113
54.2038698668
50.1676616956
46.5719210071
43.2636754314
40.2348805067
37.8465146014
36.364478392
35.4922492025
33.8192832176
88.3906412444
88.2268118699
87.5798139055
86.1765309176
83.8093760781
80.3823557965
75.9557899566
70.7661749014
65.1727586846
59.5432099448
54.1922180651
49.3536429931
45.1721477496
41.6552362376
38.8859333427
36.960106655
36.0771228129
36.2100642534
36.8480258564
37.3667484374
79.1299454535
78.9507855663
78.3308942394
77.0572467084
74.9433647697
71.8638309744
67.8010389842
62.8975492776
57.4612026525
51.9089370031
46.6827264899
42.1232426591
38.443831943
35.7258206019
33.999294141
33.301781683
33.7974167159
35.4864267005
37.8828867403
42.7734352757
68.1419578842
68.0088465666
67.4745964301
66.3464021875
64.4339006861
61.5909758392
57.7856511058
53.1604738758
48.0834032739
43.0892808957
38.6769510766
35.1433443097
32.5928175117
31.0043682985
30.3458496264
30.6541817613
32.1052130902
34.8376940368
38.8927626189
48.9114445422
56.1655551869
56.1255213207
55.7495896927
54.8393160141
53.201914708
50.7020125078
47.3503779666
43.3748699534
39.2271663693
35.4307997722
32.3610935329
30.1521775986
28.7807679156
28.1772536347
28.311313603
29.2493275834
31.1915202189
34.4269471472
39.6588115252
52.7963773453
45.2274889292
45.2806432232
45.0831660737
44.4466645217
43.2062783559
41.2687419576
38.6884897837
35.7241264103
32.7912286608
30.2829234958
28.4161015492
27.2276510487
26.6650082625
26.6718227442
27.2418006093
28.4591590743
30.5379561377
33.8874048771
39.6184094039
53.5457265324
37.0330504205
37.1502663994
37.0943360594
36.7040507513
35.8537677032
34.4905037029
32.6848565811
30.6601383072
28.7339489803
27.175962746
26.1136422718
25.5563246664
25.4641606017
25.8015640354
26.5745109054
27.8658075478
29.8824248925
33.0830886087
38.7478334788
52.4048043984
31.5790895053
31.7381695423
31.783236595
31.5790477978
31.0292752923
30.1044621195
28.8716273708
27.5043304306
26.2373355529
25.2656064906
24.6817187749
24.4958676885
24.6816723741
25.2118035703
26.0890120125
27.3812020811
29.2690766828
32.2098491848
37.5218632259
50.6577272178
28.0897417521
28.2805868798
28.3971334487
28.3212671297
27.9708846732
27.3258458936
26.4460552966
25.4713351681
24.5878481307
23.9538972862
23.6539564526
23.7078232329
24.0946785472
24.7819333837
25.7576919779
27.0642966483
28.8472794023
31.5256050755
36.3917945568
49.02802755
25.8270747893
26.0447494035
26.2147696002
26.2270657239
26.002342942
25.5199635266
24.8327363084
24.0642539221
23.3800843688
22.9312461213
22.8123295492
23.0558099105
23.6375610996
24.5054800306
25.6204307242
26.9901442067
28.7202318796
31.1700632589
35.5660496145
47.6350268782
24.3063045212
24.5484803313
24.7612902992
24.8368648584
24.6926084064
24.3005288558
23.7044475362
23.0208310432
22.4144954136
22.053774473
22.0643709082
22.4951931609
23.3051934567
24.4032250425
25.7069322024
27.1844319782
28.900719482
31.1569270681
35.100924843
46.7371517583
23.2387587563
23.5043860747
23.7535974709
23.8776808265
23.7879699031
23.445552092
22.88196954
22.2068315616
21.5954207614
21.2571216652
21.3758886243
22.0221194606
23.1142176568
24.4923956303
26.0175325485
27.6208821999
29.3328810503
31.4091236186
34.9429376899
46.2362953471
22.4541671126
22.7420966204
23.0229892875
23.1862443153
23.1365221229
22.8228477548
22.2612210594
21.5499086991
20.8773729581
20.5171241588
20.7475165536
21.6610607141
23.0927873853
24.7810258601
26.5295039248
28.2431803253
29.9369483382
31.834303115
35.0185602379
46.0348308906
21.848847903
22.1564048
22.4634579694
22.6572362714
22.6368471063
22.3401917478
21.7665282722
20.9976389105
20.2319111217
19.8302401012
20.207099129
21.4557264259
23.2659008061
25.2581582691
27.195658647
28.9790947618
30.629298981
32.3554383942
35.2547249396
46.0804790476
21.3579694148
21.6807026608
22.0062058833
22.2203055648
22.2180462747
21.9284241464
21.3350372129
20.5010351189
19.6348319505
19.2125770854
19.8136565011
21.4657670527
23.6546896179
25.9023791243
27.9671251048
29.7743497335
31.3547080754
32.9321123621
35.6075200468
46.3028716718
20.9389148588
21.2702100465
21.6046428338
21.8267555473
21.8292136044
21.5349319966
20.9143126114
20.0147736646
19.0677734276
18.7067588433
19.6530829036
21.7449598935
24.2571694644
26.677173219
28.8011397557
30.5902598803
32.0920576386
33.5498079308
36.0706073048
46.7067969736
20.5688110353
20.9000632303
21.2312440711
21.4465280147
21.4377648557
21.1236284064
20.4648290427
19.5032679116
18.5344007276
18.3993612144
19.8235616094
22.3237808912
25.0548639135
27.5527000937
29.6761217063
31.4217762138
32.8629739503
34.2432174366
36.6780952021
47.3151331588
20.2638371614
20.5836864416
20.8961442708
21.0861741837
21.0461055463
20.6921323712
19.9801192562
18.9708143348
18.1037997418
18.4251513257
20.3918754917
23.1930791662
26.0188782816
28.5118437376
30.6000625916
32.3112217223
33.7331100916
35.1139423669
37.5758098901
48.3376502577
20.2182615818
20.5048531181
20.7700766349
20.9027771758
20.7982621762
20.3729074011
19.5870980744
18.5689093125
17.9954117535
18.9530636974
21.3861248557
24.3368825608
27.1532555245
29.6012812418
31.665441364
33.3918523413
34.8870506039
36.4172440138
39.1122175246
50.2437411356
21.6251168065
21.8039179958
21.9293065803
21.9074902558
21.6470881443
21.0711706103
20.1543364509
19.1341278194
18.9194251523
20.3769168507
23.0150745159
25.9458365838
28.6904074068
31.1077674767
33.2167365741
35.0855423122
36.8666108736
38.874920898
42.303445066
54.5008198794
31.3143784357
31.0806602958
30.7089909709
30.181068497
29.4598625616
28.4724591115
27.0951157181
25.372336768
24.2211764423
24.8028297852
26.7973425717
29.3171576902
31.8634546092
34.2784838572
36.5892938154
38.8982352381
41.4541105097
44.7323520293
50.1934550324
65.1829459622
73.0702445338
72.0865046922
70.8694156179
69.5694112341
68.2770916553
66.8485154422
64.475321927
59.244487817
50.839347526
44.0054303124
41.2847895766
41.2679763912
42.5899903423
44.6189681403
47.2139048954
50.4640540432
54.8071619262
61.061838626
71.2166912947
90.9623932281
134.732316983
134.285185916
133.755744746
133.243071785
132.809528012
132.356188064
131.256180627
127.59785523
118.506067018
105.109430472
93.29804937
85.8946588273
82.4207513266
81.865250292
83.6814608224
87.7125159911
94.3609306799
104.126412328
117.962675213
135.140524385
33.9273412199
52.8423153046
34.9232005145
52.8664150186
36.4866521524
52.9004220886
38.1951876569
52.9455254753
39.4733467271
53.0043316961
40.1163182117
53.0752766616
40.2252308164
53.1561551511
40.672109922
53.2428122047
42.468964484
53.3320897041
47.5056991047
53.4212610527
62.0115757079
53.5053554201
111.232169623
247.354479986
141.211459903
277.071260319
157.197403391
302.84840062
164.913427515
327.272033892
168.342613281
350.133800918
170.124974204
371.15957347
171.789290301
390.144591133
172.882806193
407.329084299
174.510940434
423.079322657
176.454743022
437.621752201
178.401080415
450.997606939
180.554952835
463.122201028
182.723895174
473.927281379
184.966428512
483.217698607
187.575277241
490.793196899
190.775522378
496.440093586
195.312173655
500.048537643
201.602051436
501.986371712
209.372934881
503.021676918
214.680500678
503.967641249
212.006304789
501.959565117
)
;

boundaryField
{
    inletfuel
    {
        type            calculated;
        value           nonuniform 0();
    }
    inletair
    {
        type            calculated;
        value           nonuniform 0();
    }
    outlet
    {
        type            calculated;
        value           nonuniform List<scalar> 
26
(
135.090701636
135.075451227
135.031520506
134.946970955
134.732316983
134.285185916
133.755744746
133.243071785
132.809528012
132.356188064
131.256180627
127.59785523
118.506067018
105.109430472
93.29804937
85.8946588273
82.4207513266
81.865250292
83.6814608224
87.7125159911
94.3609306799
104.126412328
117.962675213
135.140524385
212.006304789
501.959565117
)
;
    }
    axis
    {
        type            empty;
    }
    leftside
    {
        type            calculated;
        value           nonuniform List<scalar> 
32
(
52.8423153046
52.8664150186
52.9004220886
52.9455254753
53.0043316961
53.0752766616
53.1561551511
53.2428122047
53.3320897041
53.4212610527
53.5053554201
247.354479986
277.071260319
302.84840062
327.272033892
350.133800918
371.15957347
390.144591133
407.329084299
423.079322657
437.621752201
450.997606939
463.122201028
473.927281379
483.217698607
490.793196899
496.440093586
500.048537643
501.986371712
503.021676918
503.967641249
501.959565117
)
;
    }
    burnerwall
    {
        type            calculated;
        value           nonuniform 0();
    }
    front
    {
        type            wedge;
    }
    back
    {
        type            wedge;
    }
    procBoundary1to0
    {
        type            processor;
        value           nonuniform List<scalar> 
27
(
266.061489347
265.566895158
264.290651564
262.838546887
112.023178478
100.399204181
84.7518849765
63.1353223933
35.7618208667
16.9757562361
16.3260326012
259.297830502
252.412082059
243.354469816
232.845123442
221.601833741
210.124979377
198.977364281
188.376632727
177.96892382
166.997238157
155.093544796
142.602296022
130.217961879
130.217961879
33.6279886565
52.8224478498
)
;
    }
}


// ************************************************************************* //
