/*--------------------------------*- C++ -*----------------------------------*\
  =========                 |
  \\      /  F ield         | OpenFOAM: The Open Source CFD Toolbox
   \\    /   O peration     | Website:  https://openfoam.org
    \\  /    A nd           | Version:  7
     \\/     M anipulation  |
\*---------------------------------------------------------------------------*/
FoamFile
{
    version     2.0;
    format      ascii;
    class       volScalarField;
    location    "0.08";
    object      p;
}
// * * * * * * * * * * * * * * * * * * * * * * * * * * * * * * * * * * * * * //

dimensions      [1 -1 -2 0 0 0 0];

internalField   nonuniform List<scalar> 
815
(
104570.457474
104570.416982
104570.406028
104564.129244
104564.13043
104564.108906
104561.739031
104561.742896
104561.739342
104553.14782
104553.155599
104553.145206
104547.17312
104547.174792
104547.171864
104536.743216
104536.729682
104536.725333
104527.695619
104527.679913
104527.675094
104517.12849
104517.116634
104517.110095
104506.001628
104505.987601
104505.976651
104493.527377
104493.51868
104493.510269
104477.339162
104477.332269
104477.323224
104456.611166
104456.610309
104456.601452
104429.562287
104429.555785
104429.547685
104397.313001
104397.31123
104397.3059
104357.93336
104357.933328
104357.930138
104310.714355
104310.713876
104310.711165
104253.549703
104253.551399
104253.548424
104184.324769
104184.324974
104184.321328
104100.58596
104100.586503
104100.584168
104000.751066
104000.752544
104000.751609
103883.077343
103883.075102
103883.071072
103746.338241
103746.335832
103746.331084
103590.002113
103590.000545
103589.996226
103413.338487
103413.335654
103413.329822
103214.170758
103214.167439
103214.158541
102990.569961
102990.563952
102990.550224
102736.754928
102736.751975
102736.743791
102459.879337
102459.878722
102459.876744
102165.621368
102165.618894
102165.61316
101849.136225
101849.133357
101849.126939
101507.887572
101507.884626
101507.878503
104570.383608
104564.075791
104561.737041
104553.130582
104547.166101
104536.714907
104527.670368
104517.102088
104505.96035
104493.497415
104477.310524
104456.587917
104429.536197
104397.298597
104357.925965
104310.707668
104253.544684
104184.316821
104100.581364
104000.750708
103883.065817
103746.324396
103589.990453
103413.321637
103214.146387
102990.532054
102736.732771
102459.873668
102165.605386
101849.11775
101507.869628
104563.976136
104563.786726
104563.38602
104564.076199
104565.011025
104568.018593
104569.75911
104570.35964
104570.284478
104570.165642
104570.005625
104569.808695
104569.573589
104569.34247
104569.115991
104568.662504
104567.878888
104566.697639
104564.858464
104563.248318
104562.077215
104562.477109
104564.776739
104564.317834
104565.794879
104565.925339
104567.241494
104564.002094
104563.758159
104563.394809
104562.899136
104562.278692
104561.556876
104560.794451
104560.053217
104559.394585
104558.973312
104558.814915
104559.087659
104559.355299
104559.00853
104558.741305
104557.626654
104559.838967
104559.824411
104561.12414
104562.723644
104561.732952
104561.733742
104561.736797
104561.741115
104561.739073
104561.712981
104561.69924
104561.709219
104561.417148
104560.902773
104560.129292
104559.081869
104558.196456
104557.576271
104558.047641
104558.480038
104555.929883
104557.837655
104556.722973
104557.96763
104553.102143
104553.04559
104552.951146
104552.822526
104552.647894
104552.427925
104552.153841
104551.831676
104551.480684
104551.149482
104550.878783
104550.632095
104550.426098
104550.289648
104549.700835
104548.609571
104548.988519
104550.550626
104549.444876
104550.930513
104547.15413
104547.163931
104547.164337
104547.176578
104547.180241
104547.181819
104547.156162
104547.093645
104546.966197
104546.760368
104546.423777
104545.978483
104545.5916
104545.087146
104544.438762
104545.285786
104541.52341
104543.957248
104541.616421
104542.968728
104536.677347
104536.680042
104536.657216
104536.664278
104536.638415
104536.600082
104536.502384
104536.359797
104536.13533
104535.815692
104535.342132
104534.749698
104534.114292
104533.534691
104532.598174
104532.565211
104532.332492
104533.311369
104532.451962
104533.62355
104527.655837
104527.602569
104527.519683
104527.386053
104527.242567
104527.093386
104526.947294
104526.781046
104526.570259
104526.293808
104525.912378
104525.39248
104524.625727
104523.780717
104522.679329
104521.438874
104521.715819
104522.26549
104521.89878
104522.920893
104517.083204
104517.024013
104516.943751
104516.824348
104516.665597
104516.455751
104516.198707
104515.904673
104515.592385
104515.272639
104514.964043
104514.610421
104514.118348
104513.510535
104512.865094
104512.178332
104510.509095
104510.594825
104511.2769
104511.451609
104505.927399
104505.837822
104505.708856
104505.527379
104505.291624
104504.994936
104504.633267
104504.201362
104503.694338
104503.111901
104502.464893
104501.911356
104501.534949
104501.234613
104500.996409
104500.786942
104500.659996
104499.055136
104499.198277
104499.424526
104493.465864
104493.385384
104493.266219
104493.099694
104492.881313
104492.6065
104492.271281
104491.8733
104491.412136
104490.880042
104490.272645
104489.559083
104488.723126
104487.874413
104487.250367
104486.841915
104486.732627
104486.969849
104486.46026
104486.446404
104477.283338
104477.221405
104477.130731
104477.007117
104476.846657
104476.646369
104476.4032
104476.111605
104475.758013
104475.331604
104474.846164
104474.324436
104473.784867
104473.213872
104472.584448
104471.896623
104471.267529
104470.727575
104470.609714
104470.620699
104456.555607
104456.468097
104456.330578
104456.134971
104455.873256
104455.539196
104455.131244
104454.655556
104454.133132
104453.591608
104453.047412
104452.516495
104452.010357
104451.552269
104451.173575
104450.890186
104450.724875
104450.273557
104450.075786
104449.399105
104429.512324
104429.462812
104429.39006
104429.289929
104429.157434
104428.994007
104428.806595
104428.568476
104428.301575
104428.008427
104427.692345
104427.354827
104426.998154
104426.62325
104426.229143
104425.822832
104425.42054
104424.989707
104424.581328
104423.950108
104397.2823
104397.245642
104397.190758
104397.115157
104397.016687
104396.894625
104396.74972
104396.583604
104396.400893
104396.206542
104396.004544
104395.797862
104395.589358
104395.371375
104395.131717
104394.860832
104394.481821
104393.935001
104393.401628
104392.598232
104357.917122
104357.896422
104357.865395
104357.822183
104357.765309
104357.693487
104357.606364
104357.504476
104357.388909
104357.262076
104357.121173
104356.971375
104356.800984
104356.605721
104356.367801
104356.058909
104355.581147
104355.114213
104354.527577
104353.825243
104310.700148
104310.683103
104310.657152
104310.620065
104310.569897
104310.503945
104310.420229
104310.316584
104310.191937
104310.044385
104309.871239
104309.671026
104309.433076
104309.153919
104308.810392
104308.367722
104307.784425
104307.3067
104306.743207
104306.138936
104253.535882
104253.514356
104253.4813
104253.433696
104253.368553
104253.282045
104253.170958
104253.03054
104252.860096
104252.651976
104252.409322
104252.119812
104251.784583
104251.395142
104250.93557
104250.376381
104249.821664
104249.270226
104248.737603
104248.255251
104184.30685
104184.284557
104184.250719
104184.202346
104184.135967
104184.047393
104183.932478
104183.785385
104183.603768
104183.378865
104183.109342
104182.784144
104182.402213
104181.949972
104181.415418
104180.788988
104180.22036
104179.622053
104179.053235
104178.626743
104100.574842
104100.559956
104100.536608
104100.502586
104100.454789
104100.389065
104100.300473
104100.184048
104100.032004
104099.837969
104099.590333
104099.282045
104098.902255
104098.433905
104097.869713
104097.265291
104096.616091
104095.936359
104095.294599
104094.819704
104000.746863
104000.736131
104000.718171
104000.690906
104000.65103
104000.59481
104000.516939
104000.410625
104000.266849
104000.07667
103999.827432
103999.509616
103999.109323
103998.614452
103998.053325
103997.413345
103996.696868
103995.948827
103995.249744
103994.73201
103883.055475
103883.036536
103883.008207
103882.968006
103882.912227
103882.836224
103882.733304
103882.59512
103882.410986
103882.167782
103881.853278
103881.454549
103880.962682
103880.396524
103879.742766
103878.99578
103878.17335
103877.363711
103876.622
103876.117465
103746.309959
103746.280295
103746.235151
103746.170567
103746.081229
103745.960697
103745.800914
103745.592494
103745.323318
103744.979776
103744.548316
103744.023907
103743.4059
103742.683402
103741.843529
103740.900718
103739.889218
103738.91205
103738.050937
103737.486593
103589.977052
103589.948514
103589.903931
103589.839056
103589.746531
103589.617138
103589.438559
103589.194296
103588.864255
103588.425846
103587.854023
103587.129139
103586.241572
103585.196258
103583.974736
103582.639845
103581.306856
103579.994946
103579.042259
103578.468774
103413.303949
103413.266382
103413.207656
103413.122845
103413.001448
103412.83301
103412.599688
103412.280338
103411.846436
103411.263879
103410.499135
103409.533923
103408.338803
103406.88991
103405.183482
103403.589321
103401.968546
103400.396494
103399.200475
103398.432191
103214.117851
103214.051167
103213.949374
103213.803467
103213.603051
103213.334581
103212.980179
103212.517069
103211.916975
103211.146898
103210.172093
103208.948775
103207.453586
103205.811017
103204.048586
103202.153635
103200.279916
103198.609421
103197.239778
103196.447239
102990.491871
102990.405374
102990.276541
102990.096842
102989.85483
102989.535556
102989.116747
102988.570354
102987.867025
102986.99425
102985.94289
102984.55767
102983.089198
102981.468463
102979.656739
102977.766136
102975.924034
102974.227511
102972.837893
102971.959836
102736.708048
102736.653207
102736.570067
102736.453759
102736.296398
102736.087977
102735.809249
102735.431574
102734.919511
102734.267027
102733.46744
102732.552841
102731.466443
102730.217449
102728.837029
102727.422619
102725.922139
102724.495229
102723.34473
102722.614872
102459.866494
102459.847657
102459.816455
102459.767126
102459.69241
102459.581836
102459.424458
102459.211094
102458.935117
102458.608931
102458.036944
102457.48118
102456.768609
102455.910635
102454.881066
102453.816611
102452.64532
102451.532409
102450.945572
102450.411582
102165.587991
102165.548608
102165.489134
102165.404408
102165.28696
102165.12556
102164.905002
102164.614162
102164.236525
102163.808436
102163.266247
102162.671208
102161.922651
102161.129031
102160.220543
102159.310219
102158.304412
102157.560029
102157.095993
102156.90122
101849.096453
101849.046746
101848.967369
101848.851516
101848.68579
101848.467487
101848.135279
101847.776748
101847.310166
101846.729966
101846.017016
101845.274429
101844.419394
101843.617529
101842.726969
101841.998082
101841.318572
101840.821476
101840.747381
101840.46704
101507.849177
101507.802137
101507.729209
101507.623446
101507.476764
101507.277996
101507.01889
101506.688049
101506.267746
101505.805918
101505.207427
101504.697846
101504.00548
101503.626805
101502.943003
101502.789857
101502.186632
101502.229105
101501.768992
101501.889886
104570.205584
104570.259936
104567.358881
104567.405568
104562.748583
104562.806544
104557.876582
104557.926234
104550.82585
104550.873645
104542.877226
104542.917294
104533.643969
104533.662945
104523.028136
104523.033532
104511.720626
104511.716409
104499.570796
104499.547263
104486.607479
104486.634587
104470.247986
104470.315955
104449.580831
104449.525608
104423.984105
104423.948599
104392.540749
104392.509458
104353.705961
104353.688192
104306.012711
104306.004825
104248.164447
104248.163685
104178.545686
104178.552323
104094.764488
104094.766811
103994.698682
103994.700261
103876.109504
103876.109414
103737.445023
103737.450433
103578.441884
103578.43933
103398.401946
103398.398694
103196.449492
103196.441736
102971.913863
102971.908688
102722.650377
102722.638465
102450.446553
102450.440951
102157.038697
102157.037942
101840.698256
101840.679178
101501.870326
101501.884271
)
;

boundaryField
{
    inletfuel
    {
        type            zeroGradient;
    }
    inletair
    {
        type            zeroGradient;
    }
    outlet
    {
        type            fixedValue;
        value           uniform 101325;
    }
    axis
    {
        type            empty;
    }
    leftside
    {
        type            zeroGradient;
    }
    burnerwall
    {
        type            zeroGradient;
    }
    front
    {
        type            wedge;
    }
    back
    {
        type            wedge;
    }
    procBoundary1to0
    {
        type            processor;
        value           nonuniform List<scalar> 
27
(
104565.068862
104565.006347
104564.972567
104564.917973
104567.309957
104567.022713
104568.122674
104567.74327
104569.79448
104571.90846
104573.211311
104564.770549
104564.365629
104563.714331
104562.802159
104561.646537
104560.390527
104559.399427
104558.539126
104558.074778
104558.281713
104558.91605
104560.239481
104562.257043
104562.257043
104573.621027
104573.648618
)
;
    }
}


// ************************************************************************* //
