/*--------------------------------*- C++ -*----------------------------------*\
  =========                 |
  \\      /  F ield         | OpenFOAM: The Open Source CFD Toolbox
   \\    /   O peration     | Website:  https://openfoam.org
    \\  /    A nd           | Version:  7
     \\/     M anipulation  |
\*---------------------------------------------------------------------------*/
FoamFile
{
    version     2.0;
    format      ascii;
    class       volScalarField;
    location    "0.08";
    object      PaSR<psiReactionThermo>:kappa;
}
// * * * * * * * * * * * * * * * * * * * * * * * * * * * * * * * * * * * * * //

dimensions      [0 0 0 0 0 0 0];

internalField   nonuniform List<scalar> 
815
(
1.43646551125e-12
1.43518549228e-12
1.43014243254e-12
1.03097648879e-12
1.03273897045e-12
1.03290273986e-12
8.3162768452e-13
8.32171575622e-13
8.33173525044e-13
7.91914444167e-13
7.92561891499e-13
7.93708694685e-13
7.89631231125e-13
7.90058522469e-13
7.90880118021e-13
7.76723835221e-13
7.77015112477e-13
7.77451918765e-13
7.51665987846e-13
7.51755179662e-13
7.51707989016e-13
7.13157512659e-13
7.13408979286e-13
7.13248736779e-13
6.64064294005e-13
6.64313112645e-13
6.64011866433e-13
6.04935743754e-13
6.05229606283e-13
6.04983645149e-13
5.37726367718e-13
5.37858237361e-13
5.37573233931e-13
4.60534725951e-13
4.60617337243e-13
4.60478419569e-13
3.81131541231e-13
3.8109997171e-13
3.80980516988e-13
3.10517768218e-13
3.10472551909e-13
3.10327346813e-13
2.57373245583e-13
2.5735253244e-13
2.57247957045e-13
2.21597606923e-13
2.21567655429e-13
2.21438587817e-13
1.98194893608e-13
1.98189269748e-13
1.98098708014e-13
1.82857345206e-13
1.82854087682e-13
1.82777638921e-13
1.72420918059e-13
1.7242045169e-13
1.72357749145e-13
1.64996500172e-13
1.65001486524e-13
1.64955864972e-13
1.59460203178e-13
1.59471619418e-13
1.5945130605e-13
1.55189809019e-13
1.55198429729e-13
1.55179506163e-13
1.51637604999e-13
1.51654575527e-13
1.51664187034e-13
1.48641964332e-13
1.48654714338e-13
1.48668550599e-13
1.45956387297e-13
1.45971521789e-13
1.46003352356e-13
1.43774147848e-13
1.43783514882e-13
1.43819867777e-13
1.43488978e-13
1.4348138553e-13
1.43501673929e-13
1.53599975089e-13
1.53542822792e-13
1.53492471577e-13
2.21206423704e-13
2.21039513277e-13
2.20778107218e-13
4.94908046291e-13
4.94832820813e-13
4.94401201764e-13
9.1959357119e-13
9.19506423963e-13
9.19259986732e-13
1.42326671885e-12
1.03252155108e-12
8.34519313479e-13
7.95573040667e-13
7.92290622698e-13
7.78352822267e-13
7.51962424144e-13
7.13328439242e-13
6.63885239819e-13
6.04873780316e-13
5.37406790319e-13
4.60480682568e-13
3.81038857096e-13
3.10427758863e-13
2.57402973767e-13
2.21605005296e-13
1.98313551078e-13
1.83019236731e-13
1.7262602317e-13
1.65254092486e-13
1.59782685627e-13
1.55532056926e-13
1.52049248882e-13
1.49067242801e-13
1.46417269491e-13
1.44230669009e-13
1.43880733292e-13
1.5375239667e-13
2.20582807517e-13
4.93435689614e-13
9.18757390619e-13
7.30463829183e-13
6.79230882915e-13
6.1020834807e-13
4.98367697807e-13
3.25372445781e-13
1.55787931312e-13
1.21944963041e-13
1.40780473178e-12
1.3743386111e-12
1.32980265162e-12
1.27845644899e-12
1.22358818096e-12
1.16710171055e-12
1.10993387293e-12
1.05366835974e-12
9.93627655578e-13
9.27652697412e-13
8.57763134525e-13
7.89277331684e-13
7.30446708659e-13
6.94561706697e-13
6.76280635467e-13
6.22811135521e-13
5.18650858441e-13
3.47624542908e-13
1.67582728409e-13
1.26708409815e-13
1.03055275933e-12
1.02200936413e-12
1.00882004167e-12
9.91668913242e-13
9.70066986935e-13
9.43287819088e-13
9.10842474268e-13
8.72693353074e-13
8.27396703125e-13
7.74433012096e-13
7.15977577244e-13
6.59911769954e-13
6.18480232284e-13
6.08043364631e-13
6.2500126247e-13
5.92181177511e-13
4.86278270404e-13
3.11954311104e-13
1.52911784231e-13
1.29889742031e-13
8.37435853668e-13
8.42179599182e-13
8.44004420307e-13
8.39045755207e-13
8.24046941608e-13
7.97358079485e-13
7.59766517056e-13
7.14802920851e-13
6.66654385662e-13
6.1781753562e-13
5.71386636328e-13
5.35058381937e-13
5.19644978546e-13
5.33689614859e-13
5.58026362123e-13
5.23899801121e-13
4.13235202695e-13
2.54636413384e-13
1.37469167976e-13
1.34805668155e-13
7.99560437654e-13
8.0546934948e-13
8.0639499427e-13
7.96773486453e-13
7.72369894381e-13
7.3125392147e-13
6.75118580498e-13
6.11114590556e-13
5.51043800713e-13
5.03733033845e-13
4.71770762541e-13
4.5683861439e-13
4.60294095737e-13
4.77446199288e-13
4.87190653265e-13
4.43859017102e-13
3.34879705903e-13
2.08360299334e-13
1.34605332924e-13
1.41419674076e-13
7.95477356962e-13
7.99258973696e-13
7.9630410573e-13
7.8068572823e-13
7.47967434471e-13
6.96481893297e-13
6.29157232004e-13
5.56223807488e-13
4.93047940594e-13
4.49049802127e-13
4.23886835619e-13
4.14744961658e-13
4.17964257333e-13
4.24653216245e-13
4.16128743437e-13
3.64824668534e-13
2.74309017289e-13
1.89765737879e-13
1.46404240752e-13
1.50518662292e-13
7.80503364926e-13
7.82389790606e-13
7.77284926535e-13
7.59555238047e-13
7.25059110777e-13
6.72627919964e-13
6.05859669108e-13
5.35061317315e-13
4.74002292901e-13
4.30375277895e-13
4.03451221632e-13
3.8944386297e-13
3.83841686171e-13
3.7849251967e-13
3.58481886353e-13
3.09665330647e-13
2.47695303357e-13
1.96874185263e-13
1.69420442972e-13
1.63748338011e-13
7.52908189586e-13
7.53039213795e-13
7.46908768724e-13
7.29662751959e-13
6.97934402593e-13
6.5100346367e-13
5.92091145429e-13
5.29288075315e-13
4.7287456652e-13
4.29083123696e-13
3.9824299265e-13
3.77323223134e-13
3.62233255102e-13
3.47079039548e-13
3.23171860776e-13
2.86830415406e-13
2.47874645541e-13
2.17294868438e-13
1.97382358138e-13
1.83722933287e-13
7.13744544497e-13
7.12926077047e-13
7.06855856501e-13
6.91840521633e-13
6.6535371298e-13
6.26918891287e-13
5.78750184683e-13
5.26135882376e-13
4.7581644433e-13
4.32671095696e-13
3.98016911485e-13
3.70617091915e-13
3.48000318316e-13
3.27250909941e-13
3.048752757e-13
2.792801356e-13
2.54621911053e-13
2.35372481205e-13
2.21931963934e-13
2.07032565795e-13
6.63954190978e-13
6.62854313915e-13
6.57605900755e-13
6.45476452172e-13
6.24530925217e-13
5.94206715688e-13
5.55674004091e-13
5.12097516167e-13
4.67674236278e-13
4.26053194494e-13
3.89296209409e-13
3.57756377726e-13
3.31220878211e-13
3.08286457529e-13
2.87587512295e-13
2.68713219747e-13
2.53743608806e-13
2.44206390235e-13
2.39022928796e-13
2.29912929653e-13
6.0480549223e-13
6.03475758457e-13
5.986499699e-13
5.88342241037e-13
5.71023984545e-13
5.4599513784e-13
5.13750855921e-13
4.76183616995e-13
4.36212399325e-13
3.96834806002e-13
3.60439495222e-13
3.28504363109e-13
3.01625535124e-13
2.79432800076e-13
2.62178889555e-13
2.50298885378e-13
2.45060687037e-13
2.46225127841e-13
2.50920321677e-13
2.55062973409e-13
5.37244185645e-13
5.35759662271e-13
5.31108106518e-13
5.21779906757e-13
5.06486644345e-13
4.84437293124e-13
4.5569779617e-13
4.21562347856e-13
3.84492576455e-13
3.47512455281e-13
3.13470339535e-13
2.84278351945e-13
2.60985441392e-13
2.43912463581e-13
2.33195492433e-13
2.29108833131e-13
2.32877380582e-13
2.44586934981e-13
2.61064125853e-13
2.92782853223e-13
4.60506849469e-13
4.59292835879e-13
4.55220035545e-13
4.46993801075e-13
4.33413018973e-13
4.13683089377e-13
3.87867243656e-13
3.57181769525e-13
3.24155196788e-13
2.92136567202e-13
2.640755398e-13
2.41674813158e-13
2.25541871997e-13
2.15577143871e-13
2.11657062689e-13
2.14131089632e-13
2.24325984963e-13
2.43278195473e-13
2.71099273361e-13
3.3684244941e-13
3.8121586421e-13
3.80616431602e-13
3.7763122273e-13
3.70978541981e-13
3.59512816123e-13
3.42576538216e-13
3.20491301718e-13
2.94840297913e-13
2.6840924598e-13
2.44329963619e-13
2.24869147493e-13
2.1088846709e-13
2.02309183466e-13
1.98761159924e-13
2.00127699216e-13
2.06943244008e-13
2.20669182654e-13
2.43346887519e-13
2.7962808357e-13
3.68256649925e-13
3.10761823853e-13
3.10839097724e-13
3.09116783113e-13
3.04376865204e-13
2.95649646827e-13
2.82528350029e-13
2.65559864106e-13
2.4645342204e-13
2.27754085937e-13
2.11844341266e-13
2.00073800237e-13
1.9271471755e-13
1.89482444742e-13
1.90063000705e-13
1.94474556665e-13
2.03358493293e-13
2.18259706794e-13
2.4207076067e-13
2.82451316462e-13
3.78947217551e-13
2.57882094956e-13
2.58477102079e-13
2.57802736274e-13
2.54791670371e-13
2.48687853093e-13
2.39298598119e-13
2.27254768833e-13
2.14076058437e-13
2.01759476423e-13
1.91957952895e-13
1.85451968247e-13
1.82305694139e-13
1.82283467275e-13
1.85183494344e-13
1.91089497699e-13
2.00623222763e-13
2.1527932288e-13
2.38330291772e-13
2.78783393494e-13
3.75100271694e-13
2.22174687217e-13
2.23130529843e-13
2.2322952119e-13
2.21550808524e-13
2.17491632343e-13
2.10971143418e-13
2.02588512133e-13
1.9359021613e-13
1.8550922399e-13
1.79548289359e-13
1.76249474657e-13
1.75654465829e-13
1.77591232082e-13
1.81894058522e-13
1.8861055394e-13
1.98250107942e-13
2.12121440867e-13
2.3350683489e-13
2.71779169693e-13
3.65323118732e-13
1.98991716822e-13
2.00221564707e-13
2.00877363154e-13
2.00135887635e-13
1.97459357763e-13
1.92794408117e-13
1.86682310686e-13
1.80185489012e-13
1.74580996317e-13
1.70863454955e-13
1.69514600289e-13
1.70617856199e-13
1.74016157548e-13
1.7948978739e-13
1.86972032426e-13
1.96783435517e-13
2.09980691636e-13
2.29579545945e-13
2.64820442465e-13
3.5525451592e-13
1.83780105408e-13
1.85235983281e-13
1.86311229288e-13
1.86225292157e-13
1.84437173562e-13
1.80861539966e-13
1.75977113341e-13
1.70764343149e-13
1.6642261927e-13
1.6394148755e-13
1.63871260256e-13
1.66358955936e-13
1.71200597256e-13
1.78022811916e-13
1.86555829116e-13
1.96866376812e-13
2.09722954345e-13
2.27714586141e-13
2.59639352242e-13
3.46254643353e-13
1.73463453756e-13
1.75120562902e-13
1.76532211016e-13
1.76924512613e-13
1.75717341926e-13
1.72751053038e-13
1.68424739473e-13
1.63685332867e-13
1.59783559111e-13
1.57882703968e-13
1.58755709152e-13
1.62637416109e-13
1.69177130069e-13
1.77708184542e-13
1.87643315873e-13
1.98760352429e-13
2.11533202958e-13
2.28132646581e-13
2.56811765003e-13
3.40460845151e-13
1.66169744468e-13
1.6801550129e-13
1.69713288868e-13
1.70477466865e-13
1.69673706903e-13
1.67047374952e-13
1.62892804287e-13
1.58112511655e-13
1.54078254412e-13
1.52303340252e-13
1.53985142653e-13
1.59478812723e-13
1.68113409663e-13
1.78714979912e-13
1.90281989868e-13
2.0232464798e-13
2.15066141958e-13
2.30350897287e-13
2.56056676672e-13
3.37334786426e-13
1.60775994678e-13
1.62798858201e-13
1.64745786301e-13
1.65813971833e-13
1.65313848315e-13
1.62891425188e-13
1.58713505929e-13
1.53597540766e-13
1.4904455683e-13
1.47086848752e-13
1.49613275604e-13
1.57101478521e-13
1.68248264577e-13
1.81131953797e-13
1.94335857001e-13
2.07180278094e-13
2.1977749575e-13
2.3374224124e-13
2.56899262675e-13
3.36256192428e-13
1.56588155958e-13
1.58766182756e-13
1.60919979003e-13
1.62228720247e-13
1.61958047905e-13
1.59664886802e-13
1.55382477774e-13
1.49802473364e-13
1.44521337438e-13
1.42253804717e-13
1.45882325397e-13
1.55853558028e-13
1.69786126831e-13
1.84897328318e-13
1.99477208212e-13
2.12817992182e-13
2.25078728389e-13
2.37773253505e-13
2.58842354009e-13
3.36881888953e-13
1.53166265705e-13
1.55465403278e-13
1.5776812828e-13
1.59242229128e-13
1.59121155504e-13
1.56891914576e-13
1.52466047568e-13
1.4639525799e-13
1.40365250065e-13
1.37959582209e-13
1.43253364312e-13
1.56191413837e-13
1.7289567702e-13
1.89865124247e-13
2.05358424105e-13
2.18852316512e-13
2.30579568731e-13
2.42165603971e-13
2.61587245693e-13
3.38721114793e-13
1.502177552e-13
1.5258836835e-13
1.54969139875e-13
1.565179705e-13
1.56449639898e-13
1.54204667778e-13
1.49595728977e-13
1.43061001653e-13
1.36465979621e-13
1.34540817147e-13
1.42370804581e-13
1.58517693574e-13
1.77567133661e-13
1.95771483953e-13
2.11671083146e-13
2.25006287804e-13
2.36133707317e-13
2.46821907821e-13
2.65097003973e-13
3.41810951747e-13
1.47583956143e-13
1.49962486885e-13
1.5233149526e-13
1.53846224028e-13
1.53715442768e-13
1.51349423162e-13
1.46493354362e-13
1.39554240972e-13
1.32868699744e-13
1.32639757989e-13
1.43954642628e-13
1.63053840533e-13
1.83662688369e-13
2.02397172499e-13
2.18258668699e-13
2.31246305632e-13
2.41904497168e-13
2.52001382723e-13
2.69624097522e-13
3.46308371133e-13
1.4537588818e-13
1.47679776849e-13
1.49924703927e-13
1.51272000232e-13
1.50935117947e-13
1.48310209464e-13
1.431173597e-13
1.35917314011e-13
1.30081543533e-13
1.33226929382e-13
1.48477335398e-13
1.69718843763e-13
1.909613868e-13
2.09612042535e-13
2.25178287302e-13
2.37883163053e-13
2.48373516078e-13
2.58447256853e-13
2.76228555256e-13
3.53702325092e-13
1.44938362909e-13
1.47013259447e-13
1.48932547111e-13
1.49885788371e-13
1.49110217849e-13
1.46011136156e-13
1.40359982987e-13
1.33226405231e-13
1.29661891026e-13
1.37489351424e-13
1.56107024129e-13
1.78369358671e-13
1.99477456618e-13
2.17749991264e-13
2.33103378007e-13
2.45890075527e-13
2.5688875509e-13
2.68019736475e-13
2.87435049993e-13
3.6732005074e-13
1.54507757347e-13
1.55841304347e-13
1.5679669152e-13
1.56684328669e-13
1.54838419139e-13
1.50726134876e-13
1.44257769906e-13
1.3733165693e-13
1.36609661127e-13
1.48197793756e-13
1.68304962333e-13
1.90363219144e-13
2.10891972057e-13
2.28898699199e-13
2.44547351386e-13
2.5834625417e-13
2.71401690759e-13
2.85969156974e-13
3.10589306027e-13
3.97558537971e-13
2.20158459369e-13
2.18774068528e-13
2.16432675987e-13
2.12939228658e-13
2.07999873819e-13
2.01157599516e-13
1.91802950542e-13
1.80737676404e-13
1.74427909811e-13
1.80366268657e-13
1.96009915154e-13
2.1510916117e-13
2.34182398516e-13
2.52153364852e-13
2.69252895939e-13
2.8623260901e-13
3.04883281059e-13
3.28569311601e-13
3.67557478473e-13
4.7294835832e-13
4.90974238156e-13
4.85274543949e-13
4.77985273356e-13
4.69840334849e-13
4.61306170685e-13
4.51680124463e-13
4.36929291094e-13
4.0707420246e-13
3.58525509266e-13
3.16994063501e-13
3.00565366301e-13
3.01897919881e-13
3.12289087618e-13
3.27516209845e-13
3.46667976165e-13
3.70395752144e-13
4.01790387864e-13
4.46458199644e-13
5.17682497546e-13
6.52158334625e-13
9.17440876369e-13
9.14614872671e-13
9.11126799993e-13
9.07492329219e-13
9.04038313295e-13
9.00261946402e-13
8.92909192388e-13
8.71942716126e-13
8.20871219447e-13
7.42036505131e-13
6.68496841192e-13
6.20766579633e-13
5.98329085715e-13
5.95502113647e-13
6.08937101777e-13
6.3757941937e-13
6.83965192054e-13
7.5075872015e-13
8.42741930542e-13
9.53323355948e-13
2.34453206693e-13
3.30031593294e-13
2.40888314251e-13
3.29225809764e-13
2.50820532269e-13
3.2767200971e-13
2.61294365888e-13
3.2604479022e-13
2.68431679993e-13
3.24920072551e-13
2.71047848672e-13
3.251820061e-13
2.70324371384e-13
3.27840543331e-13
2.72748395224e-13
3.32943893584e-13
2.85079419153e-13
3.40454672922e-13
3.19120265914e-13
3.51673255059e-13
4.13644407097e-13
3.66332744728e-13
7.03661390667e-13
1.48619281388e-12
8.84835884917e-13
1.70275716136e-12
9.96396549725e-13
1.89414439367e-12
1.06312889066e-12
2.07593253828e-12
1.10253309655e-12
2.24523695624e-12
1.12860111897e-12
2.3998034012e-12
1.15110249127e-12
2.53835195826e-12
1.16796763781e-12
2.66289468679e-12
1.18682772131e-12
2.77633211713e-12
1.20663559007e-12
2.88048372727e-12
1.22558618055e-12
2.97575535563e-12
1.24496038584e-12
3.06161848589e-12
1.26347934072e-12
3.13764725546e-12
1.28133593099e-12
3.2025240149e-12
1.30016286723e-12
3.25492584455e-12
1.32099342159e-12
3.29348531111e-12
1.34805784319e-12
3.31763316526e-12
1.38353803171e-12
3.3302559662e-12
1.42753250233e-12
3.33686530055e-12
1.46349450697e-12
3.34284452772e-12
1.46349070359e-12
3.32676007561e-12
)
;

boundaryField
{
    inletfuel
    {
        type            calculated;
        value           nonuniform 0();
    }
    inletair
    {
        type            calculated;
        value           nonuniform 0();
    }
    outlet
    {
        type            calculated;
        value           uniform 0;
    }
    axis
    {
        type            empty;
    }
    leftside
    {
        type            calculated;
        value           uniform 0;
    }
    burnerwall
    {
        type            calculated;
        value           nonuniform 0();
    }
    front
    {
        type            wedge;
    }
    back
    {
        type            wedge;
    }
    procBoundary1to0
    {
        type            processor;
        value           uniform 0;
    }
}


// ************************************************************************* //
