/*--------------------------------*- C++ -*----------------------------------*\
  =========                 |
  \\      /  F ield         | OpenFOAM: The Open Source CFD Toolbox
   \\    /   O peration     | Website:  https://openfoam.org
    \\  /    A nd           | Version:  7
     \\/     M anipulation  |
\*---------------------------------------------------------------------------*/
FoamFile
{
    version     2.0;
    format      ascii;
    class       surfaceScalarField;
    location    "0.08";
    object      phi;
}
// * * * * * * * * * * * * * * * * * * * * * * * * * * * * * * * * * * * * * //

dimensions      [1 0 -1 0 0 0 0];

internalField   nonuniform List<scalar> 
1572
(
8.48576494602e-09
1.63541898211e-08
3.392712221e-08
5.09906428064e-08
8.60234641369e-08
7.61088604871e-08
3.82660619181e-09
1.702174909e-08
1.73762028031e-08
5.09583247111e-08
8.56889531615e-08
4.04078252188e-08
-1.07153222504e-09
2.17347250032e-08
-4.06008587625e-09
6.48593562582e-08
1.08930944545e-07
-8.91831976337e-09
-3.27602584181e-09
2.78182712213e-08
-1.28774911175e-08
8.28969666491e-08
1.39013602468e-07
-2.87352537687e-08
-3.54158160345e-09
3.38239302131e-08
-1.47490390927e-08
1.01467931181e-07
1.70112270017e-07
-3.34738005432e-08
-1.04310221491e-09
3.74285797365e-08
-5.61090648592e-09
1.1373927838e-07
1.90887520899e-07
-1.34962818737e-08
1.81680413789e-09
3.88158735532e-08
6.23942727e-09
1.18897424613e-07
1.99971897104e-07
1.31506330794e-08
4.26013421233e-09
3.88328618407e-08
1.69715046081e-08
1.19037390062e-07
2.00274390153e-07
3.81081778832e-08
6.59559329097e-09
3.80184137101e-08
2.65873739519e-08
1.16370788886e-07
1.95719046641e-07
6.00584705023e-08
6.13432058026e-09
3.88484369988e-08
2.52274037635e-08
1.18235966528e-07
1.98581410679e-07
5.73890661669e-08
4.92218942336e-09
4.14234920102e-08
2.02163671919e-08
1.25498265368e-07
2.10683286811e-07
4.58308030761e-08
2.03681759348e-09
4.66244682978e-08
9.86046889372e-09
1.39469640664e-07
2.33356933768e-07
2.3618449799e-08
5.60782978926e-10
5.2520849294e-08
1.70709497894e-09
1.57683317974e-07
2.63722030724e-07
3.65560438498e-09
-1.89578983199e-09
5.98919367228e-08
-7.71845816587e-09
1.79902630399e-07
3.0081508916e-07
-1.74341866946e-08
-3.32361849581e-09
6.77806787172e-08
-1.34411108496e-08
2.03735034664e-07
3.40616427529e-07
-3.03216148061e-08
-3.64538334084e-09
7.53349803013e-08
-1.52650584896e-08
2.27047789804e-07
3.79682241797e-07
-3.47839543688e-08
-4.24762268749e-09
8.29590554709e-08
-1.66870989783e-08
2.49614157122e-07
4.17203561837e-07
-3.72677573747e-08
-3.76248044445e-09
8.96925033648e-08
-1.50597407212e-08
2.698335261e-07
4.50899487593e-07
-3.38193949104e-08
-3.2352601244e-09
9.55936501274e-08
-1.2961667063e-08
2.87577879421e-07
4.80500912713e-07
-2.9133835986e-08
-2.86057253218e-09
1.00895983482e-07
-1.12753707021e-08
3.03348075668e-07
5.06719363131e-07
-2.51716191088e-08
-1.5971736285e-09
1.04803523792e-07
-6.99875517945e-09
3.15719632639e-07
5.27636566553e-07
-1.62403580968e-08
-1.23873184631e-09
1.08266339845e-07
-5.44952920911e-09
3.26622605363e-07
5.46015485619e-07
-1.26123645628e-08
-1.25806003379e-09
1.11765728218e-07
-5.10694254423e-09
3.372073525e-07
5.63855123636e-07
-1.16519944032e-08
-8.8088939492e-10
1.14862055588e-07
-3.86960089686e-09
3.46847765382e-07
5.80177345072e-07
-9.0359784626e-09
-1.48057510722e-09
1.18551609265e-07
-5.62929995584e-09
3.57619762974e-07
5.97786740603e-07
-1.21360915188e-08
-1.29674450331e-09
1.21857009834e-07
-4.99881373335e-09
3.6738490654e-07
6.1399770585e-07
-1.10278665407e-08
-1.18340265802e-09
1.24877425522e-07
-4.58434915768e-09
3.76356359764e-07
6.29048557122e-07
-1.02676758064e-08
-1.08159943081e-09
1.27853770058e-07
-4.26803820025e-09
3.85233472575e-07
6.43727825308e-07
-9.38023735843e-09
-1.00280903377e-09
1.30685271366e-07
-3.61587783173e-09
3.93350113315e-07
6.56786728442e-07
-7.42857579347e-09
-3.43042281661e-10
1.32546503867e-07
-1.1233910466e-09
3.98705283298e-07
6.65311447314e-07
-2.00378942484e-09
4.52724564436e-10
1.52308060465e-09
3.31221678288e-09
1.04460717244e-07
1.25913044379e-07
1.03515531638e-07
6.88049287432e-08
1.31328418049e-07
-1.44217733221e-08
1.67390075203e-07
-4.74635419245e-08
2.05036327488e-07
-5.61778818479e-08
2.3070095545e-07
-2.35992450784e-08
2.41516819265e-07
2.15207750532e-08
2.41504152407e-07
6.38789465791e-08
2.35963641573e-07
1.0024980579e-07
2.38904926106e-07
9.65302499205e-08
2.53409555437e-07
7.65897824888e-08
2.79724620644e-07
4.10023925367e-08
3.16636813678e-07
5.43989893852e-09
3.61202672179e-07
-2.91868335529e-08
4.09031216153e-07
-5.06192403925e-08
4.56370006428e-07
-5.8641742199e-08
5.009961877e-07
-6.15106631403e-08
5.41226789369e-07
-5.60587748466e-08
5.76467392764e-07
-4.81841986294e-08
6.06939995905e-07
-4.07769563865e-08
6.32944702702e-07
-2.81531735544e-08
6.55691684745e-07
-2.18221641044e-08
6.77003509585e-07
-1.93309866818e-08
6.97178731092e-07
-1.57453132122e-08
7.17445731831e-07
-1.90050211611e-08
7.36585733219e-07
-1.78534596333e-08
7.54674074646e-07
-1.70060417119e-08
7.7244459305e-07
-1.55928398283e-08
7.87891323624e-07
-1.17035601071e-08
7.98092549137e-07
-2.98027246618e-09
5.41058869772e-09
1.03688838915e-05
2.19552383094e-05
1.14133927426e-05
3.23831315619e-05
1.01824242006e-05
5.24902943785e-05
8.20756282974e-06
8.31902634262e-05
6.8707051017e-06
0.000125053660005
4.90955666199e-06
0.000171006398119
0.000210035635777
2.16546857445e-06
3.08501465795e-07
3.97229634196e-07
5.86725907554e-07
6.35195862469e-07
9.65945036422e-07
9.27098842377e-07
1.44400133379e-06
1.28462397818e-06
2.00951636268e-06
1.7255545513e-06
2.64767422543e-06
2.27061956501e-06
3.42759385325e-06
2.9576032901e-06
4.45056903412e-06
3.83687473231e-06
5.79031975512e-06
4.95043808652e-06
7.53975277384e-06
6.37302571215e-06
9.81489863173e-06
8.1889236206e-06
1.23458961536e-05
1.10971766702e-05
1.42788599401e-05
1.60038242314e-05
1.47356759138e-05
2.3174751855e-05
1.30499955717e-05
3.45997723415e-05
1.23068248377e-05
5.36237773761e-05
1.56235919709e-05
8.4903781484e-05
1.74519996683e-05
0.000131494292355
1.22022799618e-05
0.000182092531606
0.000221108359448
4.03150652973e-06
1.83270801855e-07
3.8689018887e-07
3.64288048985e-07
6.24710719858e-07
6.21195229876e-07
9.27927595245e-07
9.64907633483e-07
1.31520051218e-06
1.40948449367e-06
1.81536695568e-06
1.97069329381e-06
2.46564479528e-06
2.67180311104e-06
3.32113649123e-06
3.52030830695e-06
4.44849622014e-06
4.48806462342e-06
5.93429669074e-06
5.46015060164e-06
7.91317645495e-06
6.18738385634e-06
1.05915600714e-05
7.02006868924e-06
1.41855641974e-05
8.9632487277e-06
1.90670462665e-05
1.20449253399e-05
2.62581601331e-05
1.4522312556e-05
3.94826902721e-05
1.4797521248e-05
6.41172052715e-05
1.70640570019e-05
0.000101887641027
1.90821070858e-05
0.000146553479572
1.31002581267e-05
0.000195173026079
0.00023119077594
4.19772360479e-06
-3.25804018334e-08
4.90547856151e-07
-5.76699612221e-08
7.93482943982e-07
-8.81537242255e-08
1.18286204797e-06
-1.18769489169e-07
1.68425788526e-06
-1.37330688915e-07
2.33658925928e-06
-1.20641747525e-07
3.18884647501e-06
-3.763766681e-08
4.31300094717e-06
1.28452885198e-07
5.79916069662e-06
3.76936693301e-07
7.76921491137e-06
6.80460772698e-07
1.03998906346e-05
9.95607573049e-07
1.39643862439e-05
1.22111767578e-06
1.88636239472e-05
1.24962803581e-06
2.57609273182e-05
1.27129188182e-06
3.60101242764e-05
3.4947650819e-06
5.31572698381e-05
1.26775545947e-05
7.99443647542e-05
2.30599426962e-05
0.000120008775299
2.03035657891e-05
0.000166762060202
1.27498474626e-05
0.000206216288052
0.00023797048433
3.99841946854e-06
-1.14469500592e-07
6.2426742715e-07
-2.17636153702e-07
1.00972531619e-06
-3.62251059649e-07
1.5062308082e-06
-5.51477526073e-07
2.14679047977e-06
-7.85587195262e-07
2.98218530946e-06
-1.0621857615e-06
4.07714212302e-06
-1.38316694021e-06
5.52702628805e-06
-1.77001046299e-06
7.45498886355e-06
-2.27354367908e-06
1.00258186653e-05
-2.94543038326e-06
1.34597202348e-05
-3.77551078203e-06
1.80762035702e-05
-4.65442191741e-06
2.43942620117e-05
-5.18566599796e-06
3.32555468588e-05
-4.36719062477e-06
4.64285472623e-05
4.10698803694e-07
6.74883003902e-05
7.10063026108e-06
9.77942757552e-05
1.34037309885e-05
0.000132642576665
1.30419182015e-05
0.000173078858793
7.86624274855e-06
0.000207605503289
0.000237429069484
2.43068790254e-06
-1.41901159352e-07
7.66929033913e-07
-2.77183931265e-07
1.23978520489e-06
-4.73243871199e-07
1.84866934334e-06
-7.39219851868e-07
2.63045042263e-06
-1.08659050379e-06
3.6473256223e-06
-1.52230317905e-06
4.96930933812e-06
-2.05894337998e-06
6.70610545638e-06
-2.71410361191e-06
8.99161692851e-06
-3.5146676395e-06
1.20149019652e-05
-4.47787513774e-06
1.60302372154e-05
-5.58312015025e-06
2.14150974831e-05
-6.69315816259e-06
2.87562608484e-05
-7.59804234417e-06
3.91303652962e-05
-7.13391703333e-06
5.38881632769e-05
-1.68851323117e-06
7.43842855769e-05
6.35760902801e-06
0.000102555284537
9.58168793354e-06
0.000134040175379
7.96771900921e-06
0.000168665945639
4.19849189337e-06
0.000200019410887
0.000230096898635
1.08341935385e-06
-7.2541587199e-08
8.74373349124e-07
-1.49177424721e-07
1.41042354384e-06
-2.61699870807e-07
2.09922911488e-06
-4.03826093818e-07
2.96515602023e-06
-5.86872031171e-07
4.09047532343e-06
-8.13765178865e-07
5.53727823541e-06
-1.1057966239e-06
7.43180006503e-06
-1.47845009789e-06
9.90105262173e-06
-1.94806564989e-06
1.31427385891e-05
-2.51424564908e-06
1.74118787011e-05
-3.13960976941e-06
2.30754947194e-05
-3.61504404637e-06
3.05791666302e-05
-3.45587427251e-06
4.07150669967e-05
-1.83594558248e-06
5.43350572817e-05
1.70154424306e-06
7.23678087472e-05
6.06646682406e-06
9.6433190508e-05
7.50445254981e-06
0.000123767109866
5.78367459338e-06
0.000154513712223
2.24584217773e-06
0.000185465209957
0.00021781291315
-1.35941736178e-07
5.17132264913e-08
9.15882149774e-07
9.6100837788e-08
1.47885278868e-06
1.55909057594e-07
2.19956591653e-06
2.1617170653e-07
3.11684708625e-06
2.80178404873e-07
4.29237310006e-06
3.41976043598e-07
5.79064617597e-06
4.1423825301e-07
7.71036479718e-06
5.09814915794e-07
1.01699718549e-05
6.58415494975e-07
1.33452008157e-05
9.16021097928e-07
1.74501726888e-05
1.38019731239e-06
2.27609832994e-05
2.19280619882e-06
2.95887340167e-05
3.60328033305e-06
3.84440976213e-05
5.77028560887e-06
4.99667845238e-05
8.47616724805e-06
6.49568061972e-05
1.11492932459e-05
8.45046661404e-05
1.09503159934e-05
0.00010863583438
8.5827622026e-06
0.000136300749958
3.93654707667e-06
0.00016847404918
0.000204377695088
-5.5801748525e-08
1.62024278616e-07
9.13561522756e-07
3.15551387075e-07
1.47471368189e-06
5.32686714218e-07
2.19199326631e-06
8.17512972037e-07
3.10586449955e-06
1.17511049268e-06
4.27250333963e-06
1.60240356751e-06
5.75552180668e-06
2.0966006497e-06
7.64073716184e-06
2.65636782072e-06
1.00302306062e-05
3.30630379181e-06
1.30555847508e-05
4.10292822367e-06
1.68693166716e-05
5.22446436742e-06
2.15722720705e-05
6.78673795232e-06
2.74447104584e-05
8.69970529442e-06
3.50497557109e-05
1.0913484745e-05
4.47123659294e-05
1.32532012626e-05
5.69780401341e-05
1.53702915399e-05
7.27600569095e-05
1.56531213635e-05
9.38798671045e-05
1.29650989392e-05
0.000120612666797
7.48123600136e-06
0.00015376469957
0.000194200235173
1.05122434657e-06
2.52301119167e-07
8.90309826451e-07
4.91036783325e-07
1.43724843499e-06
8.30917315045e-07
2.13656962866e-06
1.28518447998e-06
3.02844934606e-06
1.86809583825e-06
4.16458558191e-06
2.5898154743e-06
5.6052727504e-06
3.45892114688e-06
7.42737106628e-06
4.48030131228e-06
9.72247364294e-06
5.6565191045e-06
1.26065155951e-05
6.98393483954e-06
1.62162279617e-05
8.35056719986e-06
2.07218590594e-05
9.6555875137e-06
2.63234451403e-05
1.10249884768e-05
3.32285324516e-05
1.27730870207e-05
4.13855649897e-05
1.44346981307e-05
5.19086538262e-05
1.55789086586e-05
6.55218602604e-05
1.64598815004e-05
8.34928206711e-05
1.51539344239e-05
0.000109180194811
9.95441095341e-06
0.000144328822955
0.000190570636911
1.59202535888e-06
2.45192119522e-07
8.98401146477e-07
4.79107812851e-07
1.44996388611e-06
8.13263445059e-07
2.15556979254e-06
1.26306176572e-06
3.05556151258e-06
1.84412733801e-06
4.20027395633e-06
2.56949449703e-06
5.6486330259e-06
3.45071147389e-06
7.47238816194e-06
4.49656351089e-06
9.75565542421e-06
5.71670167619e-06
1.25996356101e-05
7.11844152129e-06
1.61239642268e-05
8.70114354849e-06
2.04779939688e-05
1.04426860061e-05
2.5846075183e-05
1.22209862837e-05
3.24649461488e-05
1.34607292537e-05
4.06464513249e-05
1.41507353937e-05
5.08149663222e-05
1.41304071658e-05
6.37444623482e-05
1.31536503592e-05
8.08190935979e-05
1.14101307596e-05
0.000105050162742
7.86721455349e-06
0.000140555252723
0.000191832144606
1.02762075861e-06
1.93192415989e-07
9.50371051999e-07
3.76338228248e-07
1.53333354091e-06
6.37771175084e-07
2.27917371085e-06
9.89674203302e-07
3.22968135734e-06
1.44283367154e-06
4.43723352339e-06
2.00586446928e-06
5.96165657711e-06
2.68325220192e-06
7.87580678062e-06
3.47528774205e-06
1.02623946574e-05
4.37390842212e-06
1.32229532031e-05
5.34859723109e-06
1.68874112964e-05
6.37723597077e-06
2.13838554788e-05
7.428902492e-06
2.68871685203e-05
8.4829463893e-06
3.35995082418e-05
9.50202571788e-06
4.18131113642e-05
1.03265291032e-05
5.20286718358e-05
1.06975836993e-05
6.50917504542e-05
1.01475717363e-05
8.26204306151e-05
8.03419003124e-06
0.000107824935235
4.56493414624e-06
0.000144336596558
0.000197404489966
-2.88012248906e-07
1.10675189355e-07
1.04334249479e-06
2.19203079779e-07
1.68265429354e-06
3.73172591897e-07
2.49929208737e-06
5.77375638053e-07
3.53889790171e-06
8.34312816751e-07
4.85740081283e-06
1.13994270409e-06
6.52088658976e-06
1.48388730193e-06
8.60677559295e-06
1.84632709107e-06
1.12047711655e-05
2.20497421186e-06
1.44177146572e-05
2.54961643162e-06
1.83647820295e-05
2.85544876324e-06
2.31890973297e-05
3.10835961507e-06
2.90604920023e-05
3.27447961301e-06
3.62044476173e-05
3.3049652598e-06
4.49383569606e-05
3.18899578928e-06
5.57533761003e-05
2.92302739377e-06
6.95446059968e-05
2.51197464632e-06
8.80156847432e-05
1.55814914982e-06
0.000114789975087
7.50223590946e-08
0.000152558142319
0.000203830885347
-2.0252880412e-06
1.16050631503e-08
1.1808301617e-06
2.01403611864e-08
1.90248972314e-06
3.01736325297e-08
2.82152852393e-06
3.88740847568e-08
3.98762034257e-06
4.06777699541e-08
5.4609352536e-06
2.5941763795e-08
7.31210036014e-06
-1.94921281409e-08
9.62342534115e-06
-1.14256458877e-07
1.24901392436e-05
-2.79950839738e-07
1.60225232695e-05
-5.38536495165e-07
2.03497154664e-05
-9.08649218567e-07
2.56262459276e-05
-1.41151011601e-06
3.20420872548e-05
-2.06066915844e-06
3.98428745522e-05
-2.8568903366e-06
4.93737198436e-05
-3.78190766247e-06
6.11670556304e-05
-4.71969429161e-06
7.61073116337e-05
-5.45467482063e-06
9.5883201851e-05
-5.67827811032e-06
0.000123983346016
-4.64387071369e-06
0.000161535582321
0.000208752489091
-2.63113739237e-06
-7.24384542585e-08
1.34613978318e-06
-1.41026815775e-07
2.16585531583e-06
-2.41077766e-07
3.206191049e-06
-3.8077526013e-07
4.52104033934e-06
-5.71152549623e-07
6.17519917904e-06
-8.27130101975e-07
8.24460533536e-06
-1.16779930006e-06
1.08178318164e-05
-1.61590211018e-06
1.39979548794e-05
-2.19615593002e-06
1.79055536583e-05
-2.93288181317e-06
2.26835218328e-05
-3.84721255254e-06
2.85037151124e-05
-4.95255809282e-06
3.55745609389e-05
-6.25378895082e-06
4.41690300864e-05
-7.7265172887e-06
5.46532581133e-05
-9.28655915935e-06
6.75670231113e-05
-1.07380629763e-05
8.37611541528e-05
-1.18828218774e-05
0.000104948563549
-1.13061117088e-05
0.00013324825977
-8.1352199629e-06
0.000169079405435
0.000210909424209
-2.44403432702e-06
-1.25197585062e-07
1.52341823779e-06
-2.42843860446e-07
2.44828491142e-06
-4.13012804854e-07
3.6189537838e-06
-6.47299236773e-07
5.09409502122e-06
-9.60260468719e-07
6.94391032192e-06
-1.37058674407e-06
9.25076109603e-06
-1.90116784397e-06
1.2110372175e-05
-2.57892158304e-06
1.56351094556e-05
-3.43219913771e-06
1.99565659644e-05
-4.48841608206e-06
2.52321665365e-05
-5.76676045216e-06
3.16473436051e-05
-7.27597174051e-06
3.94282165285e-05
-9.00100331453e-06
4.8858819686e-05
-1.08810138381e-05
6.03032952329e-05
-1.27730729553e-05
7.42686022659e-05
-1.43951160211e-05
9.15043427678e-05
-1.5445558304e-05
0.000113675038803
-1.41064044875e-05
0.000141131641065
-9.58933164882e-06
0.000174234919075
0.000210490538218
-1.96602497011e-06
-1.46697612149e-07
1.69929345969e-06
-2.85555039497e-07
2.72887546066e-06
-4.85899173725e-07
4.02972263662e-06
-7.60692326921e-07
5.6659986323e-06
-1.12565256486e-06
7.71384654639e-06
-1.60092896632e-06
1.02631622731e-05
-2.21138672355e-06
1.34177031992e-05
-2.98668748287e-06
1.72997071387e-05
-3.95807255489e-06
2.2051213578e-05
-5.15461728365e-06
2.78419564117e-05
-6.59335415192e-06
3.48655079449e-05
-8.27773724975e-06
4.3359292888e-05
-1.0173055525e-05
5.35973609518e-05
-1.2193471242e-05
6.59210621729e-05
-1.41631028496e-05
8.07684962592e-05
-1.58192897948e-05
9.8794472871e-05
-1.63502653408e-05
0.000121047378445
-1.44995939e-05
0.000147093795979
-9.50027112196e-06
0.000177001865618
0.000208224989266
-1.5782940967e-06
-1.50484490682e-07
1.86467080406e-06
-2.90902563674e-07
2.99325942529e-06
-4.93494502549e-07
4.4178365103e-06
-7.71319012505e-07
6.20860961574e-06
-1.13974499389e-06
8.4479748251e-06
-1.61870564521e-06
1.1234320584e-05
-2.23283696912e-06
1.46798172701e-05
-3.01205657716e-06
1.89164429506e-05
-3.98819527605e-06
2.4095390113e-05
-5.18804667814e-06
3.03933785777e-05
-6.62633459125e-06
3.80085593006e-05
-8.29193978575e-06
4.71714922095e-05
-1.013241667e-05
5.81323154697e-05
-1.20397962055e-05
7.1186526308e-05
-1.38272383396e-05
8.6685308293e-05
-1.53150763247e-05
0.00010524428668
-1.53337309276e-05
0.00012682067389
-1.32484886549e-05
0.00015118217527
-8.49428550696e-06
0.000177970425027
0.00020503043557
-1.35831587935e-06
-1.38167673256e-07
2.0143707505e-06
-2.67838790657e-07
3.23311260261e-06
-4.5495393859e-07
4.77101438066e-06
-7.11429306228e-07
6.70437624509e-06
-1.05120355032e-06
9.12227909726e-06
-1.49242702354e-06
1.21320715935e-05
-2.05779219881e-06
1.5854829887e-05
-2.77559283805e-06
2.04321550312e-05
-3.6764465268e-06
2.60228799468e-05
-4.78463159263e-06
3.2806059735e-05
-6.1115757902e-06
4.09787871937e-05
-7.63415775397e-06
5.07488373898e-05
-9.29055861192e-06
6.23327591687e-05
-1.09644870001e-05
7.59631073681e-05
-1.25034365207e-05
9.19230466239e-05
-1.34437978347e-05
0.000110452919314
-1.30596278754e-05
0.000131105478406
-1.09786009442e-05
0.000153756902879
-6.83885180727e-06
0.000177780307667
0.000201595290428
-9.58343250256e-07
-1.19034795006e-07
2.14614712774e-06
-2.30919058748e-07
3.44467288804e-06
-3.92453669694e-07
5.08359580432e-06
-6.1348071125e-07
7.14470822082e-06
-9.06174891685e-07
9.72459631205e-06
-1.28551691443e-06
1.29389731648e-05
-1.77096403056e-06
1.69185853667e-05
-2.3878799565e-06
2.18150386393e-05
-3.16331255828e-06
2.77924676869e-05
-4.120085175e-06
3.50304706241e-05
-5.26241448572e-06
4.37134418418e-05
-6.56128251115e-06
5.40190376368e-05
-7.95038860104e-06
6.61192592539e-05
-9.32992852764e-06
8.01896355492e-05
-1.05247374012e-05
9.6390958796e-05
-1.09312034608e-05
0.000114456816675
-1.03037895553e-05
0.000134162904041
-8.38410425245e-06
0.000155215962738
-5.02408295479e-06
0.000176973740432
0.000198588877834
-7.27546881832e-07
-9.91290909621e-08
2.26050727595e-06
-1.90898105062e-07
3.62829939527e-06
-3.23553750738e-07
5.35595602593e-06
-5.0464452603e-07
7.52971498784e-06
-7.43564812817e-07
1.02534470197e-05
-1.05176203816e-06
1.36512198766e-05
-1.44462533153e-06
1.78638288697e-05
-1.9421150385e-06
2.30520992901e-05
-2.56714819436e-06
2.93856311037e-05
-3.3400500595e-06
3.70421775556e-05
-4.25973130231e-06
4.61837200434e-05
-5.29374370235e-06
5.69493751985e-05
-6.38114783609e-06
6.94637209585e-05
-7.41893130009e-06
8.38252013344e-05
-8.03853015068e-06
9.98750695598e-05
-8.03186507337e-06
0.000117422798642
-7.25855545547e-06
0.000136214518909
-5.58101123409e-06
0.000155870473243
-3.04420999159e-06
0.000175899677261
0.000196291206576
-3.92739935004e-07
-7.4236184239e-08
2.35969726471e-06
-1.47223868069e-07
3.78850318305e-06
-2.5211903065e-07
5.59371343639e-06
-3.94089005941e-07
7.8661251588e-06
-5.8015565398e-07
1.07170595529e-05
-8.18925553688e-07
1.42789749976e-05
-1.12211728934e-06
1.87028053994e-05
-1.50405747135e-06
2.41577904153e-05
-1.98344732709e-06
3.08201046699e-05
-2.57465358358e-06
3.88605312307e-05
-3.27530653883e-06
4.84152326371e-05
-4.06019407759e-06
5.95822533057e-05
-4.84971367642e-06
7.24017489876e-05
-5.40163646807e-06
8.67669759944e-05
-5.58196914665e-06
0.000102567289062
-5.30038425421e-06
0.000119588983003
-4.51491674033e-06
0.000137560353664
-3.19104494434e-06
0.00015606806881
-1.50526788763e-06
0.000174852188436
0.000194495495879
-8.54067157324e-08
-5.75077364823e-08
2.44645731273e-06
-1.13621109633e-07
3.92856932959e-06
-1.93787657148e-07
5.80194406215e-06
-3.02758420004e-07
8.16285495627e-06
-4.43642081181e-07
1.11266628672e-05
-6.20190799857e-07
1.48336089982e-05
-8.40093655922e-07
1.94464021292e-05
-1.11203444393e-06
2.514228741e-05
-1.45072819297e-06
3.21061168341e-05
-1.8670595486e-06
4.04993655399e-05
-2.34654729537e-06
5.04148432503e-05
-2.81815617825e-06
6.1863201667e-05
-3.15784590905e-06
7.47906602206e-05
-3.27796799206e-06
8.90792696398e-05
-3.12334717771e-06
0.000104600402275
-2.66644478324e-06
0.000121118459267
-1.91084310898e-06
0.000138353882398
-9.61370590836e-07
0.000155983539967
-2.00279293381e-07
0.00017407182945
0.000193146880194
1.61992906038e-07
-4.8688295063e-08
2.52728547771e-06
-9.41437730646e-08
4.05861686971e-06
-1.57823277923e-07
5.9946319711e-06
-2.41413342117e-07
8.43551284558e-06
-3.45697174255e-07
1.15014710158e-05
-4.7310489214e-07
1.53417463337e-05
-6.22856003913e-07
2.0124280651e-05
-7.98606728664e-07
2.60387253431e-05
-1.00261576953e-06
3.32717676074e-05
-1.22847481281e-06
4.19678431766e-05
-1.44115810008e-06
5.21636363728e-05
-1.57217515217e-06
6.3791684277e-05
-1.54538607898e-06
7.6742440242e-05
-1.33233284003e-06
9.0902049278e-05
-9.32624145112e-07
0.000106129937642
-3.86253481178e-07
0.000122202450467
2.6564165071e-07
0.000138837935672
7.37471915765e-07
0.000155881436284
7.63183336621e-07
0.000173590790027
0.000192219703918
3.1889568968e-07
-4.09882408438e-08
2.6033953725e-06
-7.92063855027e-08
4.18043565607e-06
-1.32651815066e-07
6.17555955436e-06
-1.99847203126e-07
8.68944028908e-06
-2.80978703839e-07
1.18495713004e-05
-3.70794435984e-07
1.58069048973e-05
-4.66406623364e-07
2.07401643781e-05
-5.61049986221e-07
2.68430693224e-05
-6.46328865905e-07
3.43033469864e-05
-6.99704030371e-07
4.32389306454e-05
-6.76072315799e-07
5.36268813567e-05
-5.23685476128e-07
6.53393043042e-05
-2.11176154096e-07
7.82416047053e-05
2.64218866967e-07
9.22260072675e-05
8.12383460796e-07
0.000107164865466
1.41941017555e-06
0.000122841158523
1.87745227824e-06
0.000139054857404
1.88081040326e-06
0.000155830291133
1.36902775186e-06
0.000173215374624
0.000191456488501
3.98270049264e-07
-4.22927073216e-08
2.67728116141e-06
-7.76803238805e-08
4.29893230189e-06
-1.25117206528e-07
6.34957975264e-06
-1.83892025392e-07
8.93329483096e-06
-2.51610440916e-07
1.21812268803e-05
-3.2215850592e-07
1.624737163e-05
-3.86870679195e-07
2.13157385301e-05
-4.31159605998e-07
2.75810769724e-05
-4.34681102041e-07
3.52256151554e-05
-3.56379944022e-07
4.43286356911e-05
-1.46201206867e-07
5.48154322741e-05
2.41324840392e-07
6.65128361691e-05
7.6536977786e-07
7.93050786089e-05
1.39836011751e-06
9.31041409005e-05
2.03913104222e-06
0.000107792145623
2.57497615051e-06
0.000123167960698
2.72720900461e-06
0.000139212471083
2.35121394057e-06
0.000155814864683
1.43638204021e-06
0.000172941950425
0.000190652627019
2.68908241749e-07
-4.17728943716e-08
2.74778034094e-06
-7.77767678553e-08
4.41157135758e-06
-1.26022746268e-07
6.51476351761e-06
-1.85066023012e-07
9.16354504476e-06
-2.5111491172e-07
1.24916557085e-05
-3.17225018165e-07
1.6656016778e-05
-3.70482231256e-07
2.18415425995e-05
-3.92589817332e-07
2.82422843768e-05
-3.49679298709e-07
3.60197999219e-05
-1.90620577254e-07
4.52104836827e-05
1.42371420844e-07
5.56939912531e-05
6.48997953268e-07
6.72992382267e-05
1.28509510991e-06
7.99432737199e-05
1.95930669856e-06
9.35554744531e-05
2.5618886858e-06
0.00010802821193
2.86252918148e-06
0.000123290028286
2.707571207e-06
0.000139246832263
2.08699205374e-06
0.000155647734501
1.06610150501e-06
0.000172415225504
0.000189368171874
6.7320969862e-08
-4.10419528893e-08
2.81478490501e-06
-7.68762078707e-08
4.51818816066e-06
-1.24951824931e-07
6.67093779266e-06
-1.83301705821e-07
9.38011870617e-06
-2.47904352526e-07
1.27816531209e-05
-3.10054733005e-07
1.70327074371e-05
-3.56435782627e-07
2.23185827076e-05
-3.62083833248e-07
2.88226288068e-05
-2.84803982751e-07
3.66773143253e-05
-6.61141936836e-08
4.58692791483e-05
3.35584718212e-07
5.6260015484e-05
8.91080057401e-07
6.77204989201e-05
1.513983893e-06
8.01975780543e-05
2.10352763347e-06
9.36373523415e-05
2.45931775304e-06
0.00010802917391
2.46001669872e-06
0.000123216381157
2.02856332048e-06
0.000139060577435
1.23194157023e-06
0.00015518417286
2.44125797642e-07
0.000171421516404
0.000187246535193
-3.0104638689e-07
-3.7763082205e-08
2.88068722054e-06
-7.11887000681e-08
4.6235619238e-06
-1.15411742439e-07
6.82486549926e-06
-1.68810631108e-07
9.5936043905e-06
-2.26333781601e-07
1.30660773213e-05
-2.80064769908e-07
1.74004294466e-05
-3.16270451733e-07
2.27782013559e-05
-3.11077267623e-07
2.93675166011e-05
-2.20641824746e-07
3.72609589062e-05
9.23654957848e-09
4.64015909115e-05
4.08644994991e-07
5.6665456699e-05
9.08099580443e-07
6.79781798618e-05
1.39569893787e-06
8.03348121811e-05
1.73260448216e-06
9.36889291538e-05
1.80440647405e-06
0.000108014152631
1.56595823992e-06
0.00012309549202
9.51414974577e-07
0.000138804213121
1.02745978046e-07
0.000154557319052
-6.34930008926e-07
0.000170057735849
0.000184425016119
-5.54030867126e-07
-2.64347201248e-08
2.93759644262e-06
-4.83697993122e-08
4.71473993519e-06
-7.63621452133e-08
6.95805137661e-06
-1.08067441803e-07
9.77800088341e-06
-1.38225310556e-07
1.3311122419e-05
-1.58370908433e-07
1.77152569799e-05
-1.55317386415e-07
2.31675322347e-05
-1.07363808959e-07
2.98185751458e-05
2.19698067642e-08
3.77211290327e-05
2.77275327484e-07
4.67835302908e-05
6.44822252576e-07
5.69211856575e-05
1.05541768955e-06
6.81066266872e-05
1.39523430334e-06
8.03733287074e-05
1.57135332671e-06
9.36599080435e-05
1.48172250953e-06
0.000107944490662
1.1079957387e-06
0.000122931417234
4.15575252183e-07
0.000138506081239
-3.94813928339e-07
0.000153863355618
-9.90380955164e-07
0.000168532887481
0.00018150867652
-6.86685800595e-07
-6.69256163984e-09
2.97594839768e-06
-1.14547566135e-08
4.77619522642e-06
-1.5879024426e-08
7.04813576163e-06
-1.66836441312e-08
9.90234981666e-06
-1.02153350437e-08
1.34769330193e-05
1.05713589648e-08
1.79276302158e-05
5.50334869958e-08
2.34311860141e-05
1.34937079355e-07
3.01266572168e-05
2.67925035657e-07
3.80403444912e-05
4.70067233348e-07
4.70506287669e-05
7.40637754628e-07
5.70836862788e-05
1.0433098863e-06
6.8146349129e-05
1.30184814436e-06
8.03092906528e-05
1.44534068453e-06
9.35042856849e-05
1.43589327459e-06
0.000107677413368
1.14474644599e-06
0.000122626330628
7.81315666481e-07
0.000137900825899
3.42582120596e-08
0.000153193281825
-2.05797452018e-07
0.000166904054975
0.000179496401733
-4.29203166717e-07
1.30979931265e-08
2.64510128421e-08
4.95460523286e-08
8.62752200034e-08
1.45373518447e-07
2.34430241439e-07
3.69372067739e-07
5.61984828554e-07
8.29239135166e-07
1.15173852117e-06
1.50591854536e-06
1.80661492187e-06
2.08357440693e-06
2.18794883218e-06
2.26499128743e-06
2.02872127579e-06
1.86226219891e-06
1.23209044088e-06
1.0473599318e-06
1.78121651512e-07
1.19704804602e-06
4.42811119218e-05
4.05209070814e-05
2.03135901475e-06
4.6250067034e-05
4.23241074799e-05
2.05049853903e-06
4.77813523973e-05
4.37957937139e-05
1.93027527118e-06
4.86730049785e-05
4.48297995976e-05
1.1895472955e-06
4.84079178734e-05
4.48947653478e-05
5.2985626836e-07
4.72159052803e-05
4.41616642623e-05
-1.3062198746e-07
4.53640371196e-05
4.27491539392e-05
-1.61999846564e-07
4.35200735927e-05
4.13561240543e-05
3.59466300661e-07
4.23365361953e-05
4.06792478586e-05
5.95036212734e-07
4.21102234882e-05
4.07089672375e-05
3.41729995786e-07
4.26190238105e-05
4.1215980963e-05
-5.42530054388e-07
4.34850051045e-05
4.16419303681e-05
-1.25762378206e-06
4.37618502678e-05
4.16592836013e-05
-1.32889486567e-06
4.36860852852e-05
4.1661858085e-05
-1.09091309266e-06
4.3484897865e-05
4.17571752468e-05
-7.67481226039e-07
4.32339656216e-05
4.1938460338e-05
-5.71015166839e-07
4.29348882382e-05
4.20791444781e-05
-4.74430989634e-07
4.25404766021e-05
4.21071906509e-05
-3.46981544151e-07
4.22161597428e-05
4.20776432017e-05
-2.52678857401e-07
4.1859131339e-05
4.197381678e-05
-1.15639466558e-07
4.15397097942e-05
4.1846982458e-05
2.59571627822e-08
4.12563885845e-05
4.17323042768e-05
1.09541750633e-07
4.10297447904e-05
4.16042503956e-05
1.92118837296e-07
4.08306596975e-05
4.15293725371e-05
1.82136382154e-07
4.06884386981e-05
4.14374930195e-05
1.30850044816e-07
4.04665837484e-05
4.13260674246e-05
-1.82125169275e-09
4.01625246754e-05
4.10974688145e-05
-1.71108736773e-07
3.96419614405e-05
4.07053144901e-05
-2.89485217683e-07
3.90357793847e-05
4.02419402611e-05
-3.53927457407e-07
3.83936514489e-05
3.9716472273e-05
-1.73091534332e-07
3.77903004649e-05
3.93041007429e-05
4.32565796038e-08
)
;

boundaryField
{
    inletfuel
    {
        type            calculated;
        value           nonuniform 0();
    }
    inletair
    {
        type            calculated;
        value           nonuniform 0();
    }
    outlet
    {
        type            calculated;
        value           nonuniform List<scalar> 
26
(
1.33089890506e-07
4.00645328199e-07
6.68563279577e-07
8.02078534935e-07
2.99118216911e-06
4.80047973765e-06
7.0821420483e-06
9.94832210234e-06
1.3533670279e-05
1.79964536965e-05
2.35059873584e-05
3.0204158523e-05
3.80990307061e-05
4.70756883593e-05
5.70485777741e-05
6.80896184454e-05
8.01628475224e-05
9.33818151523e-05
0.000107401167929
0.000122450168915
0.000137414259186
0.000152907476056
0.000165901005717
0.000178828032758