/*--------------------------------*- C++ -*----------------------------------*\
  =========                 |
  \\      /  F ield         | OpenFOAM: The Open Source CFD Toolbox
   \\    /   O peration     | Website:  https://openfoam.org
    \\  /    A nd           | Version:  7
     \\/     M anipulation  |
\*---------------------------------------------------------------------------*/
FoamFile
{
    version     2.0;
    format      ascii;
    class       volScalarField;
    location    "0.08";
    object      Qdot;
}
// * * * * * * * * * * * * * * * * * * * * * * * * * * * * * * * * * * * * * //

dimensions      [1 -1 -3 0 0 0 0];

internalField   nonuniform List<scalar> 
815
(
32757800.0268
32606271.0476
32626347.5466
52033483.9582
52314090.4037
52305779.6832
12416330.2286
12409398.2312
12416730.7948
4502214.50976
4502077.36649
4494316.73397
2169732.87141
2163273.02735
2153771.63687
1183885.53652
1180921.47237
1173630.36825
672237.052909
669502.300335
664616.026958
368772.798551
368055.98222
365179.726976
189519.816176
188985.573689
187429.200084
89096.5035558
88983.8897755
88263.4418861
40646.9635694
40546.8310515
40197.6123029
19675.2514081
19611.8992023
19434.5625232
11315.0548251
11266.9869135
11151.6931223
7804.0808279
7763.40015259
7678.74159297
5967.12507881
5940.34527297
5878.02845948
4727.7267386
4705.07236977
4658.29990472
3725.28971016
3710.67352281
3678.02188621
2878.37188024
2868.63319802
2846.32513602
2161.29834897
2155.1044733
2140.48615651
1570.44097636
1566.71444862
1557.56887311
1102.2467293
1100.25283732
1094.81572716
747.462716417
746.098580589
742.93584913
488.833707353
488.277427416
486.650296867
309.549692007
309.204408095
308.36098218
189.688678597
189.567594254
189.197698305
113.10199194
113.052918552
112.893250462
66.2743174028
66.2530376382
66.1861827266
40.0725308052
40.0572098722
40.0221557635
29.8363230824
29.8262439678
29.7993781761
26.3575420925
26.3785375984
26.3919185184
13.8511104699
13.8699680635
13.8978603128
32642102.9443
52108106.9067
12391998.797
4482693.89509
2139276.81795
1163674.9966
657492.807725
361243.63348
185152.801387
87228.173998
39691.5647681
19187.9589732
10999.5306673
7569.77448539
5799.35544842
4600.67718767
3638.75037278
2820.39898541
2124.21283671
1547.96133136
1089.50957182
740.1513828
485.459537167
307.889658264
189.108667673
112.924387126
66.2395351138
40.0506689126
29.7791887043
26.3948444133
13.9367198892
2536954.33485
1406117.05794
697201.547726
270301.593536
67037.31061
7967.69552185
713.170245769
32866637.8962
33620451.185
34859119.1812
36676547.6164
39299954.1039
43458595.5334
51373184.3758
42515413.4238
27244124.4717
16822002.7772
10189424.0392
6174081.47601
3778734.94192
2319199.6971
1376989.42395
710289.319545
282027.601364
72893.7718216
8734.35257506
735.196492854
51313419.6999
48420421.6227
44205945.707
39099381.3221
33372373.737
27290035.415
21437692.731
16124374.3478
11403857.9342
7669326.93199
4970962.93307
3180498.45586
2050792.28416
1346692.13046
891475.153676
509318.71667
204510.278861
49256.5890869
5642.5483799
500.793893937
12298749.6796
11960539.7894
11377212.3006
10538480.9311
9444947.89622
8129790.26603
6700672.59445
5258188.74422
3906292.73684
2766230.45211
1893967.58807
1280035.48752
870600.223758
607269.071797
432417.7978
267621.39401
108334.752735
25135.6580804
2901.37204215
290.807590921
4441943.62735
4327776.7455
4129970.36949
3834885.41143
3439174.94229
2954016.943
2414009.04519
1871738.30163
1387083.23387
999794.038474
715282.577312
516735.58981
378333.625055
279304.451165
203018.160474
126168.707111
50030.755373
11310.5045585
1474.54947105
192.519858379
2106628.71316
2032096.31056
1914943.25925
1751177.52268
1542753.89387
1298835.81919
1038620.23736
790829.053511
583546.776983
427529.065574
315925.809879
236922.924994
179072.817847
134004.578443
95327.9629901
56222.660723
22006.1938195
5272.49256583
852.554159262
180.043181805
1140246.36069
1088808.92705
1012562.89333
911468.103631
789176.248052
653245.07075
515525.722605
390351.875148
288842.504753
213127.050235
158507.053202
119021.638912
89661.756349
66211.3608349
45084.0416001
25014.269447
10132.2246028
2772.06045427
626.845041199
219.153178142
642094.296318
607933.108187
559246.154103
496935.065323
424805.118719
348000.419454
273414.769567
207556.114602
154452.166155
114203.638901
84506.2007832
62589.3128446
46151.375736
33212.0102924
21991.2984776
12200.8392401
5310.49284592
1768.09683404
610.704641387
293.240797898
352010.009393
331542.34533
303009.131309
267536.363409
227474.133648
185963.284565
146537.369764
112049.96388
83964.6604032
62152.5384643
45629.6273614
33240.5680564
23968.3718259
16913.2840969
11211.4830511
6512.80397133
3191.99059856
1376.82937796
680.299004813
372.110885453
180124.940248
169298.562397
154475.237103
136350.223254
116155.183451
95475.3419763
75913.1454285
58678.6455721
44361.4489115
32934.6892253
24061.1009674
17339.5108214
12365.7208012
8689.01268778
5887.23037887
3693.99130576
2118.4383606
1185.7398686
723.091225959
419.828660705
84830.0331845
79729.5782775
72808.6239517
64418.9758809
55140.3402655
45679.073748
36702.5257409
28701.5973202
21940.7980097
16458.8550394
12162.1076835
8887.38086136
6451.29001472
4647.9873455
3302.60235468
2278.19511119
1526.78324549
1025.38616688
696.249608219
416.458394668
38579.699545
36282.3334027
33184.1190109
29454.8240339
25358.7817868
21190.5972631
17211.3954388
13623.0557935
10555.0566358
8055.52283228
6099.14116444
4607.44263544
3490.67445319
2656.62685019
2021.54698949
1526.56455686
1144.27562226
853.364853292
612.055485708
371.544488887
18643.5975882
17533.3840438
16050.1895025
14290.5518848
12384.282248
10459.3642702
8624.25054936
6960.2883357
5524.43548613
4344.88083554
3412.41239908
2689.69821243
2133.25123859
1700.57842147
1356.63407657
1078.74880464
853.834146159
666.54371075
489.623709601
296.915878624
10672.2241933
10020.4511424
9165.5266365
8172.16381235
7116.13290317
6065.26210221
5072.00266592
4172.65153735
3392.07909973
2742.29764191
2218.22445205
1800.43296024
1465.83767555
1193.96443768
969.648974291
783.50890358
628.229650712
493.000754934
360.230458894
209.792314106
7342.14052012
6892.50775177
6306.50636369
5629.64106503
4914.82668424
4208.02090001
3542.57648305
2940.9695532
2418.02047552
1979.0667943
1618.53475162
1323.67451827
1080.60490652
878.26985615
709.043061654
567.677908854
449.087947289
345.604783681
245.122061096
133.861200675
5634.2982145
5305.62219128
4871.20263847
4361.34511746
3815.55315673
3270.72602237
2755.16551295
2288.40892419
1882.12763137
1538.97096576
1253.54455718
1016.77538427
819.808750722
655.640031351
519.126926963
406.079760372
312.159601944
231.459581791
156.470803042
80.032363216
4482.16525592
4244.06016613
3921.71740882
3532.71405404
3105.1389984
2668.63200848
2248.44190379
1863.26660119
1524.67751765
1236.1026243
994.380139826
793.47086673
627.206191916
490.210502861
378.014295142
286.63700461
212.171698485
149.913310264
95.5848921176
46.0402027449
3557.50184224
3391.05158141
3159.28558898
2870.36561447
2542.21869915
2196.74748468
1855.05550796
1534.64684312
1247.97727263
1000.82290291
793.014995407
621.095990595
480.35768311
366.109434813
274.148870261
200.69266173
142.200373361
95.1364233151
56.8869455641
25.9372236845
2767.10807347
2656.304183
2497.32192393
2292.1262781
2050.3985898
1786.56135421
1516.53673712
1255.55050789
1016.35678439
807.070142122
630.423192038
485.071831101
367.352191463
273.078605192
198.40369879
139.958305185
94.6422683341
59.7897571765
33.4771077933
14.4845164647
2091.15809464
2021.62700202
1918.58711517
1780.59134524
1611.5528694
1419.56690871
1215.16106316
1010.18590781
816.526711967
643.779686346
497.095308529
376.800606608
280.093614408
203.363737932
143.38959168
97.3853815978
62.7907013125
37.4647492038
19.6866492008
8.12560425976
1528.83469416
1488.18011596
1425.62899509
1338.36889773
1226.9538141
1094.85675947
947.897002524
794.076726307
643.232833305
505.319546692
387.124591506
290.205212644
212.427927817
150.934981133
103.357282713
67.5905674814
41.5940193784
23.5020064572
11.655708769
4.61661075292
1079.27780833
1057.41765551
1022.24580424
970.778034259
901.957392629
816.475127546
716.653752408
606.882702754
494.341319629
388.331311029
296.439578161
220.780869089
159.679126838
111.227604802
74.0377819336
46.6761879066
27.4901262977
14.7793416349
6.97241270461
2.67081554937
735.237001505
724.770661116
706.75042525
678.683634477
639.078520127
587.272335227
523.43362506
449.173848144
368.983533004
290.83650292
222.326464859
165.346213303
118.514648426
81.0393879612
52.5088201251
31.9993816173
18.1219083061
9.33384668632
4.22201288711
1.574630696
483.5278487
479.353181229
471.211833239
457.299105604
436.232951894
406.922433242
368.519768077
320.903130855
266.410148666
211.471222657
162.839363572
121.479542033
86.4323433248
58.0789518332
36.713165416
21.7167889683
11.8930925678
5.913204625
2.5859548186
0.943118449562
307.365265656
306.273248736
303.278530666
297.201957939
286.977389625
271.585399632
249.844789045
220.843093725
185.543354405
148.992815744
116.311277426
87.2463072573
61.6169520128
40.7331216984
25.198753131
14.5403432325
7.74919236456
3.74534351282
1.59409608216
0.569652323827
189.194762534
189.377249831
188.759594446
186.607034809
182.209684622
174.749369967
163.13018015
146.245086931
124.492062536
101.773889057
80.9407178497
60.9789327102
42.7073324091
27.8210058301
16.91010278
9.56842206883
4.99399177543
2.36075532939
0.981933932687
0.343038199629
113.166318014
113.707909281
113.977317313
113.551900549
111.989610707
108.693009808
102.783626238
93.3095463622
80.6751830971
67.6374213563
54.7752730484
41.2676340467
28.6439291903
18.4361440865
11.0574553955
6.16712971852
3.16790027591
1.4706792786
0.598616681608
0.202950653389
66.4582496363
66.9524426965
67.3921544283
67.5574183693
67.1879265844
65.8759285441
62.9702145366
57.8311794239
51.0222267457
43.977104192
35.9657949109
26.9658554648
18.5604988169
11.8423106644
7.0379452023
3.88476456554
1.97084850207
0.900252332572
0.35770130233
0.115851743112
40.1647204106
40.4219936934
40.6896636306
40.885165816
40.8769306198
40.3977851632
38.976636863
36.2021715137
32.5366905055
28.365853454
23.0432014172
17.0999429424
11.6754142987
7.40120911805
4.3703649007
2.39310358967
1.2008184679
0.53911450113
0.207619915058
0.0625178291173
29.7421737712
29.673907185
29.6354413367
29.6647983365
29.7401968902
29.6812420533
28.9991737171
26.9486258242
23.4732271349
19.3706270727
15.0330611682
10.8593062491
7.30665636944
4.59040971167
2.69065988336
1.4603722518
0.723317500376
0.317524826031
0.11692767021
0.0312454534036
26.3979916243
26.4445014042
26.6244876436
27.025610034
27.6982497558
28.5334133206
28.9789603248
27.5277902828
22.7689442251
16.5964609132
11.4805153081
7.69693788225
4.95624055821
3.03078672075
1.74290155162
0.92900583259
0.449721109678
0.190067502689
0.0649302225912
0.0143031386834
14.0270448613
14.2411957108
14.5841749401
15.0857395688
15.7735608941
16.6315299566
17.5584077761
18.1510650236
17.3396270644
14.2608737512
10.2060528084
6.71839607505
4.19183945911
2.48883526713
1.3937302159
0.723178800608
0.337502755104
0.134558161984
0.0412726812503
0.00748081700166
195.537443488
40.8614991045
190.482722967
41.1534813176
131.699538271
34.7410834367
89.4104093648
34.544808967
80.6995904135
45.0907247046
98.8737075746
66.5828797907
137.635083888
98.3359878444
189.395246508
135.217778984
235.01651659
162.358143556
250.243037499
157.317596173
220.42977018
105.403314114
179.185644342
113.322915753
102.742827212
29.3788501888
58.9129479897
11.1229381001
36.5593445877
6.05181398074
23.7257825213
3.86988720151
15.3586515178
2.56479840515
9.708273424
1.67271761726
5.99832494396
1.070178976
3.65584765294
0.673134354246
2.21712401676
0.419843858153
1.35128572067
0.262661000896
0.829984739768
0.165013338661
0.51253176418
0.103769779795
0.315219139435
0.0645207032731
0.190092273424
0.0389217280925
0.109973032434
0.0222123341704
0.0591907670693
0.0115816427654
0.0281315709768
0.00526071555283
0.0110829482471
0.00200104099996
0.0036709897616
0.000684754008109
0.00151261831694
0.000326362914971
)
;

boundaryField
{
    inletfuel
    {
        type            zeroGradient;
    }
    inletair
    {
        type            zeroGradient;
    }
    outlet
    {
        type            zeroGradient;
    }
    axis
    {
        type            empty;
    }
    leftside
    {
        type            zeroGradient;
    }
    burnerwall
    {
        type            zeroGradient;
    }
    front
    {
        type            wedge;
    }
    back
    {
        type            wedge;
    }
    procBoundary1to0
    {
        type            processor;
        value           nonuniform List<scalar> 
27
(
11621164.0348
11686376.6227
11802235.4655
12004608.0417
1884956.57516
1016228.7412
453980.858744
154458.838068
33982.6355984
3975.43262258
421.534924335
12459913.7965
13531940.0318
15220875.044
17684530.9072
21173942.5036
26004322.5473
32052339.4181
39553488.8229
43209988.3816
24107846.1689
13485766.5232
7639282.83566
4403318.14256
4403318.14256
122.425665781
26.2873958694
)
;
    }
}


// ************************************************************************* //
