/*--------------------------------*- C++ -*----------------------------------*\
  =========                 |
  \\      /  F ield         | OpenFOAM: The Open Source CFD Toolbox
   \\    /   O peration     | Website:  https://openfoam.org
    \\  /    A nd           | Version:  7
     \\/     M anipulation  |
\*---------------------------------------------------------------------------*/
FoamFile
{
    version     2.0;
    format      ascii;
    class       volScalarField;
    location    "0.08";
    object      T;
}
// * * * * * * * * * * * * * * * * * * * * * * * * * * * * * * * * * * * * * //

dimensions      [0 0 0 1 0 0 0];

internalField   nonuniform List<scalar> 
815
(
2219.45789906
2219.89453644
2221.86073947
2240.77968326
2239.99342597
2237.80561414
2025.89847198
2023.87233658
2019.38134293
1847.57267071
1844.78083662
1838.79384379
1714.09133502
1711.12476431
1704.75174692
1602.01553614
1599.45162465
1593.87566771
1489.75321599
1487.93001333
1483.74328192
1361.45586969
1360.38299596
1357.65647836
1211.09926529
1210.66641613
1209.19114331
1050.62956852
1050.59158271
1049.97464934
905.036008663
905.131105037
904.952801319
790.252615119
790.375461346
790.455352781
709.194260785
709.26058456
709.406261492
654.508074973
654.599260276
654.780054212
617.918960415
618.004524178
618.17994615
592.412961821
592.483443253
592.626004581
573.434279497
573.491463322
573.599620321
558.381626383
558.415616717
558.479572987
545.695564499
545.708760451
545.72943247
534.493169385
534.487724206
534.468738832
524.269858669
524.246199899
524.18941631
514.696022444
514.659270983
514.571320357
505.60604461
505.557129104
505.441679456
496.906322696
496.845683978
496.704966682
488.53725996
488.466698846
488.304301523
480.497929156
480.416900616
480.233502642
472.791122634
472.701298636
472.499997317
465.50840627
465.410850521
465.193729606
458.850025023
458.744821325
458.511337289
452.996138812
452.884275153
452.6380945
448.534499083
448.42258942
448.176881493
2225.0016128
2234.5269559
2012.88005376
1830.31311999
1695.79966208
1586.06835943
1477.8536175
1353.70568631
1206.91964032
1048.89250532
904.543114602
790.459702992
709.571492144
655.023623781
618.422252214
592.825208547
573.747762798
558.565506933
545.754752246
534.438397077
524.106628997
514.445437273
505.277660224
496.505715436
488.074845427
479.975393999
472.217579879
464.890029801
458.185901431
452.295935683
447.835687886
1602.82458122
1305.55371231
917.64153052
565.775160335
380.31833647
318.535018883
310.264657292
2232.54385792
2249.08827809
2269.97796759
2291.96960479
2311.7014888
2323.94094988
2312.58809325
2261.54562325
2180.66161381
2069.220335
1948.33751787
1833.76594995
1725.18269818
1600.72852712
1398.50470042
1027.21782862
611.316407909
393.462569664
323.763902452
315.208677757
2226.8296631
2209.62634687
2184.12322833
2149.34934368
2103.9721315
2046.38165406
1972.27723658
1882.25584667
1780.76021918
1673.66969644
1570.63413981
1481.65476789
1409.07496697
1338.95344554
1221.57063301
943.239232616
570.017515106
380.365221565
325.472392938
322.018832652
1998.17698112
1966.7297988
1922.39486137
1864.7723673
1793.7760567
1710.16287753
1615.78668251
1515.41982741
1415.45248071
1321.76968986
1237.6855165
1164.11428736
1097.23834197
1024.51102765
911.957717384
711.850312117
480.984294766
365.034826264
330.984153644
332.610851762
1811.82175802
1773.30428777
1720.04990197
1652.21517386
1570.8198058
1478.32008473
1379.20587765
1279.95403342
1186.71970078
1102.31090878
1025.89460202
954.516623273
882.216521611
799.540007623
694.346205052
560.790173987
431.410855923
365.153844015
345.675310765
348.70663018
1676.38654032
1636.3857839
1581.55711198
1512.42556052
1430.64008365
1339.58065834
1244.6745447
1152.40588532
1067.32795954
989.803331279
917.042910049
845.315227974
770.199195636
687.81580591
598.227804614
505.565136841
428.262592756
387.782388654
373.334494297
372.325373021
1568.86723878
1533.32472288
1484.48741802
1422.76088464
1349.55318114
1267.88135747
1182.56053161
1099.2102401
1021.62521521
949.910822096
881.522070424
813.651308686
743.989214703
670.987909451
595.651723765
523.666705776
468.636702746
436.799096947
418.210473649
405.457608212
1464.69373078
1436.98216989
1398.61966024
1349.52538646
1290.58521286
1223.82909389
1152.77745902
1081.7702719
1014.22064875
951.089226005
891.292829168
832.82160903
773.869425339
713.114744052
651.229209567
593.207991278
547.539194228
514.26675643
482.616391232
449.235412159
1344.79687596
1325.883288
1299.42726515
1265.06355405
1223.02235761
1174.38307
1121.29058635
1066.65336106
1013.28033413
962.723374345
914.966337674
869.057359736
823.58892396
777.526973804
730.935235091
686.315750492
646.728076089
607.75345816
560.411018555
499.504284411
1201.73575776
1190.71315241
1175.07235834
1154.27369743
1128.13489051
1097.04976042
1062.10475835
1025.02837612
987.797742946
951.806652545
917.658803057
885.288285032
854.241963224
824.074005089
794.271328094
764.69844658
733.96345722
693.917442039
633.850911323
545.475561082
1046.38606092
1040.99771594
1033.11600897
1022.20641305
1007.9711157
990.463556036
970.18088856
948.111176159
925.567589795
903.694463323
883.212537087
864.234165717
846.784834588
830.669799251
815.395364566
799.782336042
780.135963133
745.966072829
680.908630365
574.649212214
903.615232425
901.647277154
898.534383224
893.856172993
887.34261889
878.912615138
868.749833877
857.399168031
845.7127065
834.580119195
824.566294801
815.843042837
808.447965316
802.282664755
796.894540165
790.805169793
779.651973975
752.626231699
690.899790601
583.205152822
790.436694406
790.397523864
790.048240557
789.108594337
787.369964211
784.705354271
781.156921304
776.95337842
772.528074408
768.395993738
764.913673813
762.143811681
760.112329987
758.695389638
757.355091365
754.519636477
746.021822036
722.636586
668.923375068
577.939877565
709.950328958
710.870668484
712.001420432
713.163123751
714.188855813
714.934704168
715.320535131
715.339685762
715.090324424
714.72523005
714.367040981
714.029546791
713.658551816
713.063790069
711.663168757
707.996706645
698.715224708
677.169821545
633.749397869
565.599455228
655.56451413
656.847521513
658.613071865
660.761612927
663.16990107
665.675103771
668.082546039
670.195106756
671.866367693
673.012250064
673.592114851
673.565154253
672.84256978
671.202852965
668.110794062
662.408240086
651.85761634
632.525768551
599.307061817
551.409563879
618.959684743
620.232075091
622.063058303
624.419059607
627.223864147
630.320965801
633.457879964
636.312047981
638.569742941
639.990790321
640.432131314
639.816563808
638.074924316
635.041459026
630.34524013
623.253279833
612.510633706
596.048020618
571.59689703
539.146270473
593.269345164
594.335371015
595.918488404
598.032201618
600.64659569
603.636380299
606.745001542
609.594282522
611.770971864
612.933614931
612.876208062
611.519716056
608.848307183
604.816586874
599.273289603
591.891243006
582.135608856
569.056012926
551.865710753
530.545188815
574.072712966
574.854006327
576.047242606
577.695950317
579.810061824
582.309687369
584.975119904
587.433233828
589.231096489
589.969881374
589.410747845
587.498475181
584.295768466
579.900617542
574.375763192
567.71089895
559.790910244
550.322906296
539.084838525
525.608562425
558.755411087
559.229728847
559.986916403
561.084165261
562.558905832
564.379989003
566.387558716
568.259221452
569.556454155
569.863528866
568.934929345
566.751134999
563.465477551
559.311079476
554.521723785
549.296718966
543.735635636
537.848605791
531.483644778
523.536151595
545.811674419
545.987558063
546.312875213
546.846452318
547.642023623
548.709834213
549.957158987
551.140356499
551.881112408
551.790323304
550.642361135
548.463602237
545.493823393
542.069815811
538.538970299
535.198694183
532.237991534
529.720449415
527.329153356
523.294795496
534.372619879
534.27358786
534.196276734
534.193283528
534.325758728
534.632006105
535.081617304
535.522643541
535.670475915
535.208411735
533.962633742
532.021059703
529.692552252
527.376450779
525.460550321
524.253607981
523.942033672
524.498281248
525.360297879
524.188966583
523.927913394
523.580429396
523.139819867
522.646814329
522.161558686
521.740503522
521.402339504
521.082118534
520.611227684
519.788538751
518.537955032
517.025312009
515.60681237
514.686398829
514.620370384
515.669331433
517.942388686
521.260802025
524.814340234
525.83139613
514.168537003
513.602543679
512.839159148
511.908146069
510.865485378
509.776938873
508.696206996
507.633418586
506.542773702
505.375609238
504.207880425
503.304746728
503.03013233
503.722331365
505.653582394
508.987529925
513.71535414
519.498970795
525.316611305
528.0575546
504.914290397
504.155581379
503.108255316
501.792838727
500.258772547
498.576110594
496.824202328
495.075397329
493.405887001
491.950784822
490.985169501
490.881760887
491.957368007
494.423627636
498.422050592
503.995766271
511.009974335
518.983437836
526.720129692
530.844377953
496.064251319
495.135349517
493.838692791
492.188753387
490.229587469
488.036344327
485.705679311
483.366786474
481.216183331
479.598871136
479.020037302
479.932414494
482.535217383
486.867301071
492.923078146
500.625952709
509.727708852
519.633998999
528.99268746
534.215269157
487.565349481
486.487244452
484.975587816
483.039516933
480.72305603
478.105725019
475.305558821
472.508720286
470.044527873
468.48881627
468.564709512
470.723755327
474.97847783
481.185863662
489.207836926
498.865781237
509.826241745
521.40099591
532.128706333
538.212990717
479.404025465
478.196853223
476.502444513
474.329061531
471.724185053
468.776074253
465.631424017
462.548039298
460.017463175
458.853664011
459.91532058
463.522244704
469.469795804
477.466587185
487.280744649
498.667978522
511.233602569
524.226001814
536.110732272
542.841900302
471.593672964
470.278133321
468.433839592
466.072501677
463.249122403
460.068899137
456.720051956
453.564748879
451.29407035
450.928066238
453.290534633
458.450032118
466.016124231
475.619559646
486.987954534
499.83778347
513.743308601
527.93927922
540.841231267
548.055331994
464.220401828
462.812164868
460.84592537
458.341441095
455.36619461
452.049799058
448.642073333
445.650703792
444.00191377
444.817299569
448.674607076
455.347587613
464.352614088
475.313962889
487.952050617
501.980805647
516.990538431
532.243261981
546.111925264
553.646749203
457.471605436
455.974809352
453.900363303
451.281460919
448.201553546
444.81751446
441.448961218
438.781683739
438.005426528
440.215042804
445.57480978
453.600557677
463.79891954
475.833682869
489.458180378
504.423071514
520.368686321
536.612838398
551.473617183
559.101743324
451.548290057
449.982310908
447.824679968
445.121438517
441.970941277
438.550385127
435.226794504
432.824490383
432.798323139
436.259688336
442.958526278
452.146302511
463.321277849
476.206686666
490.612899017
506.351085273
523.113980631
540.277724036
556.049556629
563.3424348
447.081391381
445.495232641
443.30980922
440.576180996
437.403688923
433.982882903
430.701491867
428.420263205
428.695174485
432.751695689
440.249420461
450.262548633
462.195127023
475.754545197
490.78594926
507.116964051
524.483642092
542.229458529
558.494389816
565.136858163
330.319266766
350.432432706
338.271690917
359.904314899
349.611875096
371.90122313
364.511297617
386.436419648
382.780793233
403.322543589
404.531905616
422.256834342
429.244562279
442.544399303
457.027515087
463.828080835
486.609353034
484.803000059
511.221548559
501.769977329
523.267609242
510.422450564
524.342474597
507.325673178
519.457997974
499.835433619
512.263179624
491.330719398
505.749650717
484.135090536
501.230245301
479.146072407
498.792293644
476.206742094
498.011845787
474.820588703
498.483969305
474.531908292
499.725736101
474.989971117
501.467254792
475.958154306
503.568458298
477.287016293
505.927977016
478.86036437
508.513360271
480.586543154
511.284603926
482.356561474
514.146254489
484.034730077
516.969366785
485.451712987
519.485092809
486.403708164
521.342853715
486.734117559
522.148627547
486.544386095
521.889031822
486.328422867
520.923403879
486.615026514
)
;

boundaryField
{
    inletfuel
    {
        type            fixedValue;
        value           nonuniform 0();
    }
    inletair
    {
        type            fixedValue;
        value           nonuniform 0();
    }
    outlet
    {
        type            zeroGradient;
    }
    axis
    {
        type            empty;
    }
    leftside
    {
        type            fixedValue;
        value           uniform 294;
    }
    burnerwall
    {
        type            zeroGradient;
    }
    front
    {
        type            wedge;
    }
    back
    {
        type            wedge;
    }
    procBoundary1to0
    {
        type            processor;
        value           nonuniform List<scalar> 
27
(
1967.76258898
1971.18286634
1979.073234
1990.20219143
1285.47515216
995.763047258
686.317234696
458.239160349
347.521527939
309.928463651
306.326740659
2015.6503736
2064.32664273
2125.48443118
2191.19343123
2252.41063346
2301.05787821
2336.49805171
2357.93830724
2343.2850413
2253.20373316
2124.21440014
1977.75629306
1812.55574608
1812.55574608
324.91958238
343.066745863
)
;
    }
}


// ************************************************************************* //
