/*--------------------------------*- C++ -*----------------------------------*\
  =========                 |
  \\      /  F ield         | OpenFOAM: The Open Source CFD Toolbox
   \\    /   O peration     | Website:  https://openfoam.org
    \\  /    A nd           | Version:  7
     \\/     M anipulation  |
\*---------------------------------------------------------------------------*/
FoamFile
{
    version     2.0;
    format      ascii;
    class       volVectorField;
    location    "0.08";
    object      U;
}
// * * * * * * * * * * * * * * * * * * * * * * * * * * * * * * * * * * * * * //

dimensions      [0 1 -1 0 0 0 0];

internalField   nonuniform List<vector> 
815
(
(0.129551163013 -1.92863178699e-12 8.15968418748)
(0.338223444311 -4.76097710906e-12 8.2435171609)
(0.533651016833 -3.8572075377e-12 8.30819691139)
(0.0463031383585 -3.89254248792e-11 6.83394746642)
(0.130273809376 -1.11205005237e-10 6.89499117327)
(0.221924577392 -1.89414086828e-10 6.95398249471)
(-0.0108451896172 -1.1060211631e-10 7.20300850147)
(-0.0275616245062 -1.1253666774e-10 7.2575597645)
(-0.0421968646689 -1.19056038724e-10 7.31092364803)
(-0.027658287057 -9.23644799691e-11 8.3478452128)
(-0.0716219389101 -4.68046584495e-11 8.39521888463)
(-0.112478094716 -1.47060166868e-10 8.43524695206)
(-0.0267932456377 -1.02952024699e-10 9.60599814471)
(-0.0718116048932 -9.59459532851e-11 9.65238253977)
(-0.115984094829 -1.14469729755e-10 9.68821998404)
(-0.00666145402839 -1.44006234363e-11 10.2668653387)
(-0.0214614742574 -3.62360109144e-11 10.3127185634)
(-0.039576786367 -5.49068615182e-11 10.3467998498)
(0.0111066320045 -8.18658220509e-12 9.88528315941)
(0.026267042113 -2.30991796433e-11 9.93700085396)
(0.0373200167635 -3.76491484498e-11 9.97921972011)
(0.0219887095652 -6.93620342119e-12 8.92063784498)
(0.0572281572629 -1.98077412522e-11 8.97317562289)
(0.0907950061685 -3.3336989137e-11 9.01725001501)
(0.0292619709646 2.53405897773e-11 7.48233329625)
(0.0765835705092 7.26851933378e-11 7.53724935799)
(0.122277801591 7.89794941686e-12 7.58399474658)
(0.0220230581798 -9.83378646934e-12 6.37992139751)
(0.0581676668906 -2.88810371142e-11 6.42806768065)
(0.0945719173803 -5.54361709329e-11 6.466550563)
(0.0147170880648 5.14328254622e-11 5.81808784737)
(0.0387644194594 -5.2271677161e-11 5.86407898135)
(0.0628489908567 -1.53256302454e-10 5.89823766579)
(0.00493500014466 -2.00197515001e-11 5.74825673217)
(0.0145658844583 -6.39580805022e-11 5.79106333332)
(0.0262248555655 -1.03105534841e-10 5.8198724959)
(0.00141559514537 -3.33598665223e-11 5.8884398337)
(0.00252830122069 -9.20567868516e-11 5.92777955059)
(0.00373235174922 -1.34875703697e-10 5.95310467808)
(-0.00355568030345 -7.87481063808e-11 6.19799221725)
(-0.00955836226423 -2.28980552853e-10 6.23928883076)
(-0.0151704261222 -2.60914709058e-10 6.26542649204)
(-0.00566776392895 -2.97586493213e-11 6.64613257877)
(-0.0149408565974 -8.33060779619e-11 6.68574676411)
(-0.023790382535 -1.26025075712e-10 6.71103003913)
(-0.00577332872719 -2.43581687227e-13 7.12492367446)
(-0.0155419787492 3.87259175519e-13 7.16766662471)
(-0.0252728335709 -9.14384303678e-11 7.19508490392)
(-0.00629620185853 -1.49705000263e-11 7.60212017955)
(-0.0161763873422 -4.3403029124e-11 7.64524936983)
(-0.0253304805935 -7.94386482846e-11 7.67289301345)
(-0.00519550492862 -1.36015695609e-11 8.02580341871)
(-0.0135501967694 -3.88585000913e-11 8.07014759372)
(-0.02146341509 -6.57698489267e-11 8.09818163477)
(-0.00419332558841 -5.00455010683e-12 8.38749865083)
(-0.0109514223594 -1.51350427158e-11 8.43307758055)
(-0.0173716231448 -3.02363270316e-11 8.46124897281)
(-0.00350363328922 4.97458303062e-11 8.67357346454)
(-0.0090483230805 1.45520154415e-10 8.72042255546)
(-0.0141938718162 1.21708054854e-10 8.74863203554)
(-0.0017971177739 3.58283736525e-11 8.89968007107)
(-0.00504269756409 1.03459823623e-10 8.94708846549)
(-0.00845217783581 3.1088717621e-11 8.97465152542)
(-0.00132276854709 2.77515163281e-12 9.06821287538)
(-0.00373805569082 6.43872465249e-12 9.11810476131)
(-0.00623863515494 -1.09026361029e-12 9.1461464263)
(-0.00127235842543 -1.39807926593e-12 9.21399636581)
(-0.00342514735476 -4.10089728991e-12 9.26400361112)
(-0.00547908671335 -7.5689698459e-12 9.29097312225)
(-0.00082876367672 -1.47052355427e-12 9.3418411938)
(-0.00239842447726 -4.1868622192e-12 9.39363602653)
(-0.00399180608851 -6.9843511825e-12 9.42047003991)
(-0.00136919156745 -9.69763979109e-13 9.46526596698)
(-0.00352582814576 -2.61194436434e-12 9.51720338182)
(-0.0052704611084 -3.66578700041e-12 9.54284496291)
(-0.0011263095996 -6.53833623031e-11 9.58329463842)
(-0.00293704163898 -3.14039336927e-11 9.63528728843)
(-0.00448162732486 -8.64494770149e-12 9.65965327905)
(-0.000970934116247 -1.34998719973e-11 9.69506598113)
(-0.00254280006036 -3.34698067336e-11 9.74662162708)
(-0.00392060496317 -5.33995201928e-11 9.76943920694)
(-0.000844021728511 3.24730444474e-11 9.80856700477)
(-0.00225301854132 -8.34876954736e-11 9.85817808512)
(-0.00342348811087 -7.40105899392e-11 9.87820938296)
(-0.000765901670953 -8.65917497022e-11 9.92050185622)
(-0.00191636388797 -1.86537669866e-11 9.96253279212)
(-0.00264350583894 4.51549147733e-11 9.975401186)
(-0.000237626677742 3.88001372791e-11 10.0150781417)
(-0.000635649122509 1.28241966236e-10 10.0432269524)
(-0.000697701043321 -3.62007908412e-11 10.047153305)
(0.000358091198421 -4.75903506636e-11 10.0548120951)
(0.000714157123149 1.98475350971e-10 10.0868907801)
(0.00104229698201 2.11007858343e-10 10.0936696995)
(0.716890101336 2.63680276229e-12 8.34378839388)
(0.312778511375 -1.57980139495e-10 6.99429569301)
(-0.055837015433 -1.30300182069e-10 7.34548935723)
(-0.153171666081 -1.42464224437e-10 8.453590268)
(-0.159541877865 -1.39185430862e-10 9.69943465821)
(-0.0575255271927 -7.08386405609e-11 10.3558497655)
(0.0490403728469 -5.0623462397e-11 9.99837157475)
(0.124741587603 -4.61923386777e-11 9.0410305504)
(0.166879336081 -2.64216734966e-11 7.6126599109)
(0.131234418395 -7.59952115088e-11 6.48921118466)
(0.0861139164127 -1.36092651825e-10 5.91937251378)
(0.0376534062569 -1.20829751266e-10 5.83831503602)
(0.00461757619929 -1.56592715192e-10 5.97023221386)
(-0.0207581839975 -2.33275615452e-10 6.28334879192)
(-0.0326135660053 -1.56047255036e-10 6.72775291102)
(-0.0348165297542 -1.60055878505e-10 7.21257656288)
(-0.03423869729 -1.10847042054e-10 7.68983633939)
(-0.0291615082453 -9.17495257425e-11 8.11479966371)
(-0.0235963974026 -4.87997658429e-11 8.4774207329)
(-0.0190068481191 4.20071331272e-11 8.76435160969)
(-0.012015744069 -2.01597622214e-11 8.98941485649)
(-0.00882801563228 -7.78267368202e-12 9.16086645055)
(-0.00752439814331 -1.08912135113e-11 9.3044834809)
(-0.00570178702247 -9.72372639266e-12 9.43355236251)
(-0.00682713286332 -4.42396785266e-12 9.55474254461)
(-0.00599156178606 9.02488108053e-12 9.67036937109)
(-0.00535958288621 -7.6374111838e-11 9.77884215731)
(-0.00465650963795 -8.47976255941e-11 9.88571036846)
(-0.00340166318444 1.01639624136e-12 9.97929939424)
(-0.00083108065779 -9.9560138834e-13 10.0483506208)
(0.00141656306136 1.5079435693e-10 10.0961931311)
(2.10904534727 -6.75600232514e-12 8.24448701561)
(1.62324446506 1.89537201913e-12 7.89578853778)
(0.840952092601 -7.23463719975e-12 6.61410639634)
(0.36866932732 -8.64982443804e-12 5.16400412257)
(0.219883035694 -5.15499780678e-12 4.36424933538)
(0.135060746946 -2.16387404547e-12 4.15666362815)
(0.0834491254117 -6.30713335292e-12 4.13993857806)
(1.04725109477 2.28931305066e-11 8.36546394921)
(1.48412337659 6.05257265515e-11 8.23967744028)
(1.90437043417 -1.346523166e-11 8.01720617721)
(2.28371360711 -5.07555276254e-11 7.74374768211)
(2.60208551073 -5.14569897634e-11 7.44860823066)
(2.82874718562 -4.20137425623e-11 7.14483855885)
(2.99765383996 -3.21734956259e-11 6.848056992)
(3.16847991555 -3.21072160508e-11 6.5644182497)
(3.34882777938 -6.33805312298e-11 6.29504764422)
(3.52912975558 -4.79261162601e-11 6.09473498371)
(3.7448643576 -2.99909106974e-11 6.04584983003)
(3.87576634674 -2.76189474853e-12 6.22747332305)
(3.70818156244 -1.88136891477e-11 6.67832125128)
(3.22293070566 -1.3012141349e-11 7.39122059476)
(2.03538796399 5.55477759548e-12 8.03122157439)
(0.965403585674 -4.00464895306e-12 7.48759881639)
(0.670267676431 -7.97368369838e-12 5.84074444347)
(0.532605316118 -5.32697682579e-12 4.77256146339)
(0.355343968064 -8.39823004055e-12 4.44855842796)
(0.175599873959 -6.82140594223e-12 4.38269653275)
(0.491732072343 -1.41082266876e-10 7.04237727416)
(0.741354938386 -1.81186764257e-10 7.03091378224)
(0.978935119619 -6.53956191852e-11 6.98168061452)
(1.20572135373 -1.20516693569e-10 6.91453140508)
(1.41579713653 -7.87555021595e-11 6.83722793213)
(1.60574060137 -5.44337613035e-11 6.75154397036)
(1.76893593349 -3.77602350916e-11 6.65373494403)
(1.89821228716 -4.04515925491e-11 6.54315164189)
(1.95754659997 -4.15872449537e-11 6.42772643632)
(1.91563559526 -4.75886470505e-11 6.34173442776)
(1.78280258935 -5.87065587521e-12 6.32845551577)
(1.67786404375 -1.33666047438e-11 6.38696077817)
(1.73521449676 -2.00839187216e-11 6.5493000268)
(1.97860069596 -1.16391893407e-11 6.89031779145)
(1.87663657079 -4.25489393153e-13 7.45523312557)
(1.06848530613 -5.10496055283e-12 7.38775660353)
(0.661408194191 -7.81641079531e-12 6.30559315352)
(0.557907645629 -5.07966660356e-12 5.19323259451)
(0.380744373676 -7.13362503061e-12 4.80634237742)
(0.192806156246 -7.15784822527e-12 4.69506907602)
(-0.0774662778092 -1.58034538469e-10 7.37937776867)
(-0.100707848709 -2.22511853317e-10 7.34518311532)
(-0.118683408831 -1.19539311243e-10 7.26943776703)
(-0.127489778149 -6.23142271014e-11 7.16485190528)
(-0.118722042941 -7.14718306112e-11 7.03761593761)
(-0.0898171157551 -5.41378415697e-11 6.88969996483)
(-0.0432641777673 -3.73708989163e-11 6.72941811909)
(0.0207704695353 -7.91562900226e-11 6.57192241337)
(0.096931050454 -3.51507996781e-11 6.44227021066)
(0.165284344461 -7.3074325535e-11 6.37776604562)
(0.204222783728 -1.22915715694e-11 6.41155228621)
(0.224768637045 -2.48302248314e-11 6.55720608812)
(0.17829452336 -2.46238984359e-11 6.80554589343)
(0.187806839196 -6.10787866677e-12 7.13049713698)
(0.0690582492283 2.0938199035e-12 7.43195158902)
(0.710611313259 -5.01662896777e-12 7.23552278447)
(0.841244023084 2.68222034668e-12 6.41546142579)
(0.561501991112 -4.04601416785e-12 5.566899797)
(0.405378305894 -6.94763590017e-12 5.18965160554)
(0.182970552214 -1.30229129123e-11 5.03362985639)
(-0.223227520166 -1.57849260011e-10 8.45721945921)
(-0.311358220015 -2.13537067193e-10 8.3822318298)
(-0.392259623034 -1.4239470119e-10 8.25944502515)
(-0.463743258942 -1.35153064531e-10 8.09975989114)
(-0.517385520491 -8.28306292967e-11 7.91245381409)
(-0.549206541925 -5.00661070798e-11 7.70558344137)
(-0.561015478831 -3.02039067129e-12 7.50047375459)
(-0.565983985299 -3.93449290943e-11 7.32320197615)
(-0.577696217762 -1.19669994908e-11 7.19788532122)
(-0.602513386034 -5.30369172283e-11 7.13478193917)
(-0.627023976785 -1.93616166326e-12 7.13189385697)
(-0.621561514252 -3.66700568891e-11 7.19245978829)
(-0.595904923472 -3.12954768119e-11 7.29870408139)
(-0.428195217819 9.33014179875e-15 7.44132862005)
(-0.210628215651 1.47203873001e-11 7.50419882887)
(0.292338443432 -4.17904846301e-12 7.35533850222)
(0.438970344272 4.46828967382e-13 6.60256688747)
(0.35706025854 -3.59063261801e-12 5.95020572344)
(0.261327121902 -7.04932542503e-12 5.56460597202)
(0.109641271348 -1.24210194252e-11 5.34772159774)
(-0.239186825188 -1.9306364657e-10 9.68497895132)
(-0.344276391506 -1.42397989389e-10 9.56323742568)
(-0.443026767984 -1.16630549973e-10 9.37253558709)
(-0.534818973534 -1.06251043731e-10 9.12560958867)
(-0.611852196272 -8.45877613053e-11 8.83668226291)
(-0.671170772401 -6.41791167429e-11 8.52157470745)
(-0.712171217446 -4.32156104385e-11 8.21257993439)
(-0.742189328986 -4.04886827554e-11 7.94550466741)
(-0.767223322267 -2.85914468166e-11 7.74898638633)
(-0.78599878546 -2.93726367926e-11 7.62760347348)
(-0.779781744215 -1.31930126409e-11 7.56958608592)
(-0.750168069961 -1.57641072075e-11 7.56101884154)
(-0.703158205517 -2.72681504571e-11 7.56782443023)
(-0.557314472531 -1.76227317688e-12 7.56302785016)
(-0.320826548902 4.5698291594e-12 7.46243319663)
(0.221097680638 -3.12683197861e-12 7.20817949311)
(0.348662523313 -2.52033827463e-13 6.70270101233)
(0.220067529559 -2.43916139672e-12 6.23630868448)
(0.164565443276 2.27666286827e-13 5.89092232034)
(0.0395353724414 -1.20561051733e-11 5.61264164309)
(-0.102194280395 -9.57789364118e-11 10.3388204583)
(-0.163583337992 -1.03411167611e-10 10.2252658878)
(-0.218029646636 -1.07560161049e-10 10.0469300044)
(-0.264068482449 -1.04540728873e-10 9.81463714604)
(-0.298166137746 -9.12076784294e-11 9.53450751479)
(-0.325313514628 -7.3281466199e-11 9.22012953851)
(-0.346816563276 -5.42110617612e-11 8.89994712717)
(-0.368627050461 -4.15780038696e-11 8.61037098136)
(-0.389309803176 -3.09061824943e-11 8.38102619913)
(-0.408463315691 -2.44146544898e-11 8.21704076835)
(-0.405741621925 -1.79704680957e-11 8.10467590329)
(-0.383342012064 -1.79738567651e-11 8.02043580762)
(-0.329125081834 -1.76783027059e-11 7.94298038648)
(-0.182026847039 -3.70062732054e-12 7.85335181352)
(-0.0143536030582 8.09175229817e-13 7.6939321377)
(0.247531974116 -2.10496494053e-12 7.4299505592)
(0.282949278369 6.99019699205e-13 6.9171094252)
(0.192184081791 -9.6344993997e-13 6.57312070723)
(0.106313249478 7.34468541305e-12 6.2010312367)
(-0.0090958616733 -1.1148106347e-11 5.84264477215)
(0.0708302041332 -7.21916637444e-11 10.0018671076)
(0.097122282784 -9.52716928019e-11 9.93257063556)
(0.120056966648 -1.11472754177e-10 9.81591923337)
(0.131756625704 -1.13545614486e-10 9.65856548456)
(0.132346571128 -1.02554964175e-10 9.45963191827)
(0.127611084265 -8.44191729786e-11 9.22544507813)
(0.121969186598 -6.05865872483e-11 8.97214874556)
(0.12045404448 -4.27700444157e-11 8.7273556885)
(0.124489286593 -2.97027644217e-11 8.51614633367)
(0.136026364895 -2.14987422598e-11 8.35122737492)
(0.165270045955 -1.6580567531e-11 8.2294483871)
(0.20951617447 -1.75670186585e-11 8.13633007343)
(0.282260969355 -1.64230787025e-11 8.05520091118)
(0.383856532941 -6.01238277112e-12 7.95164452246)
(0.47107099691 -8.38288374551e-13 7.77480622226)
(0.524288949267 -9.2492252059e-13 7.52944875801)
(0.45639073612 4.37382361693e-12 7.16843818138)
(0.327753792269 7.69713924423e-13 6.90323665958)
(0.16731369733 6.36074798746e-12 6.51684534538)
(0.0112266785073 -8.92300907275e-12 6.06421529749)
(0.188671088255 -6.86977316611e-11 9.06112513336)
(0.274118253773 -9.67998055303e-11 9.04254308598)
(0.356279851958 -1.21990992377e-10 9.00370413903)
(0.4318030896 -1.27316434053e-10 8.94321684893)
(0.496721274061 -1.16805151347e-10 8.85855777538)
(0.546727128396 -9.99998915809e-11 8.74833848138)
(0.580209494005 -6.87940553012e-11 8.61982721961)
(0.59940739812 -4.51215347687e-11 8.48703130499)
(0.611854816449 -2.69769877141e-11 8.36680460395)
(0.625100145787 -1.6454465064e-11 8.27144046309)
(0.655335284981 -9.8607059745e-12 8.20200976441)
(0.711585246979 -1.23475854862e-11 8.14404032947)
(0.767693796371 -1.64438926777e-11 8.07916158619)
(0.810735225955 -6.87730532263e-12 7.98068220393)
(0.818601124205 -1.78147959314e-12 7.83609239713)
(0.799530692967 9.70187713238e-13 7.64557864896)
(0.733410142709 2.01268292602e-11 7.41920272423)
(0.552671863264 4.75733486406e-12 7.20838160915)
(0.298011935617 7.82150716663e-12 6.87971787879)
(0.0721060817729 -6.07725879794e-12 6.33143133642)
(0.249248268509 -6.22630964386e-11 7.64631616513)
(0.362218370423 -6.42541774529e-11 7.66873810214)
(0.475012917559 -1.5898393542e-10 7.6916094466)
(0.585278740753 -1.46814691296e-10 7.71016172254)
(0.689123558286 -1.30996212817e-10 7.7181219596)
(0.782508991114 -1.40779469534e-10 7.71001564922)
(0.862527618968 -7.91689177204e-11 7.68682956068)
(0.927635468979 -4.71866883981e-11 7.65431606006)
(0.979045137063 -2.07048001827e-11 7.62450283652)
(1.01648167818 -7.26264237373e-12 7.60539264877)
(1.03148302463 4.1604059349e-12 7.60403651869)
(1.01874896799 1.18228461737e-12 7.61700635642)
(0.992873045311 -1.97330007021e-11 7.63515599391)
(0.982609082306 -2.48161353116e-12 7.65053524597)
(0.957416287541 -3.35654822783e-13 7.64790789053)
(0.898889777749 2.99202247085e-12 7.6358208128)
(0.814445938366 2.77272365318e-11 7.59628945782)
(0.68392117003 9.2604512147e-12 7.5011783705)
(0.417036955399 1.53331191846e-11 7.25797616511)
(0.104560013616 -3.40794130358e-12 6.68409858403)
(0.198918048012 -1.03955468189e-10 6.51907709601)
(0.291654421124 -1.24921996132e-10 6.56091934559)
(0.386244016865 -1.49010707484e-10 6.61553954756)
(0.481661075383 -1.91234845893e-10 6.67617014868)
(0.575492603548 -1.27438892108e-10 6.73573212686)
(0.664788014039 -1.10167849631e-10 6.78776406178)
(0.746687435376 -7.22661337277e-11 6.82879795226)
(0.820270107342 -4.41628999049e-11 6.85934006535)
(0.884032061077 -6.839175415e-12 6.88381875949)
(0.940805368385 6.32182466043e-12 6.90777532918)
(0.989275508683 3.15811433895e-11 6.93724171835)
(1.02722663786 2.71961220759e-11 6.97758160761)
(1.04982093297 2.93266434094e-11 7.03637296555)
(1.02789308546 1.40355786413e-11 7.11790550875)
(0.957301522284 4.72652735149e-12 7.22013202073)
(0.857585639495 5.51144678599e-12 7.35919925612)
(0.708067412541 2.00554959968e-11 7.53156197348)
(0.527589819266 1.06287238213e-11 7.68948448293)
(0.327362347578 3.93450597541e-12 7.62730153249)
(0.0963125764654 -3.02255125526e-12 7.13887976362)
(0.128401039441 -1.37903852519e-10 5.95036594761)
(0.187644892689 -1.87600515436e-10 6.00623877793)
(0.249383003373 -1.34548599621e-10 6.08099857876)
(0.312704099109 -1.22497433446e-10 6.16905118431)
(0.376004501157 -1.04345761338e-10 6.26436008277)
(0.437507022865 -1.18511983963e-10 6.36091009742)
(0.49512280982 -6.22374414198e-11 6.45316172916)
(0.54653252753 -4.92499884006e-11 6.53818433433)
(0.590678160578 2.30152291542e-11 6.61506598018)
(0.624675194796 1.86371989482e-11 6.68589736753)
(0.64981710753 3.21362249436e-11 6.75094546715)
(0.665466273365 5.42910080943e-11 6.81235970176)
(0.670818154805 2.79110824988e-11 6.87221404586)
(0.669409666517 3.4204444819e-11 6.94117278795)
(0.651547155814 9.88925732887e-12 7.04303657011)
(0.613804107173 7.11609679538e-12 7.20144695323)
(0.535111576019 1.68185026716e-11 7.43391255114)
(0.383773097684 9.97344786765e-12 7.72991347237)
(0.195846705673 4.93755074106e-12 7.86268174568)
(0.0402978172497 -2.72761616419e-12 7.52986115847)
(0.0597404325601 -1.39737520979e-10 5.86880316543)
(0.0900252941366 -1.42421485525e-10 5.93071984231)
(0.121009011401 -1.23273569741e-10 6.01329721451)
(0.152232466954 -9.94071325521e-11 6.11217875938)
(0.182995292422 -7.48610900228e-11 6.22210469998)
(0.211362009393 -5.70873142361e-11 6.33727389699)
(0.23567049435 -3.70091992628e-11 6.45158567994)
(0.253869463409 -1.5895521808e-11 6.56065656809)
(0.264268072484 2.11572937365e-11 6.66153961628)
(0.267924540569 2.60400720019e-11 6.75386746959)
(0.26536700724 3.37345787863e-11 6.83921101336)
(0.256656975433 3.83588704487e-11 6.91797910171)
(0.242645119122 2.244096831e-11 6.99521511648)
(0.222159348435 2.22061497443e-11 7.07951903495)
(0.19471742378 1.12426879003e-11 7.1836061795)
(0.162208121821 5.52296849598e-12 7.32956402701)
(0.133502557192 1.42488978415e-11 7.53278003326)
(0.0696596304716 7.58318037145e-12 7.78851653592)
(0.0388003493155 3.57693877674e-12 7.9407386118)
(-0.0394195751756 -2.37622522615e-12 7.7164813894)
(0.00591132414638 -1.74384387028e-10 6.00065888736)
(0.00758116455846 -1.535274671e-10 6.06427631448)
(0.00910589354906 -1.28837463769e-10 6.14947104153)
(0.00987340079683 -8.87397520362e-11 6.25256752773)
(0.0095831397277 -5.20819527805e-11 6.36871525492)
(0.00703563548722 -2.43877401163e-11 6.49191322167)
(0.00129521707857 -2.19830683655e-11 6.61588607924)
(-0.00822596646773 -6.51283598204e-12 6.73519945915)
(-0.0222153507375 3.41462355566e-11 6.8461168867)
(-0.0407872562231 3.05444220789e-11 6.94705765047)
(-0.0633338334436 3.67603859737e-11 7.03811078317)
(-0.0896473924707 3.62650705489e-11 7.12076155566)
(-0.119014770299 1.68822561016e-11 7.19865566201)
(-0.150172906948 1.876791158e-11 7.27966131388)
(-0.181850397076 1.30890589112e-11 7.37607634605)
(-0.20898346083 -1.8973849509e-12 7.50228686206)
(-0.214891836409 1.23769884718e-11 7.67124493839)
(-0.215044173465 4.8274211199e-12 7.85290340534)
(-0.137479517852 1.80946215911e-12 7.95613245538)
(-0.100772751708 -1.61716552905e-12 7.73957164511)
(-0.0301820782892 -2.57496955841e-10 6.31356186325)
(-0.0439027009481 -1.77915719662e-10 6.37583938866)
(-0.0587802614105 -1.45324259203e-10 6.46027894771)
(-0.0751847307975 -8.48484662823e-11 6.56382589396)
(-0.0934332941712 -3.38956858026e-11 6.68205025597)
(-0.114082806306 1.59288554044e-11 6.80896892854)
(-0.137739206713 -1.46066209123e-11 6.93793532613)
(-0.164863005875 -2.34751021296e-11 7.06254525152)
(-0.195735239677 3.98978587007e-12 7.17778977286)
(-0.230200263391 2.81914582498e-11 7.28057721346)
(-0.267947765007 3.90525520901e-11 7.37004579928)
(-0.308399491035 4.67522858938e-11 7.44629718374)
(-0.349334261359 4.65628707696e-12 7.51284130557)
(-0.387821231113 1.86233084917e-11 7.57492966657)
(-0.421747601511 2.31525740618e-11 7.64056708393)
(-0.438282564544 6.81640348208e-12 7.71794786486)
(-0.432889909741 1.50734850205e-11 7.81437937506)
(-0.39053870334 1.94291964197e-12 7.89648574973)
(-0.248888626491 7.92812908944e-13 7.90954330387)
(-0.124872892713 -4.07842785779e-13 7.6587171457)
(-0.0475148346538 -1.99421518474e-10 6.75592285009)
(-0.0687377728232 -1.8827588894e-10 6.81511838897)
(-0.0917149505718 -2.02583776244e-10 6.89657233857)
(-0.116547998024 -9.2194127671e-11 6.99763426206)
(-0.143572002083 -3.32671523431e-11 7.11427964768)
(-0.173206241946 8.14842816899e-13 7.24064741616)
(-0.205972347622 -6.24835746851e-12 7.36954735741)
(-0.242189543588 -1.74331051885e-12 7.4935975509)
(-0.282120665757 1.20154509072e-11 7.60636252148)
(-0.324989337194 2.18742904046e-11 7.70347033042)
(-0.371938071108 3.61321874049e-11 7.78237387216)
(-0.419637364606 3.64533210008e-11 7.84227534676)
(-0.463867901233 1.60610251206e-11 7.88559188856)
(-0.502450991077 1.65673631665e-11 7.91467465327)
(-0.531258382092 1.48344573489e-11 7.93392051423)
(-0.534238741908 5.51037461594e-12 7.94629066248)
(-0.51517671028 5.12641521966e-12 7.95135953303)
(-0.44687043351 -2.84615618323e-12 7.92987935708)
(-0.287550591207 1.96775668662e-13 7.83565212381)
(-0.122615766643 1.15191355148e-12 7.52211027505)
(-0.0511629880631 -2.72059932101e-10 7.23971564544)
(-0.0744612767868 -1.84157185897e-10 7.29509100579)
(-0.0994536727686 -1.46929313028e-10 7.37240033385)
(-0.126284969516 -9.44594795107e-11 7.46947318457)
(-0.15518036968 -3.25787839661e-11 7.58274327517)
(-0.186633531139 1.74419596372e-11 7.70659851114)
(-0.220984897728 -4.1536754073e-12 7.83348758259)
(-0.258856124021 1.13127063275e-12 7.95501243703)
(-0.300135940219 8.01179505771e-12 8.06299147872)
(-0.344874052474 1.26033187837e-12 8.15145095602)
(-0.393638208222 3.63178892983e-11 8.21532283863)
(-0.440665321017 4.72856161977e-11 8.25387674249)
(-0.483097864734 1.99647958863e-11 8.26651902695)
(-0.518007748237 1.4809780827e-11 8.25424329005)
(-0.540956648989 1.47928692947e-11 8.2185882803)
(-0.538444983948 1.48136264641e-12 8.15958311478)
(-0.506307432819 -1.39749672887e-12 8.07165288001)
(-0.425889939743 -1.36309418649e-11 7.94692885117)
(-0.27792240128 -6.13517052591e-13 7.74593479467)
(-0.106737952025 2.53011898985e-12 7.36687023529)
(-0.049256600787 -1.57301834814e-10 7.71534758602)
(-0.070846689588 -1.64886838453e-10 7.76706193992)
(-0.0941244238239 -1.44778015359e-10 7.84009520754)
(-0.119206296965 -1.35836601297e-10 7.93274112601)
(-0.146101923272 -5.01474429479e-11 8.04190049246)
(-0.175330517108 -1.487799981e-11 8.16230555785)
(-0.207053537912 -1.34376361588e-11 8.28630618907)
(-0.242269578003 -6.77941341812e-13 8.40446022403)
(-0.280019884032 1.01788940156e-11 8.50688364296)
(-0.322783324181 1.82484829919e-11 8.58509987349)
(-0.367468403783 3.43609378874e-11 8.63215974423)
(-0.408708054293 3.87625055755e-11 8.64569044222)
(-0.445735054292 2.14995594647e-11 8.62314231161)
(-0.473549021849 8.65380337482e-12 8.56504497913)
(-0.488900306192 -4.89981473665e-12 8.4712313493)
(-0.483555273183 -6.306796441e-12 8.34133042004)
(-0.446882352617 -3.59637249253e-12 8.17127851344)
(-0.366308094534 -7.21301020006e-12 7.95313708427)
(-0.240867824307 -1.47941380476e-12 7.66168625802)
(-0.0892492137223 2.56949654886e-12 7.22581682499)
(-0.0423032244645 -1.36904310081e-10 8.13898620883)
(-0.0611137951827 -2.02362137947e-10 8.18742379454)
(-0.0812749617689 -1.35802046578e-10 8.25642112504)
(-0.102891687624 -1.04776723424e-10 8.34468603467)
(-0.125996720206 -5.58485994272e-11 8.44960586589)
(-0.150929555653 -3.17934334724e-11 8.5663487156)
(-0.177946254836 -3.81059183603e-11 8.68742732758)
(-0.207906509958 -8.34505232959e-12 8.80263766571)
(-0.240115179893 6.82017697843e-12 8.90055987347)
(-0.277305543897 1.99001403887e-11 8.9694998324)
(-0.315099056765 3.26850329963e-11 9.00120335995)
(-0.34958124306 4.99386034349e-11 8.98981109206)
(-0.380050397046 3.15272309295e-11 8.93260082544)
(-0.401443999233 6.71621012268e-12 8.82955806294)
(-0.411467298261 -8.59330877619e-12 8.68028758462)
(-0.40018043865 -2.28451785783e-11 8.48528904018)
(-0.362138871901 -6.34785042899e-12 8.24395964931)
(-0.289700434794 -6.46817539988e-12 7.94870895726)
(-0.19100178785 -3.73095453632e-12 7.58450704778)
(-0.0654290199685 1.67603260526e-12 7.11004050177)
(-0.0343075991355 -8.26661849298e-11 8.50027915538)
(-0.0496376092068 -1.10562929729e-10 8.54565660901)
(-0.0660103207556 -1.0511974479e-10 8.61079064726)
(-0.0834212233082 -1.17302870928e-10 8.69469104791)
(-0.101988783922 -6.11082783378e-11 8.79517876702)
(-0.121900336962 -3.72780015074e-11 8.90798189784)
(-0.143451589523 -3.16827326997e-11 9.02593609776)
(-0.1668641155 -2.11975321467e-11 9.13861908203)
(-0.193354444474 -3.21279397118e-12 9.23304610188)
(-0.223164201043 1.50878613092e-11 9.29493600344)
(-0.252594564999 1.42008529396e-11 9.31326497903)
(-0.280197638756 3.83531336344e-11 9.27930584893)
(-0.303415835931 2.21474679232e-11 9.19032566498)
(-0.319546732938 5.9323162097e-12 9.04633314087)
(-0.32573168163 -1.29378532733e-11 8.8484194842)
(-0.310962173042 -2.5054473339e-11 8.59960229904)
(-0.274609476874 -7.28846518105e-12 8.29868537559)
(-0.215475846282 -7.50447060062e-12 7.94403186913)
(-0.138646776838 -8.17118154852e-12 7.52590503475)
(-0.0449687868172 -2.3981498785e-14 7.02646921848)
(-0.0271827549037 -3.51220213553e-11 8.78602093948)
(-0.0390527049737 -5.21933733048e-11 8.82871205051)
(-0.0516584497652 -3.00943084742e-11 8.89029643882)
(-0.0650359569138 -4.21773730614e-11 8.96997450693)
(-0.0790444971324 -5.32098542311e-11 9.06591730213)
(-0.0939448788564 -4.18577110314e-11 9.17438917305)
(-0.109991114279 -3.97202103912e-11 9.28876698511)
(-0.127450043544 -5.70798220051e-11 9.39880946091)
(-0.147527905128 -3.00850492314e-11 9.49046909558)
(-0.16917136959 1.71481039775e-11 9.54749693216)
(-0.190928914239 2.49614024838e-11 9.55469470472)
(-0.211456880095 4.75386395734e-11 9.50133231327)
(-0.228091716811 2.0221221663e-11 9.38416135344)
(-0.23939287477 1.52795697869e-11 9.20425737733)
(-0.239104758125 8.13348573447e-12 8.96634638307)
(-0.222471371748 -1.05775499085e-11 8.67424897144)
(-0.191092390289 -4.59404505147e-12 8.32831108842)
(-0.145536629592 -8.74267121654e-12 7.93093378709)
(-0.0882402058006 -1.68924800175e-11 7.47916064504)
(-0.0239111341055 -2.28143482122e-12 6.9618429985)
(-0.0187560972335 -9.70824736797e-11 9.00944812479)
(-0.0282565051004 -1.56681099356e-11 9.04943866802)
(-0.038016114056 -1.00424240788e-10 9.1074924835)
(-0.048147830379 -1.043186611e-10 9.18285221073)
(-0.0585917988505 -6.22331946785e-11 9.27393447055)
(-0.0694954921292 -4.35946238761e-11 9.37744604559)
(-0.0810771174755 -3.38070227211e-11 9.4874373631)
(-0.0934891778253 -2.49041750487e-11 9.59415275113)
(-0.107211730319 -6.70199442505e-12 9.68324004927)
(-0.122110387156 3.31348186466e-11 9.73639890706)
(-0.137448992205 1.39719475516e-11 9.73462377676)
(-0.151844350014 4.29480154729e-11 9.66502616382)
(-0.163688891789 6.69233781477e-12 9.52428032956)
(-0.167727243504 -1.19410598373e-12 9.3164737886)
(-0.160775479913 -9.79882024253e-13 9.04824347561)
(-0.143914684976 -5.77307273036e-12 8.72361376563)
(-0.117760039067 3.62922988904e-12 8.34772463645)
(-0.084030479593 -8.20754622912e-12 7.92255751568)
(-0.0461380259121 -1.40017663144e-11 7.45442421122)
(-0.00876003643464 -4.51164024678e-12 6.92599935743)
(-0.0137878489375 -1.387361536e-11 9.17985561423)
(-0.0207090637719 2.57323508415e-11 9.21704610292)
(-0.0276765246363 -4.88548585999e-11 9.27130383984)
(-0.0350039823527 -6.65014541478e-11 9.3419413697)
(-0.0425263394938 -5.50463657773e-11 9.42753116536)
(-0.0499900237284 -4.1005786286e-11 9.5252022108)
(-0.0575976338592 -2.48421933344e-11 9.62954297861)
(-0.0655105917674 1.05162072299e-11 9.73158903002)
(-0.0739549103906 1.20566384994e-14 9.81706828288)
(-0.0833394103263 2.07760573766e-11 9.86614920194)
(-0.0929788227793 2.11534809894e-11 9.85691173334)
(-0.100811443186 3.00705503387e-11 9.7741838999)
(-0.103636709451 1.14717456432e-11 9.61571196202)
(-0.0993186879995 1.27728835318e-12 9.3877925752)
(-0.0900396199442 -5.40433791202e-12 9.09836103285)
(-0.0731062302556 -7.0656126486e-12 8.75324954142)
(-0.0537602146388 -4.43430128156e-12 8.36027435815)
(-0.0291136700355 -9.46489535054e-12 7.92162509178)
(-0.00936775346516 -1.78036285907e-11 7.44556360482)
(0.00222744365351 -6.82387933327e-12 6.91438622346)
(-0.0112177621518 -1.63259572942e-11 9.3216779317)
(-0.0164192628415 -2.1339493119e-11 9.35602706258)
(-0.0215252332809 -4.38270083546e-11 9.40632447214)
(-0.0267313070743 -5.37555955769e-11 9.47180902209)
(-0.0316405146676 -4.96559483959e-11 9.55121267735)
(-0.0364226080488 -3.88345907936e-11 9.64193316309)
(-0.0408912942998 -2.49726435284e-11 9.73913239877)
(-0.0450228903309 -5.91423679665e-12 9.83452999565)
(-0.0490932849299 1.88147701924e-12 9.91433224057)
(-0.0527981106531 1.752090076e-11 9.95789812339)