/*--------------------------------*- C++ -*----------------------------------*\
  =========                 |
  \\      /  F ield         | OpenFOAM: The Open Source CFD Toolbox
   \\    /   O peration     | Website:  https://openfoam.org
    \\  /    A nd           | Version:  7
     \\/     M anipulation  |
\*---------------------------------------------------------------------------*/
FoamFile
{
    version     2.0;
    format      ascii;
    class       volScalarField;
    location    "0.04";
    object      alphat;
}
// * * * * * * * * * * * * * * * * * * * * * * * * * * * * * * * * * * * * * //

dimensions      [1 -1 -1 0 0 0 0];

internalField   nonuniform List<scalar> 
814
(
0.000215782914418
0.000134371898377
1.76075281138e-05
0.000178260422389
0.000112670094021
1.53251101611e-05
0.000163716014429
0.000104086604298
1.44914867841e-05
0.000135430248119
9.08626365251e-05
2.61283690606e-05
0.000118806249254
8.5484334965e-05
4.42418481923e-05
0.000107386985587
8.51467424624e-05
6.21211208271e-05
0.00010079597845
9.0247844186e-05
8.15894821882e-05
0.000101158542779
0.000100450128418
0.00010127679476
0.000107978768717
0.000114979263564
0.000121267074915
0.000121086779886
0.000133203722178
0.000142635997004
0.00014020685193
0.000154926545716
0.000166686961317
0.000165079698973
0.000180158307597
0.000194144614952
0.000194836177813
0.000208832794987
0.000224639092673
0.000228508128273
0.000240463822713
0.000257126690161
0.000264552888762
0.000274455054146
0.000290427278379
0.000300692422315
0.000308357072286
0.000322019107597
0.000332735725184
0.000338021068261
0.000347630352098
0.000352433313492
0.000354734481277
0.000358526405092
0.000344155336443
0.000342670374249
0.000339731639482
0.000289985904331
0.000286480841906
0.000278266910237
0.000206506825785
0.000202360848157
0.000193734269359
0.000138508106759
0.000135884540935
0.000130191641719
0.000115474123284
0.000113849909945
0.000110772647441
0.000125313760636
0.000124300036117
0.00012198841773
0.000142195305583
0.000140780872812
0.00013827126902
0.000155167801981
0.000154317588789
0.000151951768475
0.00016988496767
0.000168633260952
0.000166761690963
0.00018403990544
0.000183757222635
0.000182446714518
0.000205868957889
0.000205338264766
0.000205162264994
0.000256199793814
0.000257004668852
0.000257879631798
0.000296874702905
0.000295990334226
0.00029540601811
0.000160426058547
0.000160397863578
0.000158628277438
0.000306787851326
4.69164801649e-05
6.34922702316e-05
7.85126004809e-05
9.46520828837e-05
0.000114044314864
0.000137805549038
0.000166297229601
0.000198788989415
0.000233729839759
0.000269265062095
0.000303684699507
0.000334147744055
0.000356074549803
0.000360663707399
0.000333406945501
0.000266159973347
0.000181774992063
0.000122879890418
0.000107137277862
0.000119167944542
0.000134860489781
0.000148876136704
0.000163943304351
0.000180819624092
0.000204659416685
0.000259402081946
0.000294197777772
0.000155854365822
3.32879109308e-05
0.000175721206122
0.000254834094353
0.000296485213903
0.000324785041244
0.000351529661929
0.000379893929024
0.000408828126418
0.000434801982574
0.000455297756094
0.000468395314035
0.000474755260203
0.000474740899268
0.000470913262665
0.000463064578425
0.000455430250135
0.00044585197399
0.000439113492144
0.00041580268655
0.000120936918423
4.46016463338e-05
0.000109925983769
0.000200031401267
0.000265592045043
0.000326486678585
0.000372405101796
0.000410191281361
0.000441951174468
0.000467184319742
0.000486012068103
0.00049629078192
0.000500056822065
0.000497322492596
0.000491199912759
0.000480649026039
0.000470626549167
0.000458363067709
0.000449015947514
0.000412562973055
0.000122760322295
6.40537222052e-05
3.17977921096e-05
8.18292274101e-05
0.000173678306578
0.000255927098056
0.000328429411709
0.000388469427654
0.000438325274181
0.000473337810492
0.00049582180924
0.000506482280096
0.000509613694811
0.000506421305942
0.00049985792387
0.000489105414904
0.000478257730575
0.000465522149613
0.000454819493408
0.000409728892537
0.000124377999288
4.79077678555e-05
8.31888223115e-06
1.40116951383e-05
4.12264078416e-05
9.34459378282e-05
0.000191553729244
0.000289481971337
0.000380591470034
0.000450008800599
0.000493329019502
0.000511908670652
0.000516718488409
0.000513931019748
0.000507464203661
0.00049700380098
0.000485681906791
0.000472751673142
0.000460799768872
0.000406995628029
0.000139911607655
1.30819188661e-05
5.8241600264e-06
5.19101081005e-06
7.97633711919e-06
2.02087968844e-05
5.78491534137e-05
0.000132697632012
0.000250045254556
0.000374960620576
0.00046859565614
0.000512200798162
0.000524067831737
0.000522601193541
0.000516292168375
0.000505854835129
0.000494069650195
0.000480695441412
0.000467540190636
0.00040486052762
0.000144640630654
2.01132839946e-05
1.11112727186e-05
8.16457084601e-06
5.41743593898e-06
6.67765956342e-06
1.83093111323e-05
6.33097886445e-05
0.000163402142726
0.000301242526926
0.000429559553714
0.000504244357608
0.00052977797128
0.000531750629063
0.000526012834444
0.000515434246923
0.000503235721421
0.000489280152792
0.00047487713425
0.00040427016909
0.000149111313401
3.37480927093e-05
2.01362294125e-05
1.38984041634e-05
6.70085575039e-06
4.78025037045e-06
9.54029920915e-06
3.96794926415e-05
0.000120905564725
0.00025098118849
0.000388951980321
0.000487321898048
0.000530851798642
0.000539482199523
0.000535314480589
0.000524790818786
0.000512263616428
0.000497740724096
0.000481627139608
0.00040382081262
0.000155171064918
5.39188060915e-05
3.41221464273e-05
2.19028384089e-05
9.39579458688e-06
5.00379721129e-06
7.96359403794e-06
3.15394602828e-05
9.83861908082e-05
0.000213512048154
0.000349133908614
0.000463308832814
0.000526033837046
0.00054446718191
0.000543219374114
0.000533190139787
0.000520436868968
0.000505401406169
0.000487152328111
0.000401479703916
0.00016211967302
8.14851512919e-05
5.48122111982e-05
3.41381440953e-05
1.49859630812e-05
6.39795020875e-06
7.38928644993e-06
2.49933033672e-05
7.88092487251e-05
0.000179214301749
0.000310509797615
0.000435520020272
0.000515897985913
0.000545942885624
0.000548926687846
0.000539892528954
0.000527043101367
0.000511501491457
0.000491112829515
0.000396921222337
0.000167277251232
0.000116177790299
8.34230714761e-05
5.24042509449e-05
2.41141135051e-05
8.61265764725e-06
6.75775765342e-06
1.75747801218e-05
5.86803343205e-05
0.000146603518259
0.000274205172197
0.000406554592211
0.000501261562653
0.000542983291582
0.000551150122906
0.000543565204399
0.000530743234546
0.00051462573236
0.000492349565191
0.000390718433284
0.000169993843968
0.000156365128775
0.000119420511718
7.71070893448e-05
3.62369563486e-05
1.15391605799e-05
6.87078270616e-06
1.18376153577e-05
4.10865983676e-05
0.000117635070032
0.000241224741254
0.000377410489083
0.000482305481477
0.000534196648371
0.000547838535409
0.00054200881675
0.00052926139077
0.000512387439869
0.000488483781786
0.000382397027963
0.000170714759354
0.000199614513199
0.000161161828035
0.0001080227893
5.13235139523e-05
1.61032443123e-05
8.00815834777e-06
8.98450462265e-06
2.90176174984e-05
9.45051411503e-05
0.000212201207419
0.000348211089835
0.000458582210487
0.000517762915019
0.000536258375762
0.000532187259109
0.000519399520929
0.000501447827547
0.000476142662415
0.000369875967288
0.000169911761067
0.000243336219832
0.00020648187282
0.000143887018456
6.96075934478e-05
2.26390051537e-05
9.92478242155e-06
8.1404535447e-06
2.1830511467e-05
7.70679792594e-05
0.000186651728589
0.0003185573667
0.000429204167211
0.000491645638318
0.00051340682753
0.000510663884504
0.000497483229707
0.000477986577621
0.000451576027575
0.000350013901021
0.000167788391911
0.000285030852199
0.000252020201395
0.000181530907881
8.95349522389e-05
2.98805314423e-05
1.23776402372e-05
8.52060207483e-06
1.77772793726e-05
6.40507855325e-05
0.000163929109694
0.00028763398515
0.000392717524254
0.0004538320422
0.000476629440591
0.000474435056721
0.000460359703129
0.000438887693399
0.000411939158376
0.000320188865973
0.000164715789504
0.000321813050736
0.000292196648813
0.000214735782585
0.000106807107991
3.57762412015e-05
1.50246549098e-05
9.70660748198e-06
1.58291805211e-05
5.47573588707e-05
0.000143764617654
0.000254372835831
0.000347669781729
0.000403242044295
0.000425074431848
0.000422729480679
0.000407449663639
0.000384030497974
0.000357546624295
0.000280530304017
0.000161393521644
0.000349994069792
0.000319254485543
0.000235195606338
0.000115837775349
3.8429478723e-05
1.74566559372e-05
1.13208548906e-05
1.56444180121e-05
4.94835207378e-05
0.000125883171919
0.000217874249003
0.000293990275379
0.000340915087799
0.000360635655178
0.000358217969327
0.000342369146381
0.000318184931988
0.000293730835277
0.000235074856538
0.000158840335812
0.00036483638963
0.00032553743689
0.000232349078299
0.000110863418434
3.68074854884e-05
1.93639810456e-05
1.27765517907e-05
1.72598724572e-05
4.8537184382e-05
0.000110062312017
0.000178269209987
0.000234366621652
0.000271141637242
0.000288548326474
0.000287383862567
0.000273216533051
0.000250898742395
0.000230399155732
0.000190922720022
0.000158288382885
0.000356914336729
0.00030323067215
0.000200923338227
9.00477891573e-05
3.30533129145e-05
2.05626144969e-05
1.40101104776e-05
2.12649397476e-05
4.99909007103e-05
9.39705110756e-05
0.000137704251895
0.000174790754013
0.000201424346233
0.000217070887947
0.000219121378741
0.000209925834596
0.000192784386636
0.000177643573222
0.000155390649831
0.000160928441745
0.000314025342461
0.000246930831167
0.000148678143245
6.5510498826e-05
3.1516908274e-05
2.15724997546e-05
1.63149498333e-05
2.79749057245e-05
5.20147808918e-05
7.83732631199e-05
0.000102242040941
0.000122625334438
0.000139862809906
0.000153387004458
0.00016030157917
0.000159171985961
0.000150217006956
0.000141206571615
0.000132629943224
0.000167517847373
0.000236401078967
0.000171631132481
9.81538453957e-05
4.83464535774e-05
3.229708863e-05
2.36245456792e-05
2.05167837823e-05
3.58175334095e-05
5.38717988255e-05
6.72078206282e-05
7.70657079226e-05
8.49099479423e-05
9.32070832767e-05
0.000103109432364
0.000113681886129
0.000121688507663
0.000122988906823
0.000120937610885
0.000122788994469
0.000177994208419
0.000155649525809
0.00011119171656
6.84908230788e-05
4.28213224994e-05
3.42301151112e-05
2.58689613404e-05
2.49564425088e-05
4.14125924058e-05
5.5840848647e-05
6.19072822855e-05
6.40849237497e-05
6.50037634443e-05
6.66184530215e-05
7.09624657127e-05
8.02147016689e-05
9.39797172547e-05
0.000106135209921
0.000112862372344
0.000123639126623
0.000191401486447
0.000108226838343
8.47646942208e-05
6.18980415105e-05
4.54684158506e-05
3.57948998227e-05
2.82741517858e-05
2.97889913015e-05
4.54619925334e-05
5.72076506746e-05
6.08400079291e-05
6.15607915438e-05
6.10845863593e-05
6.00074500669e-05
5.96139598267e-05
6.27277820536e-05
7.39581365684e-05
9.30508430616e-05
0.000110915780695
0.000131661953917
0.000206108602912
0.000100375105565
8.66172566472e-05
6.85396190629e-05
5.04286423028e-05
3.74303091416e-05
3.12472307185e-05
3.47076498813e-05
4.90064125277e-05
5.89304408077e-05
6.26033145767e-05
6.50748113022e-05
6.68104228695e-05
6.68169521913e-05
6.51412646139e-05
6.26173738376e-05
6.49864144951e-05
8.07203634202e-05
0.000107851182395
0.000141991928908
0.000220349943249
0.000112957418874
9.81096998931e-05
7.74556547567e-05
5.61118710109e-05
4.0189173339e-05
3.48813547006e-05
4.01482253588e-05
5.2882540353e-05
6.16185686675e-05
6.67084509642e-05
7.18824308374e-05
7.63967319915e-05
7.91459635427e-05
7.95831965497e-05
7.64120117713e-05
7.04511985004e-05
7.40433547902e-05
9.97991434714e-05
0.000148636299201
0.000232108947721
0.000127312302642
0.000110906744937
8.85715782479e-05
6.49605370601e-05
4.67000908658e-05
4.01186682996e-05
4.64078142165e-05
5.75117726263e-05
6.66920046662e-05
7.42790736156e-05
8.04976996687e-05
8.55734063538e-05
9.05690533426e-05
9.49596042198e-05
9.65396326071e-05
8.87088930161e-05
7.97308484259e-05
9.14074217157e-05
0.000146321734884
0.000240058316627
0.00014166233605
0.000125700464201
0.000103394233042
7.87613686806e-05
5.93516722569e-05
5.24250513896e-05
5.82683606009e-05
6.98064419275e-05
8.13607243363e-05
8.84155697556e-05
9.01558092768e-05
9.22685232673e-05
9.66141280163e-05
0.000104309445671
0.000113416668744
0.00011275100669
9.82349818637e-05
9.23177935126e-05
0.000137657612954
0.000245099168715
0.000157818350984
0.000143921148178
0.000123804844001
0.000100994685449
8.33038931099e-05
7.83932923663e-05
8.65996832664e-05
9.99929147352e-05
0.000106378768296
0.000104903661735
9.8618150502e-05
9.32986867175e-05
9.47274937002e-05
0.000104444629669
0.000122736364586
0.000135386014129
0.000123692670808
0.000105058464864
0.000132490544099
0.000250289886245
0.000176705675421
0.000166884240819
0.000152628860862
0.000137468749818
0.000128150410615
0.000128710031669
0.000131845044969
0.000129388068903
0.000120665580776
0.000108780937773
9.65850531755e-05
8.92829708445e-05
8.91476571725e-05
9.86941972794e-05
0.000122843395351
0.000151048293911
0.000151313376488
0.000125337438305
0.000137926213857
0.000264754760237
0.000203879688252
0.000201734762381
0.000198716123318
0.000196550241801
0.000195628850611
0.000189371562398
0.00016949877036
0.000142585077451
0.000118635843599
0.000100854262525
8.98978472091e-05
8.58587112971e-05
8.76276820895e-05
9.97717309981e-05
0.000128036002271
0.000164054700346
0.000175700703775
0.000145163376506
0.000152525465469
0.000292921550941
0.000262175061972
0.000266144582843
0.000268225463551
0.000264521783801
0.000247551327705
0.000211699715
0.00016559494064
0.000125613084646
9.92231063388e-05
8.71845287508e-05
8.41037208782e-05
8.57358155673e-05
9.49758429519e-05
0.000116690046966
0.000149771944232
0.000182656093614
0.00019420896798
0.000158187617402
0.000176804953844
0.000337513866598
0.000291542157076
0.000282525000956
0.000263263148497
0.000230966686401
0.000187556228943
0.000141746383467
0.000105741599921
8.64636422527e-05
8.04747860087e-05
8.09555685867e-05
8.61384034877e-05
9.82208131635e-05
0.000122014343497
0.000153617336391
0.000181675456909
0.000201014224672
0.000199307881952
0.000163916691148
0.000213205821608
0.000392236818776
0.000148787933321
0.000134448978325
0.000116893867788
0.000100339494315
8.74883916654e-05
7.9883046804e-05
7.78081428733e-05
8.00459711916e-05
8.5609836843e-05
9.52314839228e-05
0.000112435879484
0.000139335732825
0.00016986623022
0.000266497394384
0.000137490814225
0.000188472366967
0.000171596397652
0.000184361223485
0.000187219582372
0.000180066474723
0.000182311185785
0.000176485275471
0.000170969334873
0.000172847508796
0.000158296196378
0.000169324929826
0.00014628004071
0.000165914406088
0.00013552891447
0.000162711418126
0.000126362038331
0.000159884140401
0.000118924641288
0.000157718924238
0.000113305687054
0.0001565287534
0.000109524766089
0.000156541669052
0.000107550540895
0.0001578579291
0.000107269968606
0.000160373888323
0.000108553060113
0.000163758821922
0.00011124246132
0.000167373590027
0.000115250941869
0.000170387362655
0.000120582706945
0.000171763050279
0.000127321809867
0.000170540410996
0.000135673849032
0.000165248466197
0.000146329792744
0.000156691715764
0.000161448326377
0.000138772674375
0.000174453357099
0.000111538634973
4.20098178707e-05
0.000111234655945
4.35747577472e-05
0.000119090456055
4.64668274823e-05
0.000131988999916
5.09794080533e-05
0.00015473353188
5.71377155283e-05
)
;

boundaryField
{
    inletfuel
    {
        type            calculated;
        value           nonuniform List<scalar> 3(0.000881741502839 0.000881663641423 0.000881808471986);
    }
    inletair
    {
        type            calculated;
        value           nonuniform List<scalar> 
20
(
0.000420540690976
0.000420542067127
0.000420546046446
0.0004205528692
0.00042056285073
0.000420575006239
0.000420589903161
0.000420606665021
0.000420625266497
0.000420645233996
0.000420666467428
0.000420688822701
0.000420712380824
0.000420736841009
0.000420761169351
0.000420784172403
0.00042080417183
0.000420821758942
0.000420834623394
0.000420844250397
)
;
    }
    outlet
    {
        type            calculated;
        value           nonuniform 0();
    }
    axis
    {
        type            empty;
    }
    leftside
    {
        type            compressible::alphatWallFunction;
        Prt             0.85;
        value           nonuniform List<scalar> 
33
(
0
0
6.96892016786e-06
7.38323094929e-06
7.6905784039e-06
0
0
0
0
0
0
0
0
0
0
0
0
0
0
0
0
0
0
0
0
0
0
0
2.2482632133e-07
1.02051316307e-06
2.00814531344e-06
3.28881547238e-06
4.90636925951e-06
)
;
    }
    burnerwall
    {
        type            compressible::alphatWallFunction;
        Prt             0.85;
        value           uniform 0;
    }
    front
    {
        type            wedge;
    }
    back
    {
        type            wedge;
    }
    procBoundary0to1
    {
        type            processor;
        value           nonuniform List<scalar> 
27
(
7.82260835753e-05
7.81702300402e-05
7.8280798751e-05
7.83465314943e-05
0.000191831443811
0.000203802733862
0.000206730796024
0.000194348078624
0.000182459849618
0.000259960826502
0.000474097142263
7.88575416618e-05
8.00846799055e-05
8.306629117e-05
8.77586369322e-05
9.31979636375e-05
9.87001003969e-05
0.000104742160429
0.000112789157963
0.000125423074464
0.000144824331049
0.000169044597012
0.000189522439684
0.000191831443811
0.000202496448303
0.000184421242714
6.38623541221e-05
)
;
    }
}


// ************************************************************************* //
