/*--------------------------------*- C++ -*----------------------------------*\
  =========                 |
  \\      /  F ield         | OpenFOAM: The Open Source CFD Toolbox
   \\    /   O peration     | Website:  https://openfoam.org
    \\  /    A nd           | Version:  7
     \\/     M anipulation  |
\*---------------------------------------------------------------------------*/
FoamFile
{
    version     2.0;
    format      ascii;
    class       volScalarField;
    location    "0.04";
    object      dQ;
}
// * * * * * * * * * * * * * * * * * * * * * * * * * * * * * * * * * * * * * //

dimensions      [1 2 -3 0 0 0 0];

internalField   nonuniform List<scalar> 
814
(
4.31604217256e-10
1.33836714129e-09
1.60028390609e-09
4.78462596707e-08
2.0752930985e-07
6.72104279937e-07
2.39563474302e-06
1.83812712773e-05
0.000244749174531
0.000121305439904
0.00200328805558
0.0821867479394
0.000230894048253
0.00326758183313
0.0738392729849
0.00029538224341
0.0031928945676
0.0343039943286
0.000308277151206
0.00252800776325
0.0154250047083
0.000274014040422
0.00173340027578
0.00688094174613
0.000214725823123
0.00107864992931
0.00308297295224
0.000151974243483
0.000630833576217
0.00140845524548
9.89746366686e-05
0.000354546958632
0.00067065681652
6.03538324228e-05
0.000195510982601
0.000341286027313
3.51301208386e-05
0.000108332966743
0.000188926594301
2.0111113153e-05
6.19880139759e-05
0.000114540234218
1.19064937654e-05
3.82528092416e-05
7.74740125589e-05
8.10555326386e-06
2.7888011526e-05
6.26998161805e-05
7.4153097276e-06
2.70369434384e-05
6.52283851731e-05
9.51093985921e-06
3.50430741359e-05
8.52082703689e-05
1.52697591106e-05
5.5173757823e-05
0.000130692179466
2.81424189381e-05
9.97678779301e-05
0.000229224982009
5.56372642072e-05
0.000192955439716
0.000428151287966
9.47443403766e-05
0.000322312824445
0.000686385081097
0.00011353357679
0.000378172612405
0.000773932267649
0.000104712511081
0.000345211746724
0.000691812541854
9.11562575573e-05
0.000297137670492
0.000586030580353
7.25044057392e-05
0.000234559396084
0.000453544473981
5.21637091643e-05
0.00016618717709
0.000314031576188
3.39356743343e-05
0.000107119177678
0.000197300952787
2.68007375256e-05
8.36715866005e-05
0.000152169494775
0.000133173396023
0.000414031755741
0.000742896833769
0.00172251243028
0.00523458763929
0.00904566409967
0.0131775880893
0.0399823322417
0.0683691422671
0.0167915347415
0.289020684099
0.0941788977268
0.0319567119058
0.0114395352029
0.00435709879257
0.00180590109179
0.000844908922652
0.000454764425245
0.0002752116055
0.000181190164088
0.000130785860238
0.00011210552206
0.000120612667396
0.000157439041838
0.000236467318476
0.000405383351182
0.000730133609393
0.00111121192607
0.00118836235561
0.00103821001981
0.000863986393517
0.000653800088085
0.00043952047781
0.000268413415517
0.00020407861135
0.000986025924753
0.0114045523332
0.0853009568612
3.25717670259e-05
1.69119849102e-05
1.45132427481e-05
1.0845428363e-05
6.90257567904e-06
3.80785851897e-06
1.58188494542e-06
4.99582996303e-07
1.43322113336e-07
3.71705068144e-08
8.54831585236e-09
1.72771747759e-09
3.02401460723e-10
4.57780811634e-11
5.93507526215e-12
6.63000745872e-13
6.31612769467e-14
5.01584569557e-15
3.17428714441e-16
2.59074831716e-17
0.00211673034532
0.00126995969592
0.000691960427126
0.000334770636438
0.000154108562264
5.91397629801e-05
1.62557801415e-05
4.16768092156e-06
9.94698243141e-07
2.21405854336e-07
4.4964197845e-08
8.16860561398e-09
1.30035809703e-09
1.80576992103e-10
2.16542225483e-11
2.26669618882e-12
2.05922292802e-13
1.60476793501e-14
1.02154345847e-15
7.38422388719e-17
0.0232439417593
0.024194422356
0.00617393106908
0.00185746168983
0.000660382503079
0.00020258782748
5.39999242913e-05
1.27027304315e-05
2.77176446288e-06
5.64984178633e-07
1.06902422453e-07
1.82580500381e-08
2.74302751734e-09
3.61863416428e-10
4.14273382698e-11
4.1938181391e-12
3.76882502436e-13
3.01776764656e-14
1.99840717245e-15
1.32560311417e-16
0.219747247407
0.204339479562
0.0553670910227
0.0161064092173
0.00552261447718
0.00155814185243
0.000396604958565
7.4311914775e-05
1.29338513964e-05
2.38204164073e-06
4.12740942644e-07
6.65432735853e-08
9.65650783316e-09
1.23009724625e-09
1.37403081172e-10
1.37301335131e-11
1.25408978775e-12
1.06455309436e-13
7.5822598125e-15
8.42701659162e-16
1.00576359151
0.912860006943
0.480565152602
0.11649152451
0.03418675045
0.0108913774176
0.00283093266144
0.000497212372553
6.44017593604e-05
8.60326642727e-06
1.44998586411e-06
2.3626226263e-07
3.38053764435e-08
4.2520646042e-09
4.71179205644e-10
4.78468902909e-11
4.58668432768e-12
4.25714803237e-13
3.44197767975e-14
5.27245902043e-15
0.338321687719
0.368217285151
0.692234975702
0.490469541726
0.109539416095
0.0286245693407
0.00724689681599
0.00138135426755
0.000196298690928
2.42514523727e-05
3.88515569751e-06
6.49452979393e-07
9.72359286061e-08
1.26277220731e-08
1.44712693909e-09
1.54505907808e-10
1.60133629947e-11
1.64264662293e-12
1.5195006675e-13
3.23123152972e-14
0.105095718588
0.118837947445
0.249541090486
0.854854067522
0.154607390687
0.0361026652055
0.00971895071598
0.00216347923185
0.000373339230544
5.19360811241e-05
8.6898564524e-06
1.5259360797e-06
2.43019286329e-07
3.36501987253e-08
4.11511440762e-09
4.77226055509e-10
5.49369272949e-11
6.27953901366e-12
6.62928471017e-13
1.74572673835e-13
0.0348790845792
0.0463431606064
0.140043031472
0.686737149558
0.180394623091
0.0347027554323
0.00984985981199
0.00257791015137
0.000548442209113
9.29147297547e-05
1.57638864832e-05
3.03943138881e-06
5.26577632708e-07
7.95797460071e-08
1.06987122496e-08
1.39228468603e-09
1.82240312034e-10
2.32232980296e-11
2.76009817286e-12
7.97060632099e-13
0.0132171314829
0.0258468595508
0.110138105433
0.611264423382
0.281716603932
0.0431854746453
0.0111661697954
0.00306146009219
0.000745172139181
0.000148531421586
2.64521343192e-05
5.42491498108e-06
1.01535018484e-06
1.6976982384e-07
2.57654982547e-08
3.86620795333e-09
5.83418689881e-10
8.23950502253e-11
1.08235075764e-11
3.15229209865e-12
0.00612614465266
0.0184317822294
0.0884672337711
0.478521570716
0.462540697052
0.0663423635296
0.0158936585768
0.00405620346808
0.00100547805089
0.000219758629751
4.15360611215e-05
8.90787005789e-06
1.792949683e-06
3.36018142142e-07
5.91099337493e-08
1.04878170195e-08
1.8222125914e-09
2.81652543815e-10
3.98828670696e-11
1.11309575662e-11
0.00353655085711
0.0139468115741
0.0650994974023
0.318160391569
0.710369786719
0.1070678596
0.0253674217838
0.0060005369966
0.00136849061033
0.000302434723801
6.20659197856e-05
1.39598800727e-05
3.00451604301e-06
6.39015881236e-07
1.33364711223e-07
2.80809786869e-08
5.54169959113e-09
9.21849586892e-10
1.38179227022e-10
3.59398462035e-11
0.002346711133
0.0101804258641
0.0444696166856
0.200204345491
1.114371303
0.185897897208
0.0392762128347
0.0089590110647
0.00181729154325
0.000388171112354
8.72194466827e-05
2.08566810157e-05
4.88329763277e-06
1.20832812865e-06
3.03863986765e-07
7.51161889343e-08
1.64646497492e-08
2.89972255349e-09
4.51228395507e-10
1.07776217193e-10
0.00163946547023
0.00723545974514
0.0305362477392
0.137076315352
0.802538845467
0.318035627197
0.0592951884305
0.0127298211246
0.0022813415732
0.000467848973983
0.00011406031598
2.95052840837e-05
7.88855788901e-06
2.34133852192e-06
7.08917456882e-07
2.00468509359e-07
4.77508779545e-08
8.79238864487e-09
1.39868366964e-09
3.03856309059e-10
0.0011640401787
0.00517883684771
0.0220578402066
0.103420796127
0.638838868615
0.479233426046
0.0861378442828
0.0170650845255
0.0026738847458
0.00052779825458
0.000140428102229
4.13353712909e-05
1.32389767331e-05
4.74527729901e-06
1.68778743132e-06
5.30707599981e-07
1.35293538711e-07
2.58801465994e-08
4.16710182121e-09
8.15337760223e-10
0.000869786658677
0.00388421279441
0.0170387652377
0.0839287497755
0.537564079688
0.619010992241
0.112730933771
0.0203280340448
0.00281374110593
0.000551832848781
0.000167240288431
6.04531421732e-05
2.39903806633e-05
1.01013422777e-05
4.04831100219e-06
1.38474535415e-06
3.75693614143e-07
7.47091202163e-08
1.21220690394e-08
2.11561122772e-09
0.000772705954755
0.00338508677996
0.0149225308888
0.0758211923348
0.493694459247
0.669613004491
0.118316781476
0.0186663446624
0.00243419700376
0.000537409209081
0.000201413659761
9.34504892546e-05
4.60742648663e-05
2.20891284554e-05
9.60546948295e-06
3.53144385736e-06
1.02326762601e-06
2.13307882647e-07
3.49332314874e-08
5.41639042348e-09
0.000855528819615
0.00379004408143
0.0170392420339
0.0877493623369
0.571079828166
0.568425240259
0.0880947161293
0.0112502559204
0.00165347531369
0.000518093409452
0.000262307482419
0.000152393985799
8.89870943988e-05
4.8120359054e-05
2.25045147766e-05
8.80288004806e-06
2.74338316074e-06
6.08158529631e-07
1.01449938989e-07
1.40614846433e-08
0.00112614376944
0.00509652742757
0.024229233179
0.133849781595
0.867891727218
0.358741044677
0.0438517286043
0.00482963172439
0.00116123214714
0.000592162122494
0.000390979791951
0.000265373284998
0.000171423781221
0.000100153023884
5.14972163856e-05
2.16991377052e-05
7.26460035376e-06
1.73178771513e-06
3.00048889148e-07
3.84991275372e-08
0.00167708088688
0.00765681658329
0.0375305628279
0.208219858893
1.26311805689
0.190700580537
0.0172110086403
0.00263469119157
0.00125850584822
0.000916572765461
0.000701924945645
0.000517382696446
0.000349687665701
0.000213657687161
0.00011623587006
5.35050196164e-05
1.98170847294e-05
5.19358928831e-06
9.53925287281e-07
1.20000091574e-07
0.00281983321334
0.0125702200306
0.0583339602904
0.277677546916
0.879255551738
0.110594774114
0.0107249964543
0.00299602715956
0.00218377813573
0.00193007700127
0.00162447764894
0.00125148114195
0.000859904770424
0.000528149393588
0.000291227860419
0.00014059022455
5.66701742187e-05
1.65486588487e-05
3.34698719854e-06
4.42834416681e-07
0.00483627534113
0.0195046765701
0.0762293627234
0.285498675337
0.552889838338
0.0900162885235
0.0134635541193
0.00547413933373
0.00489676625712
0.00502999249837
0.00467653279951
0.00378144283091
0.00265636786193
0.0016329731993
0.000876040759537
0.000419367306765
0.000176025906016
5.67544074479e-05
1.29105109974e-05
1.85867008671e-06
0.00672796184577
0.0231539136313
0.0750544549779
0.247608039193
0.429939228461
0.0929882104587
0.0210973696193
0.0115208158309
0.0121197275794
0.0143054890043
0.014720979769
0.0123763514006
0.00895751490341
0.00562588640583
0.00299179690451
0.00138990943467
0.000570533216398
0.000193338120531
4.8748293499e-05
7.67119461067e-06
0.00662606206787
0.0205633031538
0.0626362349725
0.202029330791
0.432317227749
0.122103782905
0.0385452416312
0.0265354494307
0.0317002949509
0.0410655290634
0.0454688097094
0.0385601838236
0.0285320202897
0.01840482305
0.0100774302819
0.00468482054389
0.00185940694895
0.0006260727235
0.00016668849886
2.89556568672e-05
0.00568804763528
0.0173482041882
0.0518562816715
0.156997140292
0.507888716477
0.185222912714
0.0783508152682
0.0679749784684
0.0899660683508
0.120266399696
0.131411831813
0.110148728443
0.0816934082152
0.0537520118441
0.0309775120429
0.0148550180724
0.00590320844592
0.00191365054731
0.000502655018348
9.37767320973e-05
0.0046471629211
0.0136617766356
0.0385509623026
0.106249904325
0.290851006707
0.342966793733
0.200483807059
0.210174346471
0.285639864103
0.358656287309
0.351515008551
0.281283133179
0.202293721497
0.133193844373
0.0800884771505
0.0408128452904
0.0170733098879
0.00561305726131
0.00138723472462
0.000267895123979
0.00338890513109
0.00932916622369
0.0242834469379
0.0601811883805
0.141720920704
0.311574842377
0.543323729745
0.718555256002
0.826136082573
0.937337299805
0.911831414813
0.63897566391
0.426705496458
0.27170867555
0.164152557078
0.0898037376802
0.0412649787624
0.0145819972964
0.00347633737831
0.00065518244973
0.00217256969513
0.00552049886015
0.0130995304629
0.0290670701918
0.060127067691
0.116596349581
0.193386871139
0.252759611887
0.314643850451
0.439883541935
0.739697276066
1.2230167727
0.71732615957
0.422287070342
0.24665416658
0.138272418291
0.069444051104
0.0277445788165
0.00717026965476
0.00131410790989
0.00126211472013
0.00295680557947
0.00645809072023
0.0133727830737
0.0271125578739
0.0547350506945
0.103940947836
0.190111840157
0.352243726254
0.655911261248
1.26634947025
1.4648512082
0.832028292201
0.475445226563
0.277822786932
0.165108094515
0.088857767499
0.0384593814509
0.010581968284
0.00185677237511
0.000948728919226
0.00226895405298
0.0054460194217
0.0136724552608
0.0356399377784
0.0897486772803
0.205871610197
0.427322219733
0.818336156545
1.53042423917
2.32145530422
1.30022692218
0.732522548401
0.398295023681
0.220183462296
0.136412778038
0.0819982379968
0.038105716081
0.010800654957
0.00190010664768
0.00452844403686
0.0107516426072
0.0256005777647
0.0607776145053
0.140163752896
0.305571117414
0.618294026886
1.16628004713
2.0637449635
2.67540771009
1.49732319341
0.84112166246
0.455221849401
0.237993419707
0.13225749738
0.0856116966622
0.0571913707453
0.0286567777091
0.00776579598441
0.0012687085718
0.0474381470028
0.0937768757642
0.179826408374
0.339237821444
0.625445667962
1.11094615078
1.86668975304
2.81326862561
1.73913718444
1.06206184236
0.631879174493
0.355022152184
0.186981153512
0.100251325463
0.0615232602278
0.0443392710071
0.0321383813663
0.0169570912634
0.00496206999966
0.000787018809532
0.347259824286
0.652808261862
1.17665623121
1.84092806341
1.52322441456
1.12651668138
0.795772606568
0.563736473606
0.405797425324
0.280056510804
0.177281914403
0.102961731819
0.0586906318605
1.1280971287e-15
3.32207094227e-15
3.94851725475e-15
7.24438267859e-15
1.31617574115e-14
1.58666485346e-14
4.96484278705e-14
3.90776052259e-14
1.69228712147e-13
9.96705143786e-14
5.23305489532e-13
2.54767209425e-13
1.48353549119e-12
6.37923029656e-13
3.92323997452e-12
1.55444722847e-12
9.85695579688e-12
3.72590568379e-12
2.40346405672e-11
8.91840407378e-12
5.79110286585e-11
2.16573531423e-11
1.40033140389e-10
5.42680099586e-11
3.47903044614e-10
1.43998581433e-10
9.16214022134e-10
4.21097005147e-10
2.70572349229e-09
1.40201808127e-09
9.31317866885e-09
5.19532478223e-09
3.62994907681e-08
1.98232992596e-08
1.46577800554e-07
7.18709386329e-08
5.63014342751e-07
2.35778958313e-07
1.98425760473e-06
6.87416454072e-07
6.20662275113e-06
1.75294611973e-06
1.70104529155e-05
3.82268908245e-06
4.1462957013e-05
5.60072777319e-06
8.93576133611e-05
2.09869867465e-05
0.000104350747518
2.09536081834e-05
8.08669904278e-05
1.50977703745e-05
4.54934311796e-05
8.05917150494e-06
2.86574494806e-05
5.3265217065e-06
)
;

boundaryField
{
    inletfuel
    {
        type            zeroGradient;
    }
    inletair
    {
        type            zeroGradient;
    }
    outlet
    {
        type            zeroGradient;
    }
    axis
    {
        type            empty;
    }
    leftside
    {
        type            zeroGradient;
    }
    burnerwall
    {
        type            zeroGradient;
    }
    front
    {
        type            wedge;
    }
    back
    {
        type            wedge;
    }
    procBoundary0to1
    {
        type            processor;
        value           nonuniform List<scalar> 
27
(
0.00923864230756
0.02797489683
0.0452476763803
0.0512540898267
0.0365072411151
0.026559076427
0.02173718541
0.0169079711037
0.00959380745375
0.00327712361019
0.000483992873771
0.164216781965
0.197402093185
0.20185769846
0.190758168364
0.174558937493
0.157838278289
0.139486447188
0.117674137573
0.0918862203362
0.0656168198603
0.0432485752747
0.0284608949278
0.0365072411151
0.019513208654
1.91506365792e-05
3.88253563181e-06
)
;
    }
}


// ************************************************************************* //
