/*--------------------------------*- C++ -*----------------------------------*\
  =========                 |
  \\      /  F ield         | OpenFOAM: The Open Source CFD Toolbox
   \\    /   O peration     | Website:  https://openfoam.org
    \\  /    A nd           | Version:  7
     \\/     M anipulation  |
\*---------------------------------------------------------------------------*/
FoamFile
{
    version     2.0;
    format      ascii;
    class       volScalarField;
    location    "0.04";
    object      ed::R_O2;
}
// * * * * * * * * * * * * * * * * * * * * * * * * * * * * * * * * * * * * * //

dimensions      [1 -3 -1 0 0 0 0];

internalField   nonuniform List<scalar> 
814
(
-3.40998394455e-07
-3.52468764716e-07
-2.52867794807e-07
-5.97703662413e-05
-8.64163769587e-05
-0.000167920732212
-0.00473182479936
-0.0121021358362
-0.0966847036061
-0.222696814344
-1.22581378391
-30.14244311
-0.407637213321
-1.9225937622
-26.0214789916
-0.501486495901
-1.8063412884
-11.6180399335
-0.50327951815
-1.37503108324
-5.02067859689
-0.430138403517
-0.906387396787
-2.15245398583
-0.324079349488
-0.542174896801
-0.926869056702
-0.220505373895
-0.304772172996
-0.406981635208
-0.138035460141
-0.164623474282
-0.186263786323
-0.0808933990674
-0.0872376767574
-0.0911060584607
-0.0452427324226
-0.0464479898893
-0.0484751155077
-0.0248821931287
-0.0255355462509
-0.0282464546441
-0.0141497012539
-0.0151384542337
-0.0183611670855
-0.00925089959735
-0.0106010676005
-0.0142781656051
-0.00812600853535
-0.00986971901805
-0.0142686260342
-0.0100037839063
-0.0122798470809
-0.0178960766198
-0.0154047268905
-0.0185451711807
-0.0263312354389
-0.0271956556625
-0.0321224338605
-0.044238298132
-0.0514285164467
-0.0594262621788
-0.0790390423814
-0.0837728424335
-0.0949586256058
-0.121228288995
-0.0961839332498
-0.106759882375
-0.13100182799
-0.0851458661346
-0.09354393514
-0.112416857404
-0.0712229409683
-0.0773703103258
-0.0915140823941
-0.0544687535165
-0.0587262300127
-0.0681047910818
-0.0376958008378
-0.0400248888031
-0.0453637859709
-0.0235981121523
-0.0248261395307
-0.0274284602795
-0.017938594317
-0.018666162146
-0.0203640782269
-0.0857897916399
-0.0888994235126
-0.0956925193715
-1.06541038301
-1.07916995497
-1.11877012915
-7.79979619237
-7.88843968943
-8.09315054237
-5.10447124228
-84.0909054451
-26.371285384
-8.60764691318
-2.96434963849
-1.08621402072
-0.433089015891
-0.194904737384
-0.100900964817
-0.0587277709153
-0.0371817572552
-0.02580484361
-0.0212617715545
-0.0219803552367
-0.0275528029993
-0.0397000353409
-0.0651888546471
-0.112310446238
-0.163566772926
-0.167687302583
-0.140665237714
-0.112508508779
-0.0818746847566
-0.0529533235946
-0.0311235129933
-0.0227816486097
-0.105954293976
-1.17670727339
-8.42477994233
-0.00115392275401
-0.000375070152008
-0.000219576562815
-0.000117754703146
-5.56083910267e-05
-2.33045836668e-05
-7.48442898855e-06
-1.85205095466e-06
-4.20760422258e-07
-8.7161403782e-08
-1.61240548609e-08
-2.63687173387e-09
-3.75299647511e-10
-4.63945303773e-11
-4.92979965552e-12
-4.5277038825e-13
-3.55604391075e-14
-2.33376087442e-15
-1.22313199163e-16
-8.28284941703e-18
-0.11851238559
-0.0445216532412
-0.0165508358865
-0.00574669588459
-0.00196293027574
-0.000572259497381
-0.00012160341936
-2.44283553433e-05
-4.61708050775e-06
-8.20860032335e-07
-1.34095652414e-07
-1.97114347238e-08
-2.55159169596e-09
-2.89351332676e-10
-2.8438026408e-11
-2.44743455974e-12
-1.83304579563e-13
-1.18053301786e-14
-6.22354235656e-16
-3.73261279871e-17
-2.04715662423
-1.33671512035
-0.233182316542
-0.0503930359645
-0.0132974272966
-0.00309935144096
-0.000638695068831
-0.000117724006225
-2.03423919967e-05
-3.31196782477e-06
-5.04086637851e-07
-6.96617588401e-08
-8.51036264168e-09
-9.16805935874e-10
-8.60227909027e-11
-7.15973595336e-12
-5.30451325008e-13
-3.51011481671e-14
-1.92501611944e-15
-1.05947530125e-16
-17.7422967178
-10.3036414774
-1.91911601896
-0.404106581462
-0.103157931193
-0.0221434889136
-0.00435939548158
-0.000640105998417
-8.82291008884e-05
-1.29789597881e-05
-1.80899057213e-06
-2.35985511305e-07
-2.78470455156e-08
-2.89676516261e-09
-2.65194227406e-10
-2.17872924546e-11
-1.64062483478e-12
-1.1509168209e-13
-6.78875275203e-15
-6.25994876052e-16
-77.0320275299
-43.5174795128
-15.6754750177
-2.75563860573
-0.608237307218
-0.148304267328
-0.0298912798941
-0.00411786584963
-0.00042249019729
-4.50821389939e-05
-6.11188724518e-06
-8.05802752035e-07
-9.37557823087e-08
-9.63001476614e-09
-8.74594939365e-10
-7.30189282987e-11
-5.77075643472e-12
-4.42637884304e-13
-2.96382475001e-14
-3.76669762774e-15
-24.9454870892
-16.8729795356
-21.6043321128
-11.0077590162
-1.85046666838
-0.37270517329
-0.0734572407962
-0.0109970135272
-0.00123834453683
-0.00012221458885
-1.5749618839e-05
-2.13026277184e-06
-2.59352417048e-07
-2.75044766651e-08
-2.58332324888e-09
-2.26766082752e-10
-1.93761603476e-11
-1.6425750988e-12
-1.25833565813e-13
-2.22007595287e-14
-7.47296536188
-5.24570549837
-7.4892180753
-18.3993935697
-2.49712882831
-0.450375471038
-0.0946089090943
-0.0165556796742
-0.00226468881961
-0.000251704422732
-3.3878329786e-05
-4.81362016976e-06
-6.2338261413e-07
-7.04882084697e-08
-7.06487548468e-09
-6.73608604377e-10
-6.39293081894e-11
-6.0389204219e-12
-5.27973958059e-13
-1.15352017234e-13
-2.39176573371
-1.97124109763
-4.04570171336
-14.215258619
-2.80096217236
-0.415994054146
-0.0921362399339
-0.0189625637349
-0.00319887271878
-0.000433044883813
-5.91042766713e-05
-9.22098907267e-06
-1.2990527598e-06
-1.60317876092e-07
-1.76646355604e-08
-1.89000130771e-09
-2.03953265909e-10
-2.14786015531e-11
-2.11407621383e-12
-5.06509832431e-13
-0.873802026397
-1.05962722472
-3.0637962178
-12.1717142583
-4.19984495911
-0.497143918926
-0.100338799489
-0.021643822665
-0.00417881368125
-0.000665702737286
-9.53805213202e-05
-1.58280472539e-05
-2.40896671046e-06
-3.28920328312e-07
-4.0913117459e-08
-5.04742791343e-09
-6.27938923066e-10
-7.32882012702e-11
-7.97287001696e-12
-1.92650684776e-12
-0.390349526152
-0.728403830801
-2.37049843102
-9.16806787289
-6.60744282542
-0.731949602525
-0.137085160687
-0.0275545237168
-0.00542076003813
-0.000947120572288
-0.000144033301929
-2.49951852036e-05
-4.09103658584e-06
-6.26100042423e-07
-9.02683240176e-08
-1.3168032999e-08
-1.88619675516e-09
-2.40933656484e-10
-2.82542368432e-11
-6.54220593842e-12
-0.217122315391
-0.531297625309
-1.68067298183
-5.86682937741
-9.72454128862
-1.1306535733
-0.209856828613
-0.0391588404306
-0.00709230102237
-0.00125335422455
-0.000206976858739
-3.76712310639e-05
-6.59309430703e-06
-1.14509905374e-06
-1.95869331529e-07
-3.39077276306e-08
-5.51672789885e-09
-7.58393235829e-10
-9.41434731004e-11
-2.03149025214e-11
-0.138779361924
-0.3738135689
-1.10639011573
-3.55420925044
-14.6477912958
-1.87994864483
-0.311630435567
-0.0561618690552
-0.00905349706187
-0.00154681216236
-0.000279706890261
-5.41271229246e-05
-1.03056596316e-05
-2.08240789198e-06
-4.29195083989e-07
-8.72308492653e-08
-1.57630838077e-08
-2.29425073121e-09
-2.95660633978e-10
-5.85877418822e-11
-0.0933722266187
-0.256059817896
-0.732252064145
-2.34346555416
-10.1434363709
-3.0836697865
-0.451427612133
-0.0766628998515
-0.0109252552033
-0.00179258276866
-0.000351750044584
-7.36385229101e-05
-1.60104948708e-05
-3.88054532438e-06
-9.62985901062e-07
-2.23888504438e-07
-4.39662216236e-08
-6.69021885059e-09
-8.81383708207e-10
-1.5885276877e-10
-0.0638334503332
-0.176610458893
-0.509783479701
-1.70278824131
-7.76707875011
-4.45914672218
-0.629535864323
-0.0987422852684
-0.0123092963256
-0.00194438695259
-0.000416434180224
-9.92089276764e-05
-2.58403923368e-05
-7.56369020262e-06
-2.20489622017e-06
-5.70017221131e-07
-1.19801425989e-07
-1.89385715086e-08
-2.52537425667e-09
-4.09923228381e-10
-0.0459093430246
-0.127596812765
-0.379385892498
-1.33047265354
-6.28699497206
-5.53270069022
-0.791292018128
-0.113025924027
-0.0124511671657
-0.00195449207026
-0.000476865625697
-0.000139523264028
-4.50302328096e-05
-1.54841065475e-05
-5.08610159467e-06
-1.43036085257e-06
-3.19935340326e-07
-5.25772018904e-08
-7.0649688447e-09
-1.02289806254e-09
-0.0392350841661
-0.107046417197
-0.319886520016
-1.1565202355
-5.5530265596
-5.75698366864
-0.798461789851
-0.0997566332252
-0.0103534669628
-0.00182970854175
-0.00055214296547
-0.000207378289018
-8.31604992955e-05
-3.25613610245e-05
-1.16053888147e-05
-3.50803097975e-06
-8.38020169702e-07
-1.44366904769e-07
-1.95797344228e-08
-2.51841466646e-09
-0.0417637097585
-0.115261780954
-0.351205979494
-1.28652852298
-6.17638072861
-4.70811233003
-0.572260753327
-0.0578041159632
-0.00675847840626
-0.00169519600747
-0.000691156394597
-0.000325107510861
-0.000154426984549
-6.82077697491e-05
-2.61468407723e-05
-8.40924962421e-06
-2.1606135114e-06
-3.95825493779e-07
-5.46817843217e-08
-6.28714462828e-09
-0.0528069729116
-0.148871818535
-0.479403863666
-1.88397624133
-9.02675186771
-2.86475939271
-0.27417774046
-0.0238458048032
-0.00455872322791
-0.00186106932774
-0.000989793696257
-0.00054407970882
-0.000285965358695
-0.000136486577205
-5.75309428746e-05
-1.99329190008e-05
-5.50185691182e-06
-1.08390606416e-06
-1.55520886925e-07
-1.65522469613e-08
-0.0754411583105
-0.214462430548
-0.7117339642
-2.8126847369
-12.6396424518
-1.46630684143
-0.103443889862
-0.0124845114809
-0.00474056979152
-0.0027646624633
-0.00170620913802
-0.001018943159
-0.000560551830316
-0.000279872372836
-0.000124841518691
-4.72580559316e-05
-1.44316129985e-05
-3.12572944837e-06
-4.75438873743e-07
-4.96072656393e-08
-0.121471158602
-0.337056900342
-1.05976013512
-3.60161186431
-8.46654404586
-0.816638542283
-0.0618275975527
-0.0136058768333
-0.00788332388364
-0.00558136980509
-0.0037878463005
-0.00236564526837
-0.00132377196708
-0.00066470342477
-0.000300630329758
-0.000119375965556
-3.96792662995e-05
-9.57642997328e-06
-1.60395448063e-06
-1.76008310432e-07
-0.199297961066
-0.500618031691
-1.32802190983
-3.55820860817
-5.11998455326
-0.637836847135
-0.07434351485
-0.0237977142294
-0.0169195065273
-0.0139256485102
-0.0104444943012
-0.00685104005511
-0.00392260305911
-0.00197294567637
-0.000868709177178
-0.000342218195417
-0.00011848066593
-3.1576005843e-05
-5.94854375362e-06
-7.10219717955e-07
-0.26546651132
-0.569724918142
-1.2555833885
-2.96674049782
-3.82721941407
-0.632304062708
-0.111585972748
-0.0479299245858
-0.0400408946286
-0.0378482342566
-0.0314187490722
-0.021438231677
-0.0126593764993
-0.00651379963534
-0.00284674200879
-0.00108935435427
-0.000369044711704
-0.000103402367281
-2.15935968017e-05
-2.8178984666e-06
-0.250793424252
-0.485854104973
-1.00711462319
-2.32772415631
-3.69830887015
-0.796675953033
-0.195284360545
-0.105624594149
-0.100089040722
-0.103702573
-0.0925259626034
-0.0636750940307
-0.0384618960213
-0.0203568490941
-0.00917985999501
-0.00352193689245
-0.00115511630838
-0.000321795633458
-7.09788952121e-05
-1.02246004265e-05
-0.206802135196
-0.393963650021
-0.80176857018
-1.73972993359
-4.17566260689
-1.15978241479
-0.380329654537
-0.25891873023
-0.271503285902
-0.289945193229
-0.254975976882
-0.173254309139
-0.104825266444
-0.0566057575372
-0.0269143966787
-0.0106844981364
-0.00351751774643
-0.000944799994774
-0.000205723525229
-3.18301657191e-05
-0.162430018069
-0.298362242462
-0.573349504211
-1.13258000788
-2.29918973918
-2.06127752294
-0.932887520147
-0.766716689224
-0.825075934964
-0.827241922683
-0.652231274146
-0.422684987183
-0.247661914494
-0.133620640803
-0.0662312375769
-0.0279908127916
-0.00973605364027
-0.00265935685773
-0.000545542017772
-8.74006064633e-05
-0.113930302172
-0.19601019687
-0.347500180543
-0.617253351628
-1.07768833219
-1.79968825869
-2.42685050166
-2.51493924074
-2.28938780102
-2.07428770128
-1.6230111579
-0.920762569912
-0.500592055726
-0.260813620716
-0.129593707366
-0.0586883485612
-0.0224628810307
-0.00661997976183
-0.00131300755197
-0.000205439321431
-0.0702793430104
-0.111628799056
-0.180436112548
-0.286978115223
-0.440095822877
-0.648064281383
-0.830883139207
-0.85080417802
-0.838544192777
-0.936133826912
-1.26599720918
-1.69402307855
-0.808789871196
-0.389392722809
-0.1867995308
-0.0864492769135
-0.0361062379532
-0.01205765377
-0.00259992370395
-0.000395995554542
-0.0392997941382
-0.0575646856988
-0.0856625582866
-0.127159171065
-0.191140403773
-0.293000388538
-0.429988651492
-0.615963096112
-0.90335226182
-1.34301790251
-2.08532776449
-1.95304140127
-0.903302276915
-0.422153303521
-0.202460558763
-0.099135281565
-0.044246623182
-0.0160094472844
-0.00368410034097
-0.000537732372659
-0.0284452710295
-0.0425450636767
-0.0695917005069
-0.12526579412
-0.24209595013
-0.462812586795
-0.820065922408
-1.33255009442
-2.01930373256
-3.01507682241
-3.68029859269
-1.6704311344
-0.766807812381
-0.341109014362
-0.154714147968
-0.0788674289342
-0.0392261518029
-0.0152270066443
-0.00361364691394
-0.000528916870911
-0.130712618586
-0.194126352098
-0.315040606004
-0.536226278147
-0.916612645378
-1.51631490633
-2.36898673023
-3.4977365051
-4.89859745396
-5.07539144132
-2.28913137675
-1.04317397172
-0.460302299148
-0.196860018888
-0.0896926286951
-0.0477213641174
-0.0263430810767
-0.0110191247019
-0.00250003454031
-0.000339478162127
-1.3148295278
-1.62586504449
-2.12482586529
-2.87347621515
-3.92649845303
-5.29321835789
-6.8714599341
-8.11791482083
-3.98078925248
-1.9465586569
-0.934390229826
-0.426047522638
-0.18285441962
-0.0801134284901
-0.040268489874
-0.0238433057628
-0.0142849037161
-0.00629124405938
-0.00153747989231
-0.000202409507219
-9.21612813887
-10.844643088
-13.3361158714
-14.9823645809
-9.20768269181
-5.18021766067
-2.83374677495
-1.57627447899
-0.900744151941
-0.497798333439
-0.254065306864
-0.119582515068
-0.0554582733576
-3.66930543494e-15
-1.0588382333e-14
-1.23598466737e-14
-2.2216664492e-14
-3.96380678118e-14
-4.68115036594e-14
-1.43821661431e-13
-1.1089226632e-13
-4.71484876038e-13
-2.72022710911e-13
-1.40217479332e-12
-6.68686986135e-13
-3.82280983475e-12
-1.6101648808e-12
-9.72195527187e-12
-3.77296714614e-12
-2.34887846947e-11
-8.69610639702e-12
-5.50739621389e-11
-2.00144737885e-11
-1.27596678682e-10
-4.67305679465e-11
-2.96655600808e-10
-1.12576780131e-10
-7.08588070589e-10
-2.87169778774e-10
-1.79395769963e-09
-8.0723453146e-10
-5.09261045735e-09
-2.58323536443e-09
-1.68482139978e-08
-9.1995023649e-09
-6.31114900286e-08
-3.37294717282e-08
-2.4489438488e-07
-1.17491288346e-07
-9.03831682514e-07
-3.70267542558e-07
-3.06057235351e-06
-1.0369350717e-06
-9.19826372111e-06
-2.53994439021e-06
-2.42238881098e-05
-5.32114371916e-06
-5.67437615902e-05
-7.4906388152e-06
-0.000117552141538
-2.69744918032e-05
-0.00013191775104
-2.58954244851e-05
-9.82517526286e-05
-1.7948342265e-05
-5.31451545297e-05
-9.21940440434e-06
-3.22068472202e-05
-5.86458337054e-06
)
;

boundaryField
{
    inletfuel
    {
        type            calculated;
        value           uniform 0;
    }
    inletair
    {
        type            calculated;
        value           uniform 0;
    }
    outlet
    {
        type            calculated;
        value           nonuniform 0();
    }
    axis
    {
        type            empty;
    }
    leftside
    {
        type            calculated;
        value           uniform 0;
    }
    burnerwall
    {
        type            calculated;
        value           uniform 0;
    }
    front
    {
        type            wedge;
    }
    back
    {
        type            wedge;
    }
    procBoundary0to1
    {
        type            processor;
        value           uniform 0;
    }
}


// ************************************************************************* //
