/*--------------------------------*- C++ -*----------------------------------*\
  =========                 |
  \\      /  F ield         | OpenFOAM: The Open Source CFD Toolbox
   \\    /   O peration     | Website:  https://openfoam.org
    \\  /    A nd           | Version:  7
     \\/     M anipulation  |
\*---------------------------------------------------------------------------*/
FoamFile
{
    version     2.0;
    format      ascii;
    class       volScalarField;
    location    "0.04";
    object      ed::R_H2O;
}
// * * * * * * * * * * * * * * * * * * * * * * * * * * * * * * * * * * * * * //

dimensions      [1 -3 -1 0 0 0 0];

internalField   nonuniform List<scalar> 
814
(
3.83966879463e-07
3.96882606772e-07
2.84731129729e-07
6.73019034203e-05
9.73055214774e-05
0.000189080067804
0.00532807201419
0.0136271003249
0.108867738204
0.250758367959
1.38027598096
33.9406284856
0.459002714668
2.16485572763
29.3003904121
0.564677746451
2.03395452598
13.0820045234
0.566696703634
1.54829583594
5.65332366657
0.484339232153
1.02059935175
2.4236801509
0.364915901497
0.610493206517
1.04366186223
0.248290788743
0.343175868612
0.458264528546
0.155429015935
0.18536732939
0.209734491289
0.0910866048468
0.0982303115231
0.102586139807
0.0509436732524
0.0523008026582
0.0545833620797
0.0280175455522
0.0287532263165
0.0318057305312
0.0159326751215
0.0170460187688
0.0206748188372
0.0104165858502
0.011936885662
0.0160773269933
0.00914994964947
0.0111133813947
0.0160665853613
0.0112643395154
0.013827204587
0.0201511233076
0.0173458438788
0.0208820088985
0.0296491786128
0.0306225225969
0.0361701136743
0.0498126723256
0.0579089148119
0.0669144395341
0.0889985846048
0.0943288807691
0.106924160773
0.136504008773
0.108303866836
0.120212468897
0.147509090703
0.0958749162769
0.10533120816
0.126582267361
0.0801975928172
0.0871195791593
0.103045577971
0.0613322457117
0.0661261977983
0.0766865314718
0.0424457688128
0.0450683402166
0.0510799805018
0.0265716602533
0.027954428759
0.0308846624303
0.0201989985697
0.0210182456788
0.0229301125668
0.0965999814704
0.100101451465
0.107750530937
1.19966048745
1.21515387391
1.25974398211
8.78263198049
8.88244525675
9.11295129043
5.74767484564
94.6870222266
29.6942751667
9.69227825855
3.3378810541
1.22308554746
0.487661644939
0.219464270281
0.113615281554
0.0661279328668
0.0418669516878
0.0290564572652
0.023940922328
0.0247500532171
0.0310246733126
0.0447025526581
0.0734031640667
0.126462447549
0.184177475335
0.188817224202
0.158390166207
0.126685467532
0.092191540266
0.059625859677
0.0350453209056
0.02565231587
0.119305370012
1.32498166312
9.48636860825
0.00129932611474
0.000422331946978
0.000247244940147
0.000132592723732
6.26154865293e-05
2.62411448654e-05
8.42752602367e-06
2.08542397041e-06
4.73779551351e-07
9.81444275517e-08
1.81558128423e-08
2.96913835274e-09
4.22590360723e-10
5.22406068264e-11
5.55099326241e-12
5.09823025319e-13
4.00413346763e-14
2.62783313628e-15
1.37725626172e-16
9.32655371826e-18
0.133445880135
0.0501317324115
0.0186363716404
0.00647082485406
0.00221027495975
0.000644368703859
0.00013692640852
2.75065206292e-05
5.19886903757e-06
9.24294865364e-07
1.50992761386e-07
2.2195230839e-08
2.87311235798e-09
3.25811880885e-10
3.20214418471e-11
2.75583060177e-12
2.06402401157e-13
1.32928948155e-14
7.00775773937e-16
4.20295142696e-17
2.30511449192
1.50515175977
0.262565126067
0.0567429556286
0.0149730079291
0.00348989414759
0.00071917568087
0.000132558158757
2.29056937006e-05
3.72930187133e-06
5.67605526778e-07
7.84396894376e-08
9.58273540218e-09
1.03233070887e-09
9.68623404765e-11
8.06191910725e-12
5.97292372289e-13
3.95241694579e-14
2.16758332097e-15
1.19297753862e-16
19.977965926
11.6019815035
2.16093976133
0.455027195371
0.11615664348
0.024933743023
0.00490871366736
0.000720764398704
9.93466629078e-05
1.46144110048e-05
2.03693764033e-06
2.65721545462e-07
3.13559927049e-08
3.26178040164e-09
2.98610789977e-10
2.45326630031e-11
1.84735649325e-12
1.29594141037e-13
7.64418909893e-15
7.04875163715e-16
86.7386700652
49.0010248797
17.6507084037
3.10287078643
0.684880001266
0.166991773754
0.0336578167251
0.00463674939837
0.000475727291669
5.07628437861e-05
6.88203320404e-06
9.07340249084e-07
1.05569749741e-07
1.0843472518e-08
9.84800794148e-10
8.22198887048e-11
6.49791722311e-12
4.98413746024e-13
3.33729002554e-14
4.24133121307e-15
28.0888150504
18.9991079281
24.3266482164
12.3948234011
2.08364005158
0.419668962303
0.0827134320313
0.0123827238958
0.0013943857075
0.000137614590182
1.77341949308e-05
2.39869266906e-06
2.92032865476e-07
3.09702574796e-08
2.90884233665e-09
2.55340396255e-10
2.18177092492e-11
1.8495525059e-12
1.41689586762e-13
2.49982301869e-14
8.4146178897
5.90670573102
8.43291857309
20.7178621596
2.81178673981
0.507126329665
0.106530377225
0.0186418257835
0.00255005745823
0.000283421163604
3.81472663242e-05
5.42017424587e-06
7.01933736204e-07
7.93702782336e-08
7.95510547194e-09
7.58488597038e-10
7.19849048292e-11
6.79987198601e-12
5.94502837581e-13
1.2988728046e-13
2.69314706496
2.2196330107
4.55549201221
16.0064932313
3.15390547963
0.468412583294
0.103746132264
0.0213519962038
0.00360195589072
0.000487611951872
6.65518813152e-05
1.03829063637e-05
1.46274364498e-06
1.80519191898e-07
1.98905188508e-08
2.12815636702e-09
2.29652984708e-10
2.41850746153e-11
2.38046647718e-12
5.70334062971e-13
0.983907967898
1.19314860564
3.44985868611
13.7054461765
4.72905852169
0.559787970555
0.112982278964
0.0243711148894
0.00470537713708
0.000749586528389
0.000107399218672
1.78225059441e-05
2.71251550033e-06
3.70366881803e-07
4.60684926829e-08
5.68344360781e-09
7.07064175973e-10
8.25230921929e-11
8.97751447092e-12
2.16926189281e-12
0.439536642677
0.820188453816
2.66919991453
10.3233166757
7.44003269272
0.824181020721
0.154358971261
0.0310266108542
0.00610381852233
0.00106646522837
0.000162182633055
2.81447755189e-05
4.6065394359e-06
7.04993581877e-07
1.01642844222e-07
1.48273089302e-08
2.12387241087e-09
2.71293195927e-10
3.18144933487e-11
7.36657544385e-12
0.244481438206
0.598245313097
1.89245102242
6.60609611371
10.9499101272
1.27312483389
0.236300442837
0.0440931629241
0.00798598684352
0.00141128673415
0.000233057574063
4.24181030538e-05
7.42387614794e-06
1.28939055869e-06
2.2055041089e-07
3.81803685288e-08
6.2118790898e-09
8.53956760216e-10
1.06006292628e-10
2.28747403348e-11
0.156266655205
0.420917024495
1.24580398944
4.00206762567
16.493528434
2.11683698939
0.350898326316
0.0632387071512
0.0101943090396
0.00174172268479
0.000314952162721
6.0947566973e-05
1.16042539611e-05
2.34480769721e-06
4.8327704693e-07
9.82226237132e-08
1.77493565917e-08
2.58334440366e-09
3.32916203873e-10
6.5970259072e-11
0.105137863011
0.288325372882
0.824521594889
2.63876068214
11.4215892911
3.47223648109
0.508311048828
0.0863230293904
0.0123019234576
0.00201846232433
0.000396073322239
8.29175571201e-05
1.80279433984e-05
4.36952461668e-06
1.0843297136e-06
2.52100220397e-07
4.95063120329e-08
7.5332391494e-09
9.92445001365e-10
1.78869469507e-10
0.0718769681277
0.198864768528
0.574020215596
1.91735297888
8.74579188267
5.02103435039
0.708862344413
0.111184591371
0.0138603646685
0.00218939503176
0.000468908168726
0.0001117100344
2.90964854117e-05
8.51677477535e-06
2.48273052004e-06
6.41843883131e-07
1.34897349783e-07
2.1324980768e-08
2.84359131474e-09
4.6157678564e-10
0.0516942820437
0.143675016726
0.427191504781
1.49812269294
7.07920588448
6.22986457877
0.89100104835
0.127268081178
0.0140201123525
0.00220077347389
0.000536954452572
0.000157104294837
5.07043970135e-05
1.74352259981e-05
5.72699047766e-06
1.61059759224e-06
3.60249714522e-07
5.92023436739e-08
7.95521059606e-09
1.15179127957e-09
0.0441790139711
0.120535109365
0.360194742469
1.30225089937
6.25275166787
6.48240897997
0.899074267813
0.112326755164
0.0116580853927
0.0020602662374
0.000621717330394
0.000233509587721
9.363937757e-05
3.666434912e-05
1.3067759264e-05
3.95007052895e-06
9.43617315273e-07
1.62558272482e-07
2.20469352621e-08
2.83575476132e-09
0.0470262663155
0.129785673698
0.395460700661
1.44864125563
6.95465337464
5.30137158685
0.644370118063
0.0650878901116
0.00761009994702
0.00190880406375
0.000778247547115
0.000366073619306
0.000173886001595
7.68024862627e-05
2.94415487651e-05
9.46888134766e-06
2.43286784099e-06
4.45702625378e-07
6.15721200771e-08
7.07937439857e-09
0.0594610676545
0.167630840885
0.539812528528
2.1213720948
10.1641937402
3.22574165252
0.308726296472
0.0268505641302
0.00513315828057
0.00209557872957
0.00111451550226
0.000612638039863
0.000321999247499
0.000153684961544
6.47802950612e-05
2.24446238804e-05
6.19513424121e-06
1.22048677018e-06
1.75117744292e-07
1.86379605218e-08
0.084947338787
0.241486386912
0.801418052654
3.16710517969
14.23233701
1.65107305899
0.116478635196
0.0140576583142
0.00533791894428
0.00311303172116
0.00192120493554
0.00114733802702
0.000631185778478
0.000315138497405
0.000140572533885
5.32129434057e-05
1.62501099676e-05
3.51959599181e-06
5.35347918627e-07
5.585817205e-08
0.136777481864
0.379528726031
1.19329826381
4.05544334245
9.53339531796
0.919541434297
0.0696183620893
0.0153203245382
0.00887668481912
0.00628466638565
0.00426514478525
0.00266373521514
0.00149057766719
0.000748461294622
0.000338512120486
0.000134418277982
4.46791665538e-05
1.07831356189e-05
1.80606538548e-06
1.98186744615e-07
0.224411074769
0.563699848906
1.49536313621
4.00657093399
5.76514295605
0.718209316477
0.0837113836003
0.026796413765
0.0190514976874
0.0156803899664
0.0117605828931
0.00771432509307
0.00441688195743
0.00222155237979
0.000978173379542
0.00038534038496
0.000133410163548
3.55548314204e-05
6.69810714529e-06
7.99712999449e-07
0.29891738381
0.641514747661
1.41379679033
3.34057318054
4.30947922142
0.71197935761
0.12564668469
0.0539694728052
0.0450863629022
0.0426174100436
0.0353777590572
0.0241396178167
0.014254557703
0.00733458972272
0.00320545393623
0.00122662158778
0.000415547253711
0.000116431880441
2.43145601714e-05
3.17297588041e-06
0.282395372136
0.547075551072
1.13401900248
2.62103574411
4.16432493306
0.897063401482
0.219891728951
0.118934125408
0.112701048625
0.116769914447
0.104184963061
0.0716986576831
0.0433083980268
0.0229219725063
0.0103365946981
0.00396572869624
0.00130067006637
0.00036234441925
7.99227953724e-05
1.15129806573e-05
0.232860833977
0.443606174635
0.902797728523
1.95894961552
4.70182900251
1.30592413895
0.428254188274
0.291544530701
0.305714839563
0.326480572548
0.287104959359
0.195085717456
0.118034076112
0.0637385290801
0.0303058227646
0.0120308291029
0.00396075270299
0.0010638522398
0.000231646310654
3.58410174438e-05
0.182897480409
0.335958236317
0.645596060139
1.27529401441
2.58890576555
2.32101473515
1.0504386995
0.863329034333
0.929042004948
0.931480924189
0.73441755473
0.475946626623
0.278869267471
0.150457894569
0.0745768954603
0.0315178757906
0.0109628731259
0.0029944567794
0.000614284611266
9.8413771656e-05
0.128286418097
0.220709026374
0.391287941837
0.695032138324
1.21348555499
2.02646316209
2.73265279016
2.83184140456
2.57786870594
2.33566429849
1.82752335426
1.03678590998
0.563670599765
0.293678192321
0.145923535783
0.0660835429854
0.0252933810639
0.00745414938192
0.00147845685094
0.000231326294938
0.0791350940804
0.125694907451
0.203172484692
0.323139619331
0.495551364824
0.72972548804
0.935580962691
0.958012209387
0.944207369385
1.0540940665
1.42552283449
1.90748333654
0.9107037688
0.438459274571
0.210337743792
0.0973425670858
0.0406559084778
0.0135770131678
0.00292753457987
0.000445894115138
0.0442518779097
0.0648182897471
0.0964567157119
0.143182228723
0.21522560097
0.329920746543
0.484170610193
0.693579300445
1.01718176586
1.51224874215
2.34809549666
2.19914000917
1.01712548246
0.47534794663
0.227972184699
0.111627108298
0.0498220463974
0.0180267638079
0.00414832601724
0.000605490889323
0.0320295993479
0.047906076985
0.0783608032024
0.141050271361
0.272601947733
0.521130620021
0.923400691328
1.50046190775
2.2737519164
3.39500026296
4.14404521872
1.8809186215
0.863431639726
0.38409143835
0.174209349869
0.0888053465107
0.0441689560598
0.017145729481
0.00406899490318
0.000595564564882
0.147183438635
0.218587802315
0.354738205103
0.603795015033
1.03211306225
1.70738253416
2.66749772752
3.93847886936
5.51585933756
5.71493076058
2.57757997018
1.1746221131
0.518304016347
0.221665932664
0.100994606752
0.0537346320742
0.0296625168944
0.0124076212528
0.00281505859442
0.000382255085882
1.48050841008
1.83073685306
2.39257066944
3.23555686328
4.42126820168
5.96020558527
7.73731803773
9.14083606314
4.48240006971
2.19184038792
1.05213076244
0.479732868044
0.205895517514
0.09020835183
0.0453426369422
0.0268477501909
0.0160849141595
0.00708399039029
0.00173121447517
0.000227914700258
10.3774329139
12.2111535805
15.0165715692
16.8702605896
10.367923274
5.83296590967
3.19082120052
1.7748974855
1.01424501358
0.560524846453
0.286079537742
0.134650854361
0.0624464528508
4.13166683646e-15
1.19226019509e-14
1.39172847589e-14
2.50161393009e-14
4.4632776732e-14
5.27101220281e-14
1.61944324188e-13
1.24865565786e-13
5.30895686051e-13
3.06299716216e-13
1.5788598674e-12
7.52946816112e-13
4.30451400036e-12
1.81305834501e-12
1.0946998252e-11
4.24839074019e-12
2.64485566743e-11
9.79188433449e-12
6.20137153899e-11
2.25364552139e-11
1.43674865747e-10
5.26189877775e-11
3.34036544365e-10
1.26762341611e-10
7.97875751655e-10
3.23355433999e-10
2.02001050743e-09
9.08952444e-10
5.73431950832e-09
2.90874337806e-09
1.89712217373e-08
1.03587121614e-08
7.10640351351e-08
3.79796509779e-08
2.75753007315e-07
1.32296116592e-07
1.01772159734e-06
4.16924170889e-07
3.44622858951e-06
1.16759706251e-06
1.03573174388e-05
2.85999739993e-06
2.72762889129e-05
5.99164976213e-06
6.38939227314e-05
8.43451833742e-06
0.000132364637765
3.03734903483e-05
0.000148540427276
2.91584520443e-05
0.000110632247753
2.0209974836e-05
5.98418628217e-05
1.03811220147e-05
3.62651637825e-05
6.60356709227e-06
)
;

boundaryField
{
    inletfuel
    {
        type            calculated;
        value           uniform 0;
    }
    inletair
    {
        type            calculated;
        value           uniform 0;
    }
    outlet
    {
        type            calculated;
        value           nonuniform 0();
    }
    axis
    {
        type            empty;
    }
    leftside
    {
        type            calculated;
        value           uniform 0;
    }
    burnerwall
    {
        type            calculated;
        value           uniform 0;
    }
    front
    {
        type            wedge;
    }
    back
    {
        type            wedge;
    }
    procBoundary0to1
    {
        type            processor;
        value           uniform 0;
    }
}


// ************************************************************************* //
