/*--------------------------------*- C++ -*----------------------------------*\
  =========                 |
  \\      /  F ield         | OpenFOAM: The Open Source CFD Toolbox
   \\    /   O peration     | Website:  https://openfoam.org
    \\  /    A nd           | Version:  7
     \\/     M anipulation  |
\*---------------------------------------------------------------------------*/
FoamFile
{
    version     2.0;
    format      ascii;
    class       volScalarField;
    location    "0.04";
    object      ed::R_H2;
}
// * * * * * * * * * * * * * * * * * * * * * * * * * * * * * * * * * * * * * //

dimensions      [1 -3 -1 0 0 0 0];

internalField   nonuniform List<scalar> 
814
(
-4.29684850086e-08
-4.44138420561e-08
-3.18633349218e-08
-7.53153717895e-06
-1.08891445187e-05
-2.11593355922e-05
-0.000596247214828
-0.0015249644887
-0.0121830345979
-0.0280615536149
-0.154462197048
-3.79818537553
-0.0513655013465
-0.242261965429
-3.27891142051
-0.06319125055
-0.227613237579
-1.46396458995
-0.0634171854837
-0.173264752701
-0.632645069688
-0.0542008286364
-0.114211954966
-0.271226165067
-0.0408365520088
-0.0683183097166
-0.116792805525
-0.0277854148482
-0.0384036956166
-0.0512828933379
-0.0173935557943
-0.0207438551083
-0.0234707049664
-0.0101932057794
-0.0109926347657
-0.0114800813459
-0.00570094082981
-0.0058528127689
-0.00610824657199
-0.00313535242341
-0.00321768006568
-0.0035592758871
-0.0017829738676
-0.00190756453512
-0.00231365175169
-0.00116568625286
-0.00133581806153
-0.00179916138823
-0.00102394111412
-0.0012436623766
-0.00179795932712
-0.00126055560905
-0.00154735750603
-0.00225504668778
-0.00194111698829
-0.00233683771777
-0.00331794317396
-0.00342686693437
-0.0040476798138
-0.00557437419355
-0.00648039836518
-0.00748817735529
-0.00995954222333
-0.0105560383356
-0.0119655351671
-0.0152757197776
-0.0121199335865
-0.0134525865222
-0.0165072627133
-0.0107290501423
-0.0117872730197
-0.0141654099569
-0.0089746518489
-0.00974926883354
-0.011531495577
-0.00686349219519
-0.00739996778561
-0.00858174038998
-0.00474996797499
-0.00504345141348
-0.00571619453089
-0.00297354810092
-0.00312828922832
-0.00345620215079
-0.00226040425269
-0.00235208353288
-0.00256603433986
-0.0108101898305
-0.0112020279526
-0.0120580115652
-0.134250104442
-0.135983918945
-0.140973852968
-0.98283578812
-0.994005567323
-1.01980074806
-0.643203603353
-10.5961167816
-3.32298978267
-1.08463134537
-0.373531415611
-0.136871526741
-0.0545726290484
-0.0245595328968
-0.0127143167375
-0.00740016195149
-0.00468519443257
-0.00325161365518
-0.00267915077358
-0.00276969798048
-0.00347187031338
-0.00500251731717
-0.00821430941958
-0.0141520013113
-0.0206107024099
-0.0211299216194
-0.017724928493
-0.0141769587524
-0.0103168555095
-0.00667253608237
-0.00392180791234
-0.00287066726025
-0.0133510760354
-0.148274389729
-1.06158866593
-0.000145403360728
-4.72617949698e-05
-2.76683773325e-05
-1.48380205863e-05
-7.00709550261e-06
-2.93656119854e-06
-9.43097035123e-07
-2.33373015752e-07
-5.30191290927e-08
-1.09830237697e-08
-2.03175798137e-09
-3.32266618872e-10
-4.72907132117e-11
-5.84607644908e-12
-6.21193606886e-13
-5.70526370687e-14
-4.48089556882e-15
-2.94072261855e-16
-1.54124270086e-17
-1.04370430123e-18
-0.0149334945453
-0.00561007917034
-0.00208553575393
-0.000724128969466
-0.000247344684015
-7.21092064775e-05
-1.53229891598e-05
-3.07816528589e-06
-5.81788529819e-07
-1.03434833029e-07
-1.68971089722e-08
-2.48379611518e-09
-3.21520662028e-10
-3.64605482093e-11
-3.58341543907e-12
-3.08396042033e-13
-2.3097821594e-14
-1.48756463682e-15
-7.84215382819e-17
-4.70338628252e-18
-0.257957867687
-0.16843663942
-0.029382809525
-0.00634991966411
-0.00167558063246
-0.000390542706631
-8.04806120393e-05
-1.48341525323e-05
-2.56330170394e-06
-4.17334046558e-07
-6.35188889266e-08
-8.77793059753e-09
-1.0723727605e-09
-1.15524772996e-10
-1.08395495739e-11
-9.02183153881e-13
-6.68410472807e-14
-4.4230212908e-15
-2.42567201531e-16
-1.33502237368e-17
-2.23566920823
-1.29834002609
-0.241823742373
-0.0509206139085
-0.0129987122874
-0.00279025410939
-0.000549318185783
-8.06584002863e-05
-1.11175620193e-05
-1.63545121664e-06
-2.27947068207e-07
-2.97360341564e-08
-3.50894718928e-09
-3.65015239036e-10
-3.34165625703e-11
-2.74537054847e-12
-2.06731658461e-13
-1.45024589468e-14
-8.55436346904e-16
-7.88802876627e-17
-9.70664253534
-5.48354536697
-1.975233386
-0.347232180693
-0.0766426940474
-0.0186875064253
-0.00376653683098
-0.000518883548734
-5.32370943786e-05
-5.6807047922e-06
-7.70145958864e-07
-1.01537497049e-07
-1.18139674324e-08
-1.21345775183e-09
-1.10205854783e-10
-9.20096040616e-12
-7.27160788396e-13
-5.57758617203e-14
-3.73465275526e-15
-4.74633585323e-16
-3.14332796123
-2.12612839244
-2.72231610356
-1.38706438492
-0.233173383196
-0.0469637890135
-0.00925619123507
-0.00138571036863
-0.000156041170667
-1.54000013321e-05
-1.98457609179e-06
-2.68429897221e-07
-3.26804484276e-08
-3.46578081444e-09
-3.25519087764e-10
-2.8574313503e-11
-2.44154890158e-12
-2.06977407097e-13
-1.58560209494e-14
-2.79747065822e-15
-0.941652527822
-0.661000232645
-0.943700497795
-2.31846858995
-0.3146579115
-0.0567508586265
-0.0119214681307
-0.00208614610935
-0.000285368638613
-3.17167408722e-05
-4.26893653812e-06
-6.06554076104e-07
-7.8551122074e-08
-8.88206976387e-09
-8.90229987259e-10
-8.48799926612e-11
-8.0555966398e-12
-7.60951564102e-13
-6.65288795217e-14
-1.45352632265e-14
-0.301381331245
-0.248391913069
-0.509790298859
-1.79123461224
-0.35294330727
-0.0524185291482
-0.0116098923301
-0.00238943246894
-0.000403083171934
-5.45670680588e-05
-7.44760464387e-06
-1.16191729104e-06
-1.63690885184e-07
-2.02013158053e-08
-2.22588329037e-09
-2.38155059312e-10
-2.56997187997e-11
-2.70647306218e-12
-2.6639026335e-13
-6.38242305401e-14
-0.110105941501
-0.133521380923
-0.386062468313
-1.53373191821
-0.529213562581
-0.0626440516286
-0.0126434794759
-0.00272729222435
-0.00052656345583
-8.38837911039e-05
-1.2018697352e-05
-1.99445869015e-06
-3.0354878987e-07
-4.14465534909e-08
-5.15537522398e-09
-6.36015694376e-10
-7.91252529069e-11
-9.23489092264e-12
-1.00464445396e-12
-2.42755045047e-13
-0.0491871165241
-0.0917846230156
-0.298701483504
-1.15524880281
-0.832589867301
-0.092231418196
-0.017273810574
-0.00347208713735
-0.000683058484207
-0.000119344656085
-1.81493311268e-05
-3.1495903153e-06
-5.15502850063e-07
-7.88935394541e-08
-1.13745202041e-08
-1.65927593124e-09
-2.37675655707e-10
-3.03595394437e-11
-3.56025650551e-12
-8.24369505427e-13
-0.0273591228158
-0.066947687788
-0.211778040596
-0.739266736298
-1.22536883859
-0.142471260582
-0.0264436142247
-0.00493432249347
-0.000893685821142
-0.000157932509606
-2.60807153243e-05
-4.74687198986e-06
-8.30781840909e-07
-1.44291504957e-07
-2.46810793609e-08
-4.27264089821e-09
-6.95151190952e-10
-9.55635243868e-11
-1.18628195275e-11
-2.55983781342e-12
-0.0174872932814
-0.0471034555953
-0.139413873714
-0.447858375225
-1.84573713818
-0.236888344566
-0.0392678907486
-0.007076838096
-0.00114081197772
-0.000194910522426
-3.52452724599e-05
-6.82044404832e-06
-1.29859432943e-06
-2.62399805229e-07
-5.40819629418e-08
-1.09917744479e-08
-1.98627278397e-09
-2.89093672443e-10
-3.72555698951e-11
-7.38251718979e-12
-0.0117656363928
-0.0322655549864
-0.0922695307438
-0.295295127982
-1.27815292015
-0.388566694587
-0.0568834366959
-0.00966012953888
-0.00137666825431
-0.000225879555665
-4.43232776554e-05
-9.27903421004e-06
-2.01744852768e-06
-4.889792923e-07
-1.2134381254e-07
-2.82117159582e-08
-5.54009040933e-09
-8.43020298806e-10
-1.11061293158e-10
-2.00167007366e-11
-0.00804351779448
-0.0222543096352
-0.0642367358949
-0.214564737574
-0.978713132559
-0.561887628209
-0.0793264800902
-0.0124423061025
-0.00155106834294
-0.000245008079164
-5.24739885025e-05
-1.25011067234e-05
-3.25609307491e-06
-9.53084572731e-07
-2.77834299875e-07
-7.18266619993e-08
-1.50959237941e-08
-2.38640925936e-09
-3.18217058067e-10
-5.16535572594e-11
-0.00578493901903
-0.016078203961
-0.0478056122825
-0.167650039406
-0.792210912423
-0.697163888543
-0.099709030222
-0.0142421571512
-0.00156894518684
-0.000246281403626
-6.00888268745e-05
-1.7581030809e-05
-5.67416420393e-06
-1.95111945064e-06
-6.40888882988e-07
-1.80236739673e-07
-4.03143741966e-08
-6.62514178353e-09
-8.90241751358e-10
-1.28893217036e-10
-0.004943929805
-0.0134886921679
-0.0403082224529
-0.145730663866
-0.699725108267
-0.72542531133
-0.100612477962
-0.0125701219388
-0.00130461842991
-0.000230557695651
-6.95743649242e-05
-2.61312987031e-05
-1.04788782745e-05
-4.10298809552e-06
-1.46237044928e-06
-4.42039549201e-07
-1.05597145571e-07
-1.81913677136e-08
-2.46720083935e-09
-3.17340094854e-10
-0.005262556557
-0.0145238927442
-0.0442547211665
-0.162112732646
-0.778272646031
-0.593259256822
-0.0721093647366
-0.00728377414846
-0.000851621540754
-0.000213608056278
-8.70911525179e-05
-4.09661084444e-05
-1.94590170465e-05
-8.5947165136e-06
-3.29470799281e-06
-1.05963172345e-06
-2.72254329591e-07
-4.98771315995e-08
-6.89033575547e-09
-7.92229770287e-10
-0.00665409474296
-0.0187590223501
-0.0604086648617
-0.237395853466
-1.13744187249
-0.360982259802
-0.0345485560115
-0.00300475932693
-0.000574435052663
-0.000234509401831
-0.000124721805999
-6.85583310423e-05
-3.60338888039e-05
-1.71983843382e-05
-7.24935218651e-06
-2.51170487953e-06
-6.93277329393e-07
-1.36580706026e-07
-1.95968573666e-08
-2.08571356048e-09
-0.00950618047653
-0.0270239563639
-0.0896840884537
-0.354420442785
-1.5926945582
-0.18476621755
-0.0130347453333
-0.00157314683333
-0.000597349152757
-0.000348369257861
-0.000214995797519
-0.000128394868023
-7.06339481626e-05
-3.52661245686e-05
-1.5731015194e-05
-5.95488747411e-06
-1.81849696908e-06
-3.93866543442e-07
-5.99090448845e-08
-6.25090641071e-09
-0.015306323262
-0.0424718256886
-0.133538128681
-0.453831478139
-1.0668512721
-0.102902892014
-0.00779076453661
-0.00171444770488
-0.000993360935478
-0.000703296580562
-0.000477298484757
-0.000298089946764
-0.000166805700107
-8.37578698517e-05
-3.7881790728e-05
-1.50423124266e-05
-4.99990025428e-06
-1.20670564564e-06
-2.02110904849e-07
-2.21784341837e-08
-0.0251131137025
-0.0630818172154
-0.167341226385
-0.448362325817
-0.645158402791
-0.0803724693421
-0.00936786875031
-0.00299869953563
-0.00213199116006
-0.00175474145619
-0.00131608859192
-0.00086328503796
-0.00049427889832
-0.000248606703423
-0.000109464202364
-4.31221895427e-05
-1.49294976182e-05
-3.97882557737e-06
-7.49563391666e-07
-8.94932814935e-08
-0.0334508724893
-0.0717898295191
-0.158213401832
-0.373832682727
-0.482259807354
-0.0796752949021
-0.0140607119422
-0.00603954821934
-0.00504546827363
-0.00476917578704
-0.00395900998495
-0.00270138613966
-0.00159518120371
-0.000820790087377
-0.000358711927438
-0.000137267233516
-4.65025420067e-05
-1.30295131608e-05
-2.72096336975e-06
-3.55077413814e-07
-0.0316019478844
-0.0612214460988
-0.126904379293
-0.2933115878
-0.466016062915
-0.100387448449
-0.0246073684068
-0.0133095312589
-0.0126120079031
-0.0130673414473
-0.0116590004577
-0.00802356365241
-0.00484650200549
-0.00256512341215
-0.00115673470313
-0.00044379180379
-0.000145553757985
-4.05487857917e-05
-8.94390016036e-06
-1.28838023078e-06
-0.0260586987811
-0.0496425246134
-0.101029158343
-0.219219681928
-0.526166395627
-0.146141724165
-0.047924533737
-0.0326258004708
-0.0342115536606
-0.036535379319
-0.0321289824773
-0.0218314083174
-0.0132088096688
-0.00713277154288
-0.0033914260859
-0.00134633096655
-0.000443234956565
-0.00011905224503
-2.5922785425e-05
-4.0108517247e-06
-0.0204674623396
-0.0375959938547
-0.0722465559281
-0.142714006521
-0.289716026369
-0.259737212208
-0.117551179349
-0.0966123451092
-0.103966069984
-0.104239001506
-0.0821862805838
-0.0532616394402
-0.0312073529764
-0.0168372537658
-0.00834565788344
-0.00352706299904
-0.00122681948563
-0.000335099921677
-6.87425934942e-05
-1.10131651927e-05
-0.0143561159246
-0.0246988295039
-0.0437877612944
-0.0777787866958
-0.135797222798
-0.226774903405
-0.305802288499
-0.316902163824
-0.288480904916
-0.261376597208
-0.204512196365
-0.116023340066
-0.0630785440391
-0.0328645716051
-0.0163298284177
-0.0073951944242
-0.00283050003318
-0.000834169620089
-0.000165449298972
-2.58869735067e-05
-0.00885575106999
-0.0140661083946
-0.0227363721445
-0.0361615041076
-0.0554555419472
-0.0816612066568
-0.104697823484
-0.107208031366
-0.105663176608
-0.117960239584
-0.159525625305
-0.213460257991
-0.101913897604
-0.0490665517626
-0.0235382129925
-0.0108932901722
-0.00454967052466
-0.00151935939781
-0.000327610875925
-4.98985605959e-05
-0.00495208377144
-0.00725360404828
-0.0107941574253
-0.0160230576579
-0.0240851971963
-0.036920358005
-0.0541819587011
-0.0776162043328
-0.113829504041
-0.169230839642
-0.262767732175
-0.2460986079
-0.113823205549
-0.0531946431088
-0.0255116259358
-0.012491826733
-0.00557542321545
-0.00201731652354
-0.000464225676265
-6.77585166645e-05
-0.00358432831846
-0.0053610133083
-0.00876910269544
-0.0157844772417
-0.0305059976028
-0.0583180332251
-0.10333476892
-0.167911813329
-0.254448183837
-0.37992344055
-0.463746626022
-0.210487487107
-0.0966238273451
-0.0429824239886
-0.0194952019003
-0.00993791757654
-0.00494280425685
-0.00191872283671
-0.000455347989237
-6.66476939718e-05
-0.0164708200492
-0.0244614502166
-0.0396975990982
-0.0675687368868
-0.11550041687
-0.191067627826
-0.298510997291
-0.440742364267
-0.617261883594
-0.639539319262
-0.288448593436
-0.131448141381
-0.0580017171987
-0.0248059137754
-0.0113019780566
-0.00601326795672
-0.00331943581768
-0.0013884965509
-0.00031502405411
-4.27769237548e-05
-0.165678882284
-0.204871808567
-0.267744804149
-0.362080648124
-0.494769748653
-0.666987227379
-0.865858103635
-1.02292124231
-0.501610817233
-0.245281731021
-0.11774053261
-0.0536853454066
-0.0230410978937
-0.0100949233399
-0.00507414706816
-0.00300444442814
-0.00180001044333
-0.000792746330912
-0.000193734582855
-2.55051930389e-05
-1.16130477507
-1.3665104925
-1.68045569778
-1.88789600876
-1.16024058219
-0.652748249004
-0.357074425563
-0.198623006505
-0.113500861642
-0.0627265130144
-0.0320142308782
-0.015068339293
-0.00698817949327
-4.62361401512e-16
-1.33421961786e-15
-1.55743808518e-15
-2.79947480894e-15
-4.99470892016e-15
-5.89861836867e-15
-1.81226627562e-14
-1.39732994654e-14
-5.94108100134e-14
-3.42770053052e-14
-1.76685074082e-13
-8.42598299769e-14
-4.8170416561e-13
-2.02893464213e-13
-1.2250429801e-12
-4.7542359405e-13
-2.95977197968e-12
-1.09577793746e-12
-6.93975325107e-12
-2.52198142548e-12
-1.60781870655e-11
-5.88841983102e-12
-3.73809435567e-11
-1.41855614807e-11
-8.92876810667e-11
-3.61856552254e-11
-2.26052807802e-10
-1.0171791254e-10
-6.41709050979e-10
-3.25508013631e-10
-2.1230077395e-09
-1.15920979653e-09
-7.95254510655e-09
-4.25017924972e-09
-3.0858622435e-08
-1.48048282457e-08
-1.13889914826e-07
-4.66566283311e-08
-3.85656236006e-07
-1.30661990812e-07
-1.15905371765e-06
-3.20053009715e-07
-3.05240080312e-06
-6.70506042971e-07
-7.15016114114e-06
-9.4387952222e-07
-1.48124962274e-05
-3.39899854517e-06
-1.66226762357e-05
-3.26302755928e-06
-1.23804951242e-05
-2.26163257096e-06
-6.69670829196e-06
-1.16171761034e-06
-4.05831656236e-06
-7.38983721732e-07
)
;

boundaryField
{
    inletfuel
    {
        type            calculated;
        value           uniform 0;
    }
    inletair
    {
        type            calculated;
        value           uniform 0;
    }
    outlet
    {
        type            calculated;
        value           nonuniform 0();
    }
    axis
    {
        type            empty;
    }
    leftside
    {
        type            calculated;
        value           uniform 0;
    }
    burnerwall
    {
        type            calculated;
        value           uniform 0;
    }
    front
    {
        type            wedge;
    }
    back
    {
        type            wedge;
    }
    procBoundary0to1
    {
        type            processor;
        value           uniform 0;
    }
}


// ************************************************************************* //
