/*--------------------------------*- C++ -*----------------------------------*\
  =========                 |
  \\      /  F ield         | OpenFOAM: The Open Source CFD Toolbox
   \\    /   O peration     | Website:  https://openfoam.org
    \\  /    A nd           | Version:  7
     \\/     M anipulation  |
\*---------------------------------------------------------------------------*/
FoamFile
{
    version     2.0;
    format      ascii;
    class       volScalarField;
    location    "0.04";
    object      epsilon;
}
// * * * * * * * * * * * * * * * * * * * * * * * * * * * * * * * * * * * * * //

dimensions      [0 2 -3 0 0 0 0];

internalField   nonuniform List<scalar> 
814
(
16681.299521
20832.9733754
52947.5723876
21163.2652753
25009.2279657
46054.338609
22856.2164617
28435.7175385
43567.7388208
28190.7888199
50464.866128
139657.162451
35586.3476452
76064.0771566
253432.448734
44867.0146856
103999.281895
304731.738423
57112.2189874
133500.906806
333903.783867
71312.6232192
160697.381554
340809.258586
87060.0973887
182633.952609
332502.199337
103568.843047
197955.197316
315818.235299
119592.89617
205947.058838
295784.711628
133386.748543
206678.622154
274462.940262
143149.636807
201001.255058
251751.782285
147621.694291
190146.07062
227400.217989
146150.895763
175214.132538
201518.953055
138582.760623
156846.463168
174206.175276
125141.125906
135415.647077
145519.69936
106245.354843
111059.663988
115596.808669
82046.2598275
83604.9695432
84364.3152062
54423.6602
54373.7893225
53240.7426045
29155.3257193
28695.3106874
27350.632013
12805.7251684
12484.4230339
11690.3734015
5422.97951601
5276.93627028
4944.28404038
3035.63631144
2970.15263244
2830.0450741
2480.05669367
2443.54032447
2365.61768137
2429.7689135
2404.09049986
2349.59545895
2489.77938332
2471.75635442
2432.92287548
2561.03311297
2551.37626262
2530.06673436
2702.02609364
2703.70898753
2708.39291718
3774.41386372
3804.6350199
3876.50022381
5928.75926627
5931.38449092
5944.92016429
2287.60110026
2290.54859318
2252.52057061
1715.29315194
121537.974345
204804.017839
239492.029806
251458.500999
254703.741479
254603.530815
252365.05455
246804.353668
236173.143582
219371.601182
197662.894874
172238.618335
143838.513338
113220.355865
81142.9251485
49848.6196537
24864.0664115
10428.1575616
4444.74016429
2626.49327324
2252.96720423
2267.86301496
2371.7930498
2493.23594881
2710.78565432
3978.88491017
5963.86446759
2188.09157395
0.824296640724
0.556541324725
0.571348732591
0.556920191964
0.495373303964
0.422330365725
0.346971813178
0.283138350834
0.230048147917
0.188983363891
0.156321551624
0.13175637127
0.112401463182
0.0983831216185
0.0869359342514
0.0794064382238
0.0729394296613
0.0694554015736
0.0691118217171
0.236942660175
1.36330916666
1.64450009132
1.953683766
1.51207663715
1.15242202214
0.845418564716
0.609581316644
0.439124532679
0.322343182502
0.246257055009
0.193699454206
0.157507430005
0.13073027097
0.111769704861
0.0967209439126
0.0866479809455
0.0783092412827
0.0736673588259
0.0745490443597
0.250165013753
11.5170318247
5.11959630413
4.66809849688
3.32652724081
2.38225059795
1.56331204573
0.977789505097
0.617001357569
0.4043531974
0.286130154777
0.215380821784
0.170697018676
0.139658299474
0.118091835684
0.101505898795
0.0901236329001
0.0811072047916
0.0759188561214
0.0779606893418
0.260319395818
564.985853956
48.7681905469
17.7877852667
8.58099462497
5.35967810659
3.16635835273
1.81841353737
0.984717162169
0.551240069511
0.345210148031
0.242635314253
0.185618553352
0.149226997771
0.124749237432
0.106499455279
0.0937667265159
0.084021491376
0.078355290464
0.0816497915155
0.392239129327
4991.39581012
507.473269219
98.5363196684
32.276318061
13.3091468138
7.05142873353
3.72981900788
1.7562918441
0.82556458707
0.441046505008
0.281807401802
0.205538220778
0.161432947323
0.133114062299
0.112559951698
0.0982279286479
0.0874604380052
0.0813377951215
0.0867979018365
0.501061027551
15840.9404701
1941.74375527
454.047420426
120.216669875
30.5617138171
11.9825965425
5.79740341257
2.6462283846
1.17301926131
0.569976453277
0.334433418102
0.231307955051
0.176642091981
0.143337124274
0.119784791911
0.10354695586
0.0915166188618
0.0848533035279
0.0935604078097
0.60783943151
29478.9518811
4449.4823199
1074.8760935
234.020858453
46.7220039078
15.0187396129
6.98396957137
3.27176707382
1.48220030298
0.713403453348
0.398819946856
0.262647595324
0.194585023004
0.155082468885
0.127911325951
0.109414323797
0.0959449794844
0.0884317456202
0.10173525814
0.711320105612
45935.2935039
8423.08264325
1960.67365031
360.921562289
53.8720913975
15.8625032284
7.43671523382
3.63225773198
1.73335165739
0.861792666038
0.4733131134
0.299560744678
0.215334698509
0.168344252154
0.136927407082
0.115778685507
0.100679269715
0.092058202928
0.109966513047
0.804622009389
65754.0028728
14606.5421068
3464.21560998
651.900289266
79.9504195189
18.9314273535
8.18639393236
3.99093072642
1.97182412069
1.01218873872
0.555394695796
0.341892136453
0.239128894482
0.183352876184
0.146996639037
0.122783828245
0.10580970809
0.0960531920627
0.117420332851
0.863627350734
88406.6669571
23663.0012612
6035.82736512
1224.67290764
141.867718264
26.4718387194
9.75611649292
4.48318356763
2.21748259694
1.15881330282
0.640691288407
0.388686523077
0.266007081299
0.200295199757
0.158262322705
0.130554606397
0.111415750619
0.100599265632
0.12430183523
0.886930614193
111726.082477
35357.8554081
9917.43612839
2115.74836033
262.178644219
42.1906291899
12.4796350806
5.15087127459
2.46105068156
1.2922883121
0.723306501053
0.438093933374
0.295700470984
0.219229932702
0.170813289703
0.139164300222
0.117551531133
0.105693032482
0.130842856158
0.884828247806
132252.340643
48554.638492
15149.2241077
3373.37958687
468.996850573
68.3365563487
16.2709307742
5.91630362722
2.67094678205
1.39974017223
0.796972837217
0.487703692616
0.32772733098
0.240143709947
0.184727809364
0.148718756131
0.124343745885
0.111356307388
0.137071946826
0.868208862928
146843.822202
61752.5154831
21518.3781536
5086.47508699
774.715041297
104.967636731
21.073626757
6.68999989872
2.82356393913
1.47337495926
0.857679805345
0.535799505479
0.361870391165
0.263238326965
0.200263076104
0.15950734337
0.132146096467
0.117869144079
0.143428370604
0.843503523453
153778.813062
73217.5249809
28289.0721839
7172.5919776
1149.01666543
150.403854043
26.9101981802
7.44413575056
2.91060145576
1.51153999927
0.904065253286
0.581698483022
0.398235052861
0.288893227522
0.21792047336
0.172111049374
0.141676810728
0.125966260867
0.151149179116
0.816909957623
151520.676559
80676.7962286
33891.6604053
9128.86639868
1476.80436247
191.498889432
32.4452397632
7.98187726899
2.91749626196
1.51787485564
0.941858775111
0.628231905797
0.438419346424
0.318593936984
0.239135226978
0.187904230497
0.154402423736
0.137137996838
0.162253429091
0.796183994634
139751.646442
81464.5647993
36486.5713554
10200.7035861
1606.9409673
200.566413472
33.2067083649
7.77387221843
2.81518276914
1.51304968408
0.983782368709
0.681471276399
0.484958666984
0.353828645821
0.265573956676
0.208734017668
0.172385498692
0.15356501122
0.179455752374
0.790661218059
120600.46213
73863.7046486
33953.1547661
9599.50415289
1406.26633344
162.601221131
26.8594766736
6.56990553399
2.62678127813
1.53411236044
1.05441816503
0.751698110623
0.543010451563
0.397994513377
0.300141121164
0.23767712784
0.198779463907
0.178416732737
0.206570513875
0.810855518255
95673.2488149
58923.352307
26047.1778978
6928.30263945
955.694245668
107.833714091
18.9174237819
5.35737209334
2.56886424447
1.66560492791
1.18547270742
0.858211941288
0.621624974811
0.456226280718
0.346513419054
0.27823541434
0.237253111228
0.21547515641
0.248157516509
0.867164366935
67056.410411
39483.666358
15941.050883
3942.19117605
580.293895303
74.1859121222
13.7908722249
5.01246520044
2.87083525965
1.99645632442
1.43616011889
1.04087671774
0.748469242501
0.545108107901
0.414441009482
0.33686132264
0.293174350535
0.269613218173
0.309630973016
0.969336219391
39091.891571
21233.9270082
7770.83369991
1895.12964538
353.446307861
64.4894015096
13.5857837065
5.81055054529
3.71497205209
2.68594510697
1.96946619691
1.43099669933
1.0182052483
0.722302342161
0.533483550261
0.427873248691
0.374815021905
0.347295808515
0.397152422148
1.12570251666
18375.3483495
9303.68776691
3278.03288807
904.646801102
249.662654297
64.4508813898
17.0543236611
7.93869063758
5.38867580199
4.15850709456
3.23388748001
2.43071764833
1.72448939713
1.17757811485
0.802225723833
0.595684816475
0.500774803033
0.457763920864
0.517282174346
1.34460384861
7506.46827179
3807.9118629
1474.81237967
533.078453271
208.065184907
67.9483468324
22.0963407849
11.4683651108
8.59800396384
7.41254138203
6.43939354673
5.17677896348
3.74740867359
2.48727363676
1.53071209315
0.978542702402
0.724275458571
0.619763567917
0.677112142306
1.63461985801
3358.97639065
1931.35162601
936.50039447
435.657688756
201.920343448
78.0396659798
30.1213891559
17.8135592311
15.1674764527
14.8768934214
14.594074775
12.6224324816
9.58152045774
6.386005735
3.69764700052
2.0074964032
1.20257320644
0.883405226695
0.889710188094
2.01722507704
2181.63133724
1474.43083696
851.404278206
441.327702642
214.121765515
93.5481776335
43.6216088486
30.8654538346
30.5902730858
33.6478209541
35.8004598817
32.4244751036
25.6549476897
17.6039587344
10.3554735286
5.04042243919
2.41369028963
1.39186767613
1.19106302576
2.52920825258
1993.94753963
1484.50439929
937.51341461
512.192588388
254.976105945
125.161763262
73.1248514735
63.1155889865
71.0445955568
82.0338803941
84.3147027486
75.7925038784
61.3177665227
44.3923573917
28.3460736251
13.8355699507
5.70892859846
2.54479813305
1.67601828029
3.26064030495
2072.35466822
1633.27519159
1104.68715585
644.54425373
344.103813362
196.710697374
151.727688656
159.136145743
181.548492675
186.703701852
168.288244102
140.702575632
110.785308503
84.2310768703
60.589062296
34.5309707924
14.2109076663
5.22394654564
2.54264820921
4.32743254051
2220.79357781
1847.88876092
1356.72106854
885.197703037
557.117223412
414.181042615
403.137410181
418.388300082
388.482718068
323.379010929
249.413276236
184.280478968
134.334383441
102.915818132
85.0142427207
61.7030598002
29.445354212
10.3094884038
4.01757649619
5.89467092142
2395.31007501
2120.57423417
1733.94128583
1363.70874125
1151.26158639
1093.40346584
980.506273856
781.752422096
572.834304538
399.180615285
270.155042428
178.785508764
118.763219678
85.8669065327
77.2917086984
75.3625075152
47.6516100467
17.4988479483
5.89706070025
8.27077655432
2704.62367197
2636.24104998
2550.63615768
2551.10675495
2581.46000536
2298.92287074
1675.44990548
1068.6263414
650.358362484
397.07052997
245.116823553
151.438055355
94.0300887935
63.1694745589
55.8757596007
66.4703044562
57.0789791593
22.7077017524
7.26342454005
12.0909533562
4198.39451444
4542.44324248
4831.9676883
4802.11295665
4139.93244964
2928.03708786
1744.52915509
952.43370852
518.50512947
294.435376247
173.720663415
103.362221819
63.164290735
44.1829112942
42.3190771161
54.7730160409
55.0832280319
22.6048863814
7.4453730254
18.8322034241
5960.32569275
5692.24882546
5007.75640326
3900.79192298
2608.09269989
1500.30322916
802.83807099
431.093355708
246.77452837
147.597719535
90.0392771418
55.7903049292
37.6380767628
31.5247236361
35.360619353
46.2304752921
43.049635788
16.8517451585
8.55343052613
28.9558992654
2010.50467256
1641.23565004
1195.69498751
782.308783092
473.428776581
280.002353312
174.759494693
116.159807816
80.3905283814
55.8261429942
38.9756754128
28.917762964
25.2081438478
1.83489494422
3.84087257239
8.39998510745
4.62593862215
8.91201771224
4.92337046383
8.2543269336
4.74712881885
7.24754223525
4.44079162512
6.23867339666
4.11993838971
5.37430338858
3.8277694715
4.67297002893
3.57717899401
4.12305578123
3.37557079657
3.70479364877
3.22752674071
3.40445301783
3.13727887944
3.21407945159
3.10845997862
3.12858136648
3.14463968515
3.14713053827
3.24874610381
3.27024668876
3.42514049987
3.50556685215
3.67983981329
3.86623682247
4.02369971358
4.38200668537
4.47185873234
5.09852982828
5.04276791012
6.08585534006
5.75068562478
7.46462511228
6.62052783086
9.43915529525
7.73508405881
12.8954433854
8.78600929321
19.0536111183
40.2026289611
25.4186822433
46.4025115973
34.2299254018
54.8849667427
46.8934196991
67.3008982649
61.7789377425
85.5220880565
)
;

boundaryField
{
    inletfuel
    {
        type            turbulentMixingLengthDissipationRateInlet;
        mixingLength    0.005;
        phi             phi;
        k               k;
        value           uniform 1630.0935556;
    }
    inletair
    {
        type            turbulentMixingLengthDissipationRateInlet;
        mixingLength    0.005;
        phi             phi;
        k               k;
        value           uniform 0.0603738353925;
    }
    outlet
    {
        type            inletOutlet;
        inletValue      nonuniform 0();
        value           nonuniform 0();
    }
    axis
    {
        type            empty;
    }
    leftside
    {
        type            epsilonWallFunction;
        value           nonuniform List<scalar> 
33
(
1.83489494422
3.84087257239
0.236942660175
0.250165013753
0.260319395818
3.84087257239
4.62593862215
4.92337046383
4.74712881885
4.44079162512
4.11993838971
3.8277694715
3.57717899401
3.37557079657
3.22752674071
3.13727887944
3.10845997862
3.14463968515
3.24874610381
3.42514049987
3.67983981329
4.02369971358
4.47185873234
5.04276791012
5.75068562478
6.62052783086
7.73508405881
8.78600929321
40.2026289611
46.4025115973
54.8849667427
67.3008982649
85.5220880565
)
;
    }
    burnerwall
    {
        type            epsilonWallFunction;
        value           nonuniform List<scalar> 7(52947.5723876 46054.338609 43567.7388208 0.824296640724 1.36330916666 11.5170318247 1715.29315194);
    }
    front
    {
        type            wedge;
    }
    back
    {
        type            wedge;
    }
    procBoundary0to1
    {
        type            processor;
        value           nonuniform List<scalar> 
27
(
250.582001963
252.981700673
247.727181
238.485138461
26.3949072006
31.5305094953
35.4241989465
27.3712392177
13.0463025592
12.1955775532
43.7916496756
214.10501658
174.607877195
135.096494487
102.790107414
79.2548376543
62.5287938759
50.0121640288
39.9543784567
31.4756607226
25.0184056876
21.2930341577
20.2454530965
26.3949072006
21.0557510626
76.4482327923
108.654211359
)
;
    }
}


// ************************************************************************* //
