/*--------------------------------*- C++ -*----------------------------------*\
  =========                 |
  \\      /  F ield         | OpenFOAM: The Open Source CFD Toolbox
   \\    /   O peration     | Website:  https://openfoam.org
    \\  /    A nd           | Version:  7
     \\/     M anipulation  |
\*---------------------------------------------------------------------------*/
FoamFile
{
    version     2.0;
    format      ascii;
    class       volScalarField;
    location    "0.04";
    object      H2;
}
// * * * * * * * * * * * * * * * * * * * * * * * * * * * * * * * * * * * * * //

dimensions      [0 0 0 0 0 0 0];

internalField   nonuniform List<scalar> 
814
(
0.999999961831
0.999999970179
0.999999988952
0.999995880171
0.999995692622
0.999996713459
0.999777168253
0.999619961571
0.999087207421
0.992606014749
0.977067391166
0.812704022553
0.981531951387
0.952505725903
0.774278132628
0.9660685077
0.923708020993
0.738560459986
0.944608334381
0.889028684643
0.703174194283
0.917041937271
0.850092565005
0.670971440287
0.882876645869
0.809162612669
0.643219681489
0.842102310273
0.767064999452
0.61927039577
0.795561872817
0.724635572463
0.597487994577
0.745087137747
0.682718654779
0.576645114454
0.693087902595
0.641793093528
0.556075288566
0.641715480667
0.601985502215
0.534925937446
0.592026034965
0.562681018288
0.5117601554
0.543741481702
0.522714948732
0.484820306622
0.495169981278
0.480248040728
0.452180120523
0.442895671967
0.432098022249
0.410877801719
0.381633783857
0.37343976047
0.356608722003
0.308096600852
0.301541212138
0.287672871349
0.229956793575
0.224840379462
0.213831369937
0.166381194136
0.162599421249
0.154444232323
0.127214727867
0.124400211482
0.11837999041
0.107575685129
0.105320215724
0.100527306889
0.0993827264771
0.0974804825431
0.09343493938
0.0977503005871
0.0960986826307
0.0925902597263
0.100612895464
0.0991973052087
0.0961971972264
0.107094293561
0.10594887186
0.103516657964
0.116418183872
0.115558500651
0.11373921773
0.123827759287
0.123166347852
0.121749804902
0.100313413687
0.0996790457029
0.0982252840683
0.0289741409811
0.0288089972387
0.0280277073963
0.263968544348
0.342943539173
0.410030686272
0.434942937751
0.451337086432
0.462690893446
0.469855546029
0.473618604913
0.474587812734
0.473265872001
0.468721102319
0.459648373726
0.44413863846
0.420315671132
0.385309704392
0.335184945271
0.269292687373
0.198935148796
0.143371328142
0.110238330911
0.0941100131541
0.0880542277464
0.0879386347996
0.0922132612962
0.100279198621
0.111311635402
0.119829197294
0.0961829956535
0.0268106383116
4.62956142397e-06
2.9000281625e-06
1.28178304662e-06
5.08141134392e-07
1.8498411731e-07
6.15447291217e-08
1.88079178199e-08
5.34432970388e-09
1.38908794296e-09
3.24869386771e-10
6.70220532998e-11
1.20192712878e-11
1.85205518154e-12
2.43722129229e-13
2.73183999393e-14
2.60342446927e-15
2.11084394529e-16
1.40884653439e-17
7.20373249435e-19
1.42085069393e-20
0.000579003360589
0.000182075804567
4.42602898911e-05
1.21006487857e-05
3.3205140856e-06
9.15213043239e-07
2.40343579598e-07
5.90542218558e-08
1.33982021966e-08
2.77903039616e-09
5.17497663452e-10
8.46856948397e-11
1.20006338347e-11
1.4627613595e-12
1.52877339493e-13
1.37551281149e-14
1.06946225498e-15
7.02876093758e-17
3.53108284462e-18
6.30751920406e-20
0.00496671256325
0.000373006232919
8.76929767004e-05
2.93354643587e-05
1.07275682906e-05
3.44405647866e-06
9.71220827477e-07
2.39070999965e-07
5.30277328279e-08
1.05075337369e-08
1.86342641445e-09
2.90200899274e-10
3.90770857498e-11
4.54853233853e-12
4.55374226351e-13
3.97753685684e-14
3.06471161146e-15
2.0719283213e-16
1.06429718662e-17
1.76695192353e-19
0.0339705894351
0.00178515691477
0.000430651002281
0.00011827831595
4.1781802191e-05
1.41589810002e-05
4.27523468074e-06
9.61585257986e-07
1.92006675323e-07
3.73528188587e-08
6.32802741932e-09
9.48492593844e-10
1.24508173341e-10
1.40775424362e-11
1.38043646891e-12
1.1948373621e-13
9.3772965654e-15
6.72526682667e-16
3.65221677803e-17
9.06852501401e-19
0.0617524535185
0.0157315674455
0.00403021166553
0.000699764293467
0.000161359207796
5.12114898095e-05
1.58469651e-05
3.87182861939e-06
6.88328457397e-07
1.11870359869e-07
1.9827393283e-08
3.09657722437e-09
4.06057104035e-10
4.5658096046e-11
4.46390082789e-12
3.94277540865e-13
3.25714528628e-14
2.5548742155e-15
1.54099858787e-16
4.90968116573e-18
0.1125277774
0.0492198829492
0.0197278763351
0.00343335875614
0.000421909792084
8.8480710472e-05
2.6114926321e-05
7.22518797106e-06
1.53734299316e-06
2.55931532587e-07
4.65552693253e-08
7.75959250232e-09
1.08317271327e-09
1.26844440884e-10
1.29013775026e-11
1.20354357584e-12
1.07854244171e-13
9.35406973514e-15
6.29661316748e-16
2.66561224151e-17
0.162302245239
0.0831195776246
0.0387183416223
0.00746022547885
0.000579501125188
8.99990531082e-05
2.78597498173e-05
8.94733307727e-06
2.33069659988e-06
4.50342085724e-07
9.02446798835e-08
1.64771229851e-08
2.49912333885e-09
3.15330842542e-10
3.44573814745e-11
3.50945026582e-12
3.50574003455e-13
3.39295371176e-14
2.53260747334e-15
1.30656938786e-16
0.205057251212
0.110280508956
0.0529760440551
0.0110880894059
0.000645555951382
7.84433688842e-05
2.53068780176e-05
9.27985797866e-06
2.88108748718e-06
6.72737494948e-07
1.41165517921e-07
2.94371754978e-08
4.97486389243e-09
6.93567968627e-10
8.39482977752e-11
9.6495646499e-12
1.10030698377e-12
1.18966294752e-13
9.72778138477e-15
5.51915102767e-16
0.241431456526
0.135626156477
0.0686692260389
0.0182251948281
0.00101682795655
9.07762187864e-05
2.57156570236e-05
9.67325935393e-06
3.34226924393e-06
9.09785037879e-07
2.04381164986e-07
4.68730610447e-08
8.76881318081e-09
1.37086618022e-09
1.88850699758e-10
2.51840497377e-11
3.32457590997e-12
3.99039871864e-13
3.53075015354e-14
2.06030037549e-15
0.273003589536
0.161805141891
0.0881324132715
0.0298382996308
0.00187946653615
0.000134483971255
3.1494148085e-05
1.09544926914e-05
3.85879258774e-06
1.15446184179e-06
2.78678971689e-07
6.85025646164e-08
1.40862927483e-08
2.50213594093e-09
4.02963724732e-10
6.39422074707e-11
9.76200499693e-12
1.28356432699e-12
1.20681338569e-13
6.96695839397e-15
0.30028117404
0.187866596116
0.10940565714
0.0437761825298
0.00340549717753
0.00022369806625
4.2613124806e-05
1.35044840005e-05
4.51253498502e-06
1.38340947345e-06
3.6529714061e-07
9.5554888402e-08
2.13691810386e-08
4.36217758949e-09
8.4055399268e-10
1.59273899068e-10
2.77402515959e-11
3.92695577273e-12
3.87859125437e-13
2.17323461833e-14
0.323663065912
0.213274470465
0.131718058155
0.059028231748
0.00741381451709
0.000416791761426
5.82389299598e-05
1.68631137596e-05
5.21676828481e-06
1.57297701231e-06
4.55704811543e-07
1.27255811628e-07
3.12694509806e-08
7.50266570728e-09
1.75554442644e-09
3.92769758587e-10
7.62645701783e-11
1.14304790705e-11
1.1710378154e-12
6.32312195306e-14
0.343882307868
0.238042165585
0.15492175696
0.0755991277545
0.0140640404323
0.000763621738546
8.20403331859e-05
2.05824029008e-05
5.80739280694e-06
1.70907923125e-06
5.34784990001e-07
1.60554727798e-07
4.51393209292e-08
1.30793610025e-08
3.70826967378e-09
9.53223961031e-10
2.01582180295e-10
3.15722782096e-11
3.32260712755e-12
1.73271309401e-13
0.360961411823
0.261198646857
0.177480096127
0.0918943633889
0.0210356797054
0.00122127609952
0.000116606959865
2.45403464797e-05
6.16303290559e-06
1.76695876489e-06
5.95870524292e-07
2.0018188596e-07
6.69870254341e-08
2.34984693367e-08
7.8568115172e-09
2.25025259506e-09
5.08936972978e-10
8.2674588771e-11
8.8835612379e-12
4.51875546243e-13
0.371812967946
0.280044188163
0.19598911774
0.104603818414
0.0258999584795
0.00164334163912
0.000155509599597
2.73624837129e-05
6.05172850373e-06
1.72220254966e-06
6.44465375059e-07
2.58726053545e-07
1.05738561919e-07
4.34633784596e-08
1.63811435772e-08
5.09639275353e-09
1.22062467566e-09
2.05408083062e-10
2.2514106762e-11
1.13711896493e-12
0.372421991147
0.28975217117
0.206085680216
0.109934292318
0.0266106664679
0.00178803804606
0.000171500175186
2.54818670874e-05
5.1486250836e-06
1.59068736163e-06
7.02708574277e-07
3.48925529885e-07
1.73641856236e-07
8.06802888823e-08
3.28546353144e-08
1.09215100314e-08
2.76590734729e-09
4.85109196724e-10
5.45737960385e-11
2.81163181062e-12
0.361163579039
0.284937144821
0.201016438257
0.103364319695
0.0218611503574
0.00149740946102
0.000138137311387
1.73503689319e-05
3.70216029233e-06
1.47814792507e-06
8.2014484107e-07
4.87666447547e-07
2.80595072984e-07
1.4542942862e-07
6.31420906462e-08
2.21089784217e-08
5.94157823739e-09
1.10082093978e-09
1.29075301177e-10
7.0107226358e-12
0.335161736575
0.262845248685
0.17757818159
0.0827454620948
0.0138951961519
0.000965376632477
7.91062020305e-05
9.37725281211e-06
2.88041035899e-06
1.62712649518e-06
1.08161093493e-06
7.14443787122e-07
4.42639328164e-07
2.44533217301e-07
1.15611532116e-07
4.31375668051e-08
1.22957367389e-08
2.43735332682e-09
3.06124428507e-10
1.83396525319e-11
0.29092608451
0.221500104085
0.138708904256
0.0571042292894
0.00790966239735
0.000564359195794
3.90572655648e-05
6.74023741933e-06
3.47373383032e-06
2.42730304604e-06
1.71068963344e-06
1.1549176957e-06
7.22870628867e-07
4.10943892285e-07
2.04572129856e-07
8.3217321834e-08
2.6153105818e-08
5.70584485616e-09
7.88979827283e-10
5.44253604505e-11
0.229948084988
0.16681579182
0.0958323502192
0.0354623890257
0.00487304205247
0.000388052668407
3.10935840905e-05
9.69269893165e-06
6.66733340914e-06
5.02487724705e-06
3.5273791309e-06
2.3024644347e-06
1.38640675164e-06
7.73787078019e-07
3.92938829261e-07
1.70913809297e-07
5.94556038649e-08
1.46354429383e-08
2.32110853831e-09
1.90947299739e-10
0.166712202542
0.115915094432
0.0630017077666
0.0223499118055
0.00352138003221
0.000369073223982
4.70949404587e-05
2.08750263055e-05
1.65939379465e-05
1.33265166682e-05
9.45248416918e-06
5.94990659815e-06
3.38737407931e-06
1.78951363903e-06
8.81053777913e-07
3.95255568512e-07
1.50171065905e-07
4.21283624986e-08
7.82529775898e-09
7.61042324517e-10
0.119578255547
0.0819605173749
0.0443496956831
0.0162861367112
0.00306986293201
0.000438611498134
8.78517115454e-05
4.99260218881e-05
4.52704073296e-05
4.0404737633e-05
3.02277584771e-05
1.88064633745e-05
1.02811268243e-05
5.07152845099e-06
2.3020768302e-06
1.00217512273e-06
3.95911263624e-07
1.23814624733e-07
2.6687913886e-08
2.9754868284e-09
0.092916323496
0.0646195329523
0.0364383904925
0.0148497605417
0.00337718203507
0.000661308776004
0.000188075247687
0.000128492789967
0.000129330621318
0.000127541772567
0.000104451180726
6.52671130829e-05
3.55077214387e-05
1.67580200487e-05
6.9291908895e-06
2.71366666592e-06
1.03322277635e-06
3.44195124038e-07
8.35470810253e-08
1.05624179836e-08
0.0805091888686
0.0576639948427
0.0345723610738
0.0160131717976
0.00451702502558
0.00115897963269
0.000445478813548
0.000362238693118
0.000395326582544
0.000412693104096
0.000349673114412
0.000223018440037
0.000123437701375
5.85065824133e-05
2.35013580434e-05
8.13084486256e-06
2.71548993707e-06
8.77917184753e-07
2.28478592563e-07
3.17791204062e-08
0.0766721685079
0.0571638806128
0.0369453240095
0.0198152978457
0.00795739372636
0.00246452622945
0.00128118754507
0.00117788671576
0.0013042371849
0.00132369990601
0.00105458362469
0.000668296069322
0.000370098572393
0.000180239424101
7.53673093607e-05
2.53455864967e-05
7.43303428564e-06
2.14312320146e-06
5.55172550019e-07
8.27379479355e-08
0.0781425665167
0.0610512558387
0.0428836268875
0.026773748163
0.0148114305909
0.00796916430354
0.00544401075681
0.00495134720283
0.00496622982444
0.00430217591903
0.00280195474644
0.00159862143938
0.000849780731957
0.000419708694156
0.000185781628217
6.79440969532e-05
1.97773036839e-05
5.03231177063e-06
1.19669080117e-06
1.81598119947e-07
0.0838714818511
0.0691416660524
0.053161870117
0.0385615980652
0.0273745231658
0.0206822059868
0.0176221469381
0.0156532604113
0.0133475866562
0.0100499603084
0.00614137680348
0.002852480721
0.00136072918906
0.000647600279573
0.000295491616042
0.0001187968927
3.81152373452e-05
9.65069136229e-06
2.1627428826e-06
3.24316822433e-07
0.0934980542411
0.0814159635563
0.0682054549269
0.0560532018139
0.0465286526618
0.0397938727613
0.0340491021868
0.0274613675474
0.0200571500848
0.0127839740384
0.00659610948179
0.00292129485048
0.00135777116758
0.00065667684541
0.000320851986899
0.000146002342934
5.32514844516e-05
1.39885463508e-05
2.95156042679e-06
4.07461977099e-07
0.106160452153
0.0968716241138
0.0864596716291
0.076358809188
0.0670307224392
0.0573845366983
0.0457904443319
0.0326940286576
0.0203924741373
0.0106573448567
0.00462964778028
0.0020798537563
0.000975840985715
0.000474839576744
0.000236581064232
0.000117268311015
5.00212469733e-05
1.41315111932e-05
2.90886837018e-06
3.66984006352e-07
0.115652919731
0.107764527957
0.0978876261958
0.0863755821769
0.0729358263109
0.0570512180671
0.0396752224201
0.0238261129143
0.0119447902004
0.00523509343953
0.00233804523756
0.0010751520116
0.000513344720121
0.000255228833333
0.00013096840215
6.87201843703e-05
3.32510979938e-05
1.03501106788e-05
2.06426740399e-06
2.11506284639e-07
0.0916077968618
0.0825866843998
0.0706293831265
0.0563513776729
0.0408478851941
0.0259737956753
0.0140604216968
0.00678609256743
0.00333469573723
0.00163350691974
0.000805483260372
0.000401815794104
0.000202504272728
0.000103905075267
5.5813041236e-05
3.17815203323e-05
1.66354670925e-05
5.67736526197e-06
1.22463048726e-06
1.15172389205e-07
0.024014436648
0.0190797142228
0.0137359338799
0.00917838598472
0.00576765648962
0.00341030692444
0.00196572210063
0.00113646282619
0.000673106480534
0.000395078370725
0.000225437603747
0.000123892197244
6.56541836968e-05
4.14724808182e-18
5.97784449928e-18
5.09612078175e-18
1.21159393586e-17
1.49996333013e-17
2.49258365583e-17
5.4836040299e-17
5.84838135431e-17
1.88678986623e-16
1.43103386255e-16
5.98171523851e-16
3.52386462721e-16
1.74545690585e-15
8.52687263993e-16
4.74774795204e-15
2.0139644258e-15
1.22344269429e-14
4.69380466699e-15
3.04933708959e-14
1.09627108608e-14
7.48214945339e-14
2.60777048357e-14
1.8348464772e-13
6.42851432072e-14
4.60239704496e-13
1.68595577496e-13
1.21789535178e-12
4.89714384322e-13
3.59671837295e-12
1.6281600651e-12
1.23197149029e-11
6.0597209844e-12
4.75195704138e-11
2.33662168838e-11
1.88395666211e-10
8.61142726921e-11
7.01946907993e-10
2.88518495341e-10
2.35262298053e-09
8.60306685572e-10
6.78620832912e-09
2.23686974869e-09
1.65758161843e-08
4.93317508612e-09
3.31141791115e-08
7.2621938615e-09
5.25404479557e-08
6.32331016808e-09
5.41505995557e-08
5.85151459951e-09
3.7853462121e-08
3.80725563441e-09
1.87971357003e-08
1.78418609675e-09
1.05071160989e-08
1.01141870082e-09
)
;

boundaryField
{
    inletfuel
    {
        type            fixedValue;
        value           uniform 1;
    }
    inletair
    {
        type            fixedValue;
        value           uniform 0;
    }
    outlet
    {
        type            zeroGradient;
    }
    axis
    {
        type            empty;
    }
    leftside
    {
        type            zeroGradient;
    }
    burnerwall
    {
        type            zeroGradient;
    }
    front
    {
        type            wedge;
    }
    back
    {
        type            wedge;
    }
    procBoundary0to1
    {
        type            processor;
        value           nonuniform List<scalar> 
27
(
0.00254634341605
0.00256335145388
0.00249389033175
0.00237379974437
3.56674078561e-05
2.11228400522e-05
1.31656372052e-05
7.35770777709e-06
2.98204032918e-06
7.00256290123e-07
6.40367396359e-08
0.0020923198074
0.00166587509891
0.0012578003892
0.000929783954122
0.000680981707644
0.0004949384831
0.000353793398073
0.000246547815295
0.000165349681768
0.000105417398171
6.26050903523e-05
3.60163152757e-05
3.56674078561e-05
2.08355760606e-05
6.42389179028e-09
6.34433241768e-10
)
;
    }
}


// ************************************************************************* //
