/*--------------------------------*- C++ -*----------------------------------*\
  =========                 |
  \\      /  F ield         | OpenFOAM: The Open Source CFD Toolbox
   \\    /   O peration     | Website:  https://openfoam.org
    \\  /    A nd           | Version:  7
     \\/     M anipulation  |
\*---------------------------------------------------------------------------*/
FoamFile
{
    version     2.0;
    format      ascii;
    class       volScalarField;
    location    "0.04";
    object      H2O;
}
// * * * * * * * * * * * * * * * * * * * * * * * * * * * * * * * * * * * * * //

dimensions      [0 0 0 0 0 0 0];

internalField   nonuniform List<scalar> 
814
(
8.33385391082e-09
6.57952901685e-09
2.64090732328e-09
8.4936914435e-07
8.85020533194e-07
7.25418628465e-07
4.28186406011e-05
7.06858390957e-05
0.000168908444874
0.00132564748189
0.00377000295789
0.0258552118073
0.00386389602746
0.00984866748511
0.0464099973263
0.00776938607777
0.0176291776779
0.0610740014156
0.0133429846167
0.0269874902852
0.0728310362679
0.0205183010609
0.0373145596478
0.0823245668054
0.0293578164387
0.0480044635575
0.089990671154
0.0398390998976
0.0588763190312
0.0963621684024
0.0517451294233
0.0697557456738
0.10202931832
0.0646177181553
0.080457897889
0.107386240806
0.0778538881911
0.090880779227
0.112640497023
0.0909150461498
0.101003858018
0.118025667738
0.103538453468
0.110989602329
0.123913806169
0.115797913749
0.121136631892
0.130753493363
0.12812466896
0.131913160408
0.13903442614
0.14138645764
0.144127235346
0.149508090106
0.156923814469
0.159002222421
0.163264574309
0.17556650884
0.177225525558
0.180725832614
0.195353324936
0.196638634966
0.199391067664
0.211403017105
0.212334167098
0.214326810542
0.221245384453
0.221916544156
0.223337872722
0.22619369163
0.226719133463
0.227824223984
0.228345172252
0.228789546478
0.229727310426
0.228904520089
0.229299948498
0.230135854491
0.228334917317
0.228683769442
0.229421684825
0.226816285014
0.227105334208
0.227718851628
0.22450529773
0.22472380333
0.225186061978
0.222107398307
0.222258468827
0.222579779286
0.222020003366
0.222093464745
0.222247442676
0.204578106201
0.204317900513
0.203589546085
0.0585278014397
0.123574417759
0.135275444783
0.138252381609
0.137305572059
0.135593970754
0.134220544984
0.133442321172
0.133271919325
0.133644089848
0.134817621904
0.137131167026
0.141070556599
0.147112455375
0.155984476714
0.168681273774
0.185351689093
0.203093405731
0.217000987261
0.225227427794
0.229276395993
0.230955632935
0.231233882308
0.230397252158
0.228534276293
0.225801786755
0.223009769924
0.222446574145
0.202424363036
9.96845382126e-06
9.05671436682e-06
6.30098626005e-06
3.69078043919e-06
1.93390494476e-06
9.13014830712e-07
3.8598353708e-07
1.45917196367e-07
4.92119942435e-08
1.53003852989e-08
5.10510657132e-09
2.50944077488e-09
1.9461428188e-09
1.83186767075e-09
1.79137319662e-09
1.75554357929e-09
1.70775701441e-09
1.68206493668e-09
1.97115951903e-09
2.2198053276e-09
0.000986724577478
0.000510578981512
0.000230747495589
0.000104224169344
4.50907469553e-05
1.79423724322e-05
6.47498050268e-06
2.1184218248e-06
6.21673267482e-07
1.61881410354e-07
3.95528621307e-08
1.18554387821e-08
6.54266581947e-09
5.64791677591e-09
5.45328784719e-09
5.35077599616e-09
5.22376972242e-09
5.64085647915e-09
1.46843043982e-08
9.65743674358e-08
0.0127884679186
0.00786801597335
0.0033760790561
0.00117961285643
0.00048902418732
0.000176784084326
5.68486442385e-05
1.57763372462e-05
4.00783104899e-06
9.10049814694e-07
1.8784912358e-07
4.04604643011e-08
1.47683350951e-08
1.09143116534e-08
1.02789020218e-08
1.00736101866e-08
9.91461842788e-09
1.33074920115e-08
1.1819296896e-07
3.45350978175e-06
0.0568553447295
0.0462771303309
0.0304885102352
0.0123045577
0.00466613187967
0.00145175799348
0.000431255219057
0.000101513333371
2.15522456617e-05
4.52350637662e-06
8.24352152469e-07
1.46926605943e-07
3.75546094823e-08
2.19810217495e-08
1.98378596821e-08
1.93870142271e-08
1.94235764477e-08
3.68308950247e-08
8.37499852218e-07
7.91043946208e-05
0.164534957588
0.154488909531
0.107923359762
0.0574242904861
0.0232201761722
0.00826303986396
0.00257713085413
0.000613747001827
0.000108423328658
1.80486442995e-05
3.36177302096e-06
5.76893951394e-07
1.13884496303e-07
4.95748482028e-08
4.12422381221e-08
3.99955420348e-08
4.06633092362e-08
8.58025728992e-08
1.58642098135e-06
9.2044005048e-05
0.200426922351
0.206101653319
0.185161192247
0.134835984901
0.0570798487378
0.0194557722397
0.00592524162591
0.0015361765745
0.000317880463248
5.30706219207e-05
9.84436558079e-06
1.72984964816e-06
3.18963122488e-07
1.12604519844e-07
8.57843655184e-08
8.23294900897e-08
8.44157412635e-08
1.75593859117e-07
2.47118759097e-06
9.25850385412e-05
0.204280568253
0.220765704628
0.218897503247
0.190012853446
0.0855288543627
0.0284247266141
0.00876680370584
0.00254719592422
0.0006343691172
0.000120545148667
2.37458775933e-05
4.42153183539e-06
8.26922586722e-07
2.61807711582e-07
1.83729093727e-07
1.73828572738e-07
1.78353732616e-07
3.4146753907e-07
3.72544213196e-06
0.000100368833097
0.198865713144
0.221274083295
0.226826855569
0.202310266607
0.0924899381113
0.0313116815889
0.0105780617893
0.00353208459227
0.0010409480982
0.000233417748098
4.60416852294e-05
9.55583915147e-06
1.9357397488e-06
6.03685474503e-07
4.00031762102e-07
3.7240253219e-07
3.80534357397e-07
6.44932962482e-07
5.37946595297e-06
0.000114608763025
0.191418736652
0.216993061234
0.226395148178
0.206670729132
0.103889784481
0.035518992693
0.0129392980589
0.00478131742818
0.00158750238331
0.000407379501476
8.37689025133e-05
1.87402825575e-05
4.1766710749e-06
1.36329784029e-06
8.76595008055e-07
8.01415180492e-07
8.14490626188e-07
1.21403162311e-06
7.48139910729e-06
0.000130961636664
0.184010050348
0.211141981336
0.223909319837
0.213002432157
0.130860531961
0.0455281451292
0.0170288823126
0.00652568037402
0.00231445221648
0.000657188963438
0.000144934220402
3.45697256244e-05
8.53908806748e-06
3.01900858932e-06
1.9218566249e-06
1.72950418152e-06
1.74499022328e-06
2.32256196202e-06
1.031065675e-05
0.000148994010059
0.177311276446
0.204990187761
0.220849651168
0.220794966332
0.170157847792
0.0618462728958
0.0229172730783
0.00876153291087
0.00320232364782
0.000975368525997
0.000242212092768
6.24536695532e-05
1.70485782156e-05
6.59946226672e-06
4.19948267755e-06
3.70243803626e-06
3.70881783607e-06
4.51922504781e-06
1.45167523148e-05
0.000171295212556
0.171480036823
0.198894917854
0.217058479882
0.225430902248
0.200066517862
0.0804467144214
0.0294213917228
0.011177954153
0.00415825909427
0.00134619204932
0.000385269461469
0.000109614747872
3.35798460079e-05
1.43062751912e-05
9.12226357689e-06
7.85410370993e-06
7.79664887892e-06
8.91216994656e-06
2.13964824744e-05
0.000201599265273
0.166409059062
0.19286587451
0.212358006653
0.225871916126
0.212381550259
0.0975825854828
0.0354937949378
0.0135054776013
0.00512234547315
0.00178152485439
0.000582381465722
0.000185520741128
6.57405152303e-05
3.08028985224e-05
1.96570979658e-05
1.64546649738e-05
1.61405222484e-05
1.76546432772e-05
3.35173714843e-05
0.000245025247438
0.162114937478
0.187159949073
0.207325356392
0.224257026508
0.21881877307
0.112588778649
0.0408850703833
0.0156875152769
0.00610961243009
0.00230335717136
0.00085724290495
0.000315616198118
0.000129948372343
6.58331859044e-05
4.19063746114e-05
3.39677457277e-05
3.2791795806e-05
3.47904277651e-05
5.57076082007e-05
0.000309547310572
0.159385971879
0.182482230711
0.20302611539
0.222505881023
0.223043121481
0.122729346716
0.0452742784918
0.0176777723261
0.00717460412298
0.00295812473972
0.00126291770838
0.000554635186526
0.000261666466709
0.000139574432954
8.81104552429e-05
6.89391868355e-05
6.51497161369e-05
6.75388690337e-05
9.63452840765e-05
0.000407413984933
0.159239914573
0.180062799537
0.200648334563
0.221868267152
0.22573403221
0.122522183963
0.0469246569332
0.0191874275702
0.00837382919037
0.00386913537503
0.00190186528685
0.00098536789804
0.000526775838484
0.000292668757385
0.000182055329893
0.000137159129493
0.000126031905002
0.000127905173665
0.000168709471678
0.000555833756149
0.162090315773
0.181264140794
0.20185253761
0.223151050887
0.224721719355
0.111144846261
0.0451691987414
0.0200752760441
0.00987760676428
0.00524507685969
0.00297517912645
0.00174015559891
0.00102446098768
0.000601985365648
0.000370575711109
0.000267160157624
0.000236559853837
0.000234185651978
0.000291864441407
0.000777017695137
0.168665811243
0.186786007785
0.207406570001
0.226199224432
0.215096112238
0.0973103852296
0.043386540941
0.0217045547927
0.0123630331084
0.00754666485443
0.00479847045435
0.00305633030805
0.00191781385398
0.00117491651427
0.000736943859192
0.000509444603954
0.000427840771948
0.000410605379093
0.000489277733842
0.00109375354157
0.179842858275
0.197099871574
0.216477216116
0.22880882753
0.198361341044
0.0920094182451
0.0444500755728
0.025837306321
0.01669829488
0.0114066132875
0.0078155269377
0.00530701298873
0.00348602174132
0.00221503262525
0.00140284423167
0.000944134230604
0.000749138115998
0.000688273788909
0.000783433682387
0.0015257348087
0.195208051764
0.210598308844
0.225936276202
0.229400175874
0.183222843247
0.0981403827101
0.0518063995391
0.0334137721591
0.0237886443616
0.0175180007029
0.012739807358
0.0091065003978
0.00623637953673
0.00408515692151
0.00260793377055
0.00170514400839
0.00126551112699
0.00109668751248
0.00119076371589
0.00208532390274
0.211024692425
0.222837374734
0.232373561098
0.228789934635
0.180311458553
0.108997406989
0.065060430261
0.0454946216367
0.0347455014976
0.0271422322811
0.0209219995261
0.0157379154199
0.0112271619653
0.00756089910255
0.00483495016129
0.0030638432311
0.00210602268804
0.00168409668505
0.00172217854486
0.00277039092587
0.222638177819
0.230659374644
0.235595528369
0.228972669165
0.186007908676
0.122833407941
0.081774091221
0.0618149700381
0.0510447657632
0.0429681582756
0.0352819191665
0.0280344444904
0.0208548672118
0.0143936432969
0.00916828980886
0.00561422450013
0.00354278662772
0.00254513589126
0.00238972664252
0.00356971510712
0.229139151843
0.234676705577
0.237480694187
0.231408405983
0.19934164793
0.143004870147
0.104172555357
0.0847823413333
0.0751893147238
0.0685526975817
0.061117570367
0.0510897246864
0.0398026617264
0.0282449892491
0.0179946648051
0.0106194798988
0.00616294840654
0.003901747637
0.00323591041912
0.00446337156399
0.232268282415
0.236614400696
0.23896032372
0.235174336406
0.216429105856
0.169644728513
0.135047404819
0.118425391344
0.112320274744
0.109527575292
0.104413180334
0.0918804813071
0.0750295769555
0.0554133727474
0.0362335161092
0.0207811722771
0.0111743971398
0.00620178124987
0.00437736104898
0.00544930520715
0.233497838076
0.23741009656
0.240194925848
0.239322141372
0.230549133394
0.205391282793
0.178647838297
0.167284578183
0.166484694538
0.168398640204
0.164706550185
0.150311514671
0.127749421019
0.0995413444353
0.0691877432582
0.0404517412081
0.0207354469507
0.0102916168939
0.0060539228994
0.00655328666198
0.233516322354
0.237266705705
0.240631179982
0.242169398416
0.240105302457
0.232177784869
0.222674419505
0.220054613536
0.222079205787
0.223935338993
0.220602664071
0.204082373422
0.17799170795
0.146608517553
0.110899965674
0.0713735275541
0.03744850576
0.0172347568056
0.00855619585497
0.0078204132173
0.232427665973
0.235920456452
0.239476883167
0.24223720467
0.243416703623
0.242586871738
0.24112018576
0.241053840888
0.241204776696
0.240049568785
0.235618287693
0.222069199367
0.194442420096
0.165211619646
0.135507612877
0.0994166264835
0.0578367006264
0.026674184668
0.0118573986951
0.00925402405078
0.23023866607
0.233247991577
0.236468402453
0.239284819443
0.241208680983
0.242054325875
0.24211986973
0.241570663465
0.239722162636
0.235538936296
0.226717514588
0.203903870727
0.174068249987
0.149743412601
0.131405469748
0.110097863109
0.0744177155927
0.036067757641
0.0149680429204
0.0107009759017
0.227105123916
0.22942839281
0.231948621624
0.234172868928
0.235721639591
0.236413325802
0.236107631188
0.234203419063
0.229601301531
0.220241993827
0.199272261396
0.166871370261
0.138552733876
0.119372049896
0.109248500685
0.10137300826
0.0792580204323
0.0408401878449
0.0164583357967
0.0119978109382
0.223929503622
0.225558086905
0.227329488922
0.228845420393
0.229656779839
0.22917543567
0.22653565387
0.220334318874
0.209326550687
0.184067736826
0.150328858246
0.121061788978
0.100291594838
0.0890887834969
0.086022982481
0.0855776586316
0.0732968799463
0.0394134457355
0.0156763962356
0.0132622581141
0.22285257083
0.22336288229
0.223433247557
0.222391436775
0.219323580799
0.213193821669
0.203351280974
0.180668115495
0.149243461966
0.120338596167
0.096902315804
0.0799884383748
0.0698900409742
0.0665326495869
0.0681753031979
0.0698054974541
0.0595018844157
0.0316000650979
0.0144425193003
0.0148028557437
0.199468216636
0.192781250919
0.181601282384
0.164637228995
0.145333483183
0.127039878552
0.110371522825
0.0947170338036
0.0806981159092
0.0687923953152
0.0596109672943
0.0538365595154
0.0517140540067
0.00246402363507
0.00262764098909
0.0016210909842
0.00201029905062
0.00110074845609
0.00156932180307
0.000888971374084
0.00139379294296
0.00082638841839
0.00135553493109
0.000838505550375
0.00140007804597
0.000905086558217
0.00150775353675
0.00102293307358
0.0016776140279
0.00119681929998
0.00191479122294
0.00143787585787
0.00222981455033
0.00175822121254
0.00263516879273
0.00217221672825
0.0031447648961
0.00269315157838
0.00377293909403
0.00333668485062
0.00453601167961
0.00411641806704
0.00545442938176
0.00505375190236
0.0065576108296
0.00617191219424
0.00788614055045
0.00749841247132
0.00948397920615
0.00905343256483
0.011395976783
0.0108040760234
0.0136210360194
0.0127015416721
0.0161121836183
0.0147104435716
0.0187591686689
0.0167539174751
0.0216454210059
0.0185212325763
0.0247372446176
0.0211161664818
0.0272066508841
0.0237671755398
0.028907095564
0.0257100149782
0.0296103928498
0.0261671541308
0.0292728435867
)
;

boundaryField
{
    inletfuel
    {
        type            fixedValue;
        value           uniform 0;
    }
    inletair
    {
        type            fixedValue;
        value           uniform 0;
    }
    outlet
    {
        type            zeroGradient;
    }
    axis
    {
        type            empty;
    }
    leftside
    {
        type            zeroGradient;
    }
    burnerwall
    {
        type            zeroGradient;
    }
    front
    {
        type            wedge;
    }
    back
    {
        type            wedge;
    }
    procBoundary0to1
    {
        type            processor;
        value           nonuniform List<scalar> 
27
(
0.0904779401161
0.090447503439
0.0898112112697
0.0888077692157
0.0527912170776
0.0549494769901
0.0531361079663
0.0420026167296
0.02444848012
0.0140894630573
0.0164791602177
0.086399124116
0.0826100309789
0.078063661395
0.0730759514456
0.0679484758838
0.0627102651465
0.057395570071
0.0522900784184
0.0477044625943
0.0440392905642
0.041817770145
0.0413271706334
0.0527912170776
0.0420942918716
0.0259558155507
0.0285667083835
)
;
    }
}


// ************************************************************************* //
