/*--------------------------------*- C++ -*----------------------------------*\
  =========                 |
  \\      /  F ield         | OpenFOAM: The Open Source CFD Toolbox
   \\    /   O peration     | Website:  https://openfoam.org
    \\  /    A nd           | Version:  7
     \\/     M anipulation  |
\*---------------------------------------------------------------------------*/
FoamFile
{
    version     2.0;
    format      ascii;
    class       volScalarField;
    location    "0.04";
    object      HE;
}
// * * * * * * * * * * * * * * * * * * * * * * * * * * * * * * * * * * * * * //

dimensions      [0 0 0 0 0 0 0];

internalField   nonuniform List<scalar> 
814
(
2.26886606516e-17
1.7658284824e-17
6.62800473515e-18
2.31179788431e-15
2.3709819508e-15
1.76928972385e-15
1.19159884661e-13
1.96812955711e-13
4.54408679965e-13
3.83778370616e-12
1.14208844472e-11
8.90492784897e-11
1.15852249832e-11
2.95937382195e-11
1.43438140923e-10
3.8488573974e-11
1.00679026516e-10
4.57118437039e-10
1.80048748485e-10
4.98792353037e-10
2.17476497872e-09
7.76435245007e-10
2.07213696895e-09
7.81046686911e-09
2.83554644676e-09
6.87378984973e-09
2.21843645196e-08
9.12866611891e-09
1.97288980923e-08
5.47645058733e-08
2.66528185927e-08
5.11421258633e-08
1.23289635821e-07
7.1038625244e-08
1.21149251419e-07
2.55835752868e-07
1.7351313177e-07
2.64747355544e-07
4.92651349937e-07
3.94569787062e-07
5.45074802425e-07
9.01589680033e-07
8.58725275299e-07
1.0925837614e-06
1.6268471901e-06
1.82340545051e-06
2.17590027264e-06
2.9648796351e-06
3.80252994087e-06
4.32219621637e-06
5.47504540717e-06
7.79089363805e-06
8.54622794457e-06
1.02214532473e-05
1.56707614195e-05
1.67715276674e-05
1.92363442172e-05
3.06551831033e-05
3.23060194377e-05
3.60232382736e-05
5.64496117558e-05
5.89044047e-05
6.4429749561e-05
9.34457445952e-05
9.69167997319e-05
0.000104639577564
0.000138319936322
0.000142855949272
0.000152797461071
0.00018683040481
0.000192413963722
0.000204542353614
0.000234444851001
0.000240893797485
0.000254929497554
0.000276247156025
0.000283396321341
0.000298879818061
0.000307114744406
0.000314379539238
0.00033013197263
0.000325098308709
0.000331786358539
0.000346257370944
0.000333435999709
0.000338868123088
0.000350584673534
0.000339756197785
0.00034340617983
0.000351221448784
0.000329464461825
0.000330960145016
0.000334082532727
0.000266370513638
0.000266775099358
0.000267236059669
3.35966118898e-10
5.14097328788e-10
1.90638413951e-09
8.67363856573e-09
2.60126859366e-08
6.2708693928e-08
1.35284917531e-07
2.71320093916e-07
5.06628364021e-07
8.81556307742e-07
1.46850285645e-06
2.43349672841e-06
4.12276170571e-06
7.14593886315e-06
1.26480077771e-05
2.28325188695e-05
4.15006028842e-05
7.25671843035e-05
0.000115815683707
0.000166900136525
0.000221482319716
0.000274333567409
0.000320178397464
0.000351748453054
0.000366097889045
0.00036657238774
0.00036177364475
0.000338191574712
0.000267671280359
1.08605590087e-11
1.23833400048e-11
1.31290674503e-11
1.30579822068e-11
1.23207849088e-11
1.09436027684e-11
9.10861064913e-12
7.04128312504e-12
5.00377057345e-12
3.22248909903e-12
1.84659834591e-12
9.20949486725e-13
3.88893955877e-13
1.34858033445e-13
3.70381746794e-14
7.77241715768e-15
1.20210132684e-15
1.30964837016e-16
9.34247350192e-18
2.42417893621e-19
8.92025481204e-11
7.15012533626e-11
6.13905998987e-11
5.40439514074e-11
4.7607978072e-11
4.01764387583e-11
3.26568930262e-11
2.50013363767e-11
1.79124042673e-11
1.17909423053e-11
7.00715398369e-12
3.65675442719e-12
1.62451510993e-12
5.9396409434e-13
1.71470947071e-13
3.77993268972e-14
6.09169905585e-15
6.92137059074e-16
4.93916950219e-17
1.18123016612e-18
2.15465496746e-10
1.5329058799e-10
1.51487400747e-10
1.17089995856e-10
1.00667697143e-10
8.26807823659e-11
6.701698256e-11
5.17910819822e-11
3.83430916313e-11
2.63574813486e-11
1.66621907555e-11
9.31871097089e-12
4.42634489015e-12
1.72752336949e-12
5.26977360818e-13
1.22260607743e-13
2.05458137024e-14
2.45082173199e-15
1.76220263348e-16
5.70602475597e-18
3.87671103605e-10
4.27690417869e-10
5.56504980371e-10
2.97573162408e-10
2.19318486961e-10
1.71044768056e-10
1.37435687911e-10
1.06838291449e-10
8.40597826901e-11
6.41288453548e-11
4.34041837053e-11
2.62321911183e-11
1.35239097904e-11
5.62879288415e-12
1.8191196973e-12
4.42412273124e-13
7.76781089305e-14
9.74365253901e-15
7.1974378037e-16
7.46841993043e-17
1.37818830937e-09
4.36462268398e-09
5.38317008044e-09
2.25436250975e-09
6.37140817683e-10
3.47669667392e-10
2.74117506998e-10
2.23928742405e-10
1.90638989496e-10
1.63494838945e-10
1.3255304574e-10
9.10341694169e-11
5.06247928069e-11
2.23427843082e-11
7.54014895158e-12
1.91600126336e-12
3.50460884322e-13
4.61036301306e-14
3.6208829083e-15
1.99889085264e-16
7.92566940927e-09
2.69246334602e-08
3.49048774276e-08
1.63380519904e-08
3.20388674736e-09
8.8743402823e-10
5.54659245511e-10
4.72475876238e-10
4.52767984786e-10
4.4372259017e-10
4.00596764526e-10
3.00840493172e-10
1.79686332536e-10
8.34183538012e-11
2.9412436856e-11
7.77681604757e-12
1.48203031467e-12
2.03551623953e-13
1.7108636153e-14
9.41217620556e-16
3.10625801487e-08
9.17019194604e-08
1.24724339054e-07
7.079124515e-08
1.3182971404e-08
2.61149229223e-09
1.19990970302e-09
1.03968804637e-09
1.12900136853e-09
1.26890209405e-09
1.25488944274e-09
1.00960808297e-09
6.34899774111e-10
3.07712847294e-10
1.12847414089e-10
3.09772306858e-11
6.14605461265e-12
8.80417918098e-13
7.8897574717e-14
4.98401955975e-15
8.37898413376e-08
2.28672506373e-07
3.26014808402e-07
2.24346649016e-07
4.31108362442e-08
7.1603566374e-09
2.81617914888e-09
2.48412428702e-09
3.02073384071e-09
3.77504045823e-09
3.96508690361e-09
3.34050058502e-09
2.18443310775e-09
1.09859948905e-09
4.18076137776e-10
1.19013582787e-10
2.45780623928e-11
3.65763310016e-12
3.46530256347e-13
2.37216036088e-14
1.85156883605e-07
4.85814187339e-07
7.50329860767e-07
6.36914269747e-07
1.49437524757e-07
2.27694102586e-08
7.7777447819e-09
6.81309984829e-09
8.75299448217e-09
1.15156910388e-08
1.24763087216e-08
1.07741470794e-08
7.23737679066e-09
3.75690589634e-09
1.48101908865e-09
4.35832774817e-10
9.37176071789e-11
1.44433264305e-11
1.43828349999e-12
1.00954942171e-13
3.68247521405e-07
9.38565136942e-07
1.55956098116e-06
1.57557114038e-06
4.96362858612e-07
8.25146967739e-08
2.5503172854e-08
2.12579747201e-08
2.70330810102e-08
3.55292823013e-08
3.86234733987e-08
3.36413933037e-08
2.29715143954e-08
1.22504985187e-08
4.9965156159e-09
1.53010187571e-09
3.41747778085e-10
5.44075600272e-11
5.63532388883e-12
3.92562289063e-13
6.83022526709e-07
1.68922215379e-06
2.93627356044e-06
3.35182493902e-06
1.43638539328e-06
3.03682486515e-07
9.00287318362e-08
7.0618178254e-08
8.6088134857e-08
1.09078453436e-07
1.16388276968e-07
1.01053906875e-07
6.95704166043e-08
3.7984256628e-08
1.60190713185e-08
5.08583002192e-09
1.18183483876e-09
1.94122137062e-10
2.0882636529e-11
1.42410989303e-12
1.18135595227e-06
2.82667357597e-06
5.05894045826e-06
6.35210109676e-06
3.613841289e-06
9.7901283067e-07
3.01879581222e-07
2.32629771821e-07
2.72374784244e-07
3.2685269261e-07
3.38424263131e-07
2.90004897665e-07
2.0033232279e-07
1.11812339304e-07
4.87645857531e-08
1.60862149828e-08
3.892524563e-09
6.59728448804e-10
7.34667552855e-11
4.90000392279e-12
1.90203830114e-06
4.4037650417e-06
8.08095673848e-06
1.11084389262e-05
8.03637201669e-06
2.75081675626e-06
9.47894114848e-07
7.35806825808e-07
8.27594643431e-07
9.38456671113e-07
9.40986918552e-07
7.8903758281e-07
5.47106313885e-07
3.12108228824e-07
1.41002629775e-07
4.84331384752e-08
1.22357325376e-08
2.14384690075e-09
2.46859906742e-10
1.6242622855e-11
2.89859821662e-06
6.48540270391e-06
1.21642273234e-05
1.81973570142e-05
1.59995258772e-05
6.84616680867e-06
2.78461180005e-06
2.195283476e-06
2.36378793331e-06
2.54364990403e-06
2.46547176166e-06
2.02850553699e-06
1.41499770173e-06
8.25507417168e-07
3.87414224415e-07
1.3913506912e-07
3.68482737827e-08
6.70231405734e-09
7.9907914986e-10
5.26245967244e-11
4.38143443197e-06
9.28584191776e-06
1.76122963013e-05
2.82356164605e-05
2.89598124814e-05
1.52280440442e-05
7.47479125515e-06
6.06365111213e-06
6.28530452174e-06
6.41940988252e-06
6.01183763592e-06
4.92096016361e-06
3.4688122449e-06
2.07211826113e-06
1.01281721125e-06
3.82340703315e-07
1.06776587932e-07
2.02995824319e-08
2.51706599106e-09
1.68955357517e-10
6.86021473566e-06
1.34641991263e-05
2.51192294232e-05
4.20935788281e-05
4.83320878025e-05
3.02604547563e-05
1.81055802464e-05
1.53299469129e-05
1.54022030494e-05
1.50270135824e-05
1.35948200494e-05
1.11465800425e-05
8.05615093736e-06
4.95550891976e-06
2.52109546009e-06
1.0051217346e-06
2.98162045789e-07
5.98395271474e-08
7.78074058818e-09
5.43267198087e-10
1.10641850576e-05
2.03010126531e-05
3.66926154677e-05
6.17124205661e-05
7.55313744881e-05
5.46975474142e-05
4.00614251621e-05
3.5765975722e-05
3.49372126125e-05
3.27703285487e-05
2.89675992154e-05
2.36259111287e-05
1.7505227344e-05
1.13146733693e-05
6.02240684212e-06
2.53157114339e-06
8.03880854933e-07
1.72456346112e-07
2.38003785815e-08
1.76179836695e-09
1.8346702219e-05
3.1678547037e-05
5.55409050531e-05
9.13578951128e-05
0.000113883009854
9.4845755181e-05
8.08866576557e-05
7.73863119617e-05
7.36748245982e-05
6.71732783706e-05
5.81979935923e-05
4.73691491917e-05
3.56627850557e-05
2.38665917612e-05
1.36536807705e-05
6.1071707316e-06
2.06778828194e-06
4.78544742706e-07
7.13614850056e-08
5.70882581618e-09
3.13676170225e-05
5.12757613717e-05
8.62732452018e-05
0.000134131380409
0.000166835648126
0.000158202670082
0.000149341816653
0.000150218745775
0.000141183627274
0.000127453785631
0.000109011733173
8.92847425412e-05
6.81618689946e-05
4.71517081429e-05
2.83087063874e-05
1.37173503939e-05
5.0873318381e-06
1.29029575156e-06
2.09428667399e-07
1.83211090815e-08
5.46338195892e-05
8.44965976377e-05
0.000133158219833
0.000191786990687
0.000236032896985
0.000246809053201
0.000251177072783
0.000257763528028
0.000242432977372
0.000217937410915
0.000186903060057
0.000154777650707
0.000120523487728
8.60897519285e-05
5.41966455554e-05
2.82040903438e-05
1.14363489453e-05
3.21840350449e-06
5.80717014705e-07
5.67044047339e-08
9.19791428283e-05
0.000133831907845
0.000195322500976
0.000263820631958
0.000323022432168
0.000360726230531
0.000381001427794
0.000393290122182
0.000373982359443
0.000337293987818
0.000292218235996
0.000245793957891
0.000195893918557
0.000144718910848
9.53723016157e-05
5.3208053476e-05
2.36492985789e-05
7.47130320765e-06
1.52815288625e-06
1.68633806952e-07
0.000141832979451
0.000195642595691
0.000269266435742
0.000350449654121
0.000427954576036
0.000491388805745
0.000528129324291
0.000542550053354
0.000523638953617
0.000481217046074
0.000423299425973
0.000363150318198
0.000297077596252
0.00022687492392
0.000156013070509
9.28933675174e-05
4.49826470998e-05
1.59488839427e-05
3.73395713985e-06
4.66933254001e-07
0.000198793656173
0.000263863338958
0.000350212596889
0.000447088269133
0.000542880416564
0.000626843780373
0.000678334191738
0.000696837707042
0.00068149522018
0.00064148566206
0.00058121700011
0.000508446578118
0.000428692422224
0.000338675233557
0.000242310808704
0.000152052459576
7.93751312894e-05
3.14188089394e-05
8.38727210572e-06
1.20367214105e-06
0.0002592143846
0.000335838610949
0.000436599127518
0.000551077047328
0.000664323846999
0.00076302042826
0.000827057115265
0.000852898351759
0.000845072788262
0.000811974262536
0.00075580463969
0.000678661714555
0.000592232128852
0.000487581679244
0.000365754299757
0.000239294934307
0.000132125029872
5.69850874239e-05
1.70692496906e-05
2.78074686347e-06
0.000317231184528
0.000404200082525
0.000518307384185
0.000649074453047
0.00077888073471
0.000888017548863
0.000963228346407
0.000997824638406
0.000996387993374
0.00096371953185
0.000904976462246
0.000832910987119
0.000752271137127
0.000652920529437
0.000523986183545
0.00036293198718
0.00020986760869
9.66763620095e-05
3.17979602014e-05
5.84850710713e-06
0.0003668497551
0.000461487981202
0.000585532881485
0.000728299888955
0.000870187529903
0.000986760716294
0.00106078274064
0.00109014378504
0.00107557587977
0.00102315162431
0.000955440388337
0.000886990485512
0.000824429371595
0.00075976026088
0.000666493899453
0.000511360272448
0.000317260404893
0.000153160410463
5.34814089318e-05
1.08282780002e-05
0.000398721283081
0.000493527126256
0.00061733078148
0.000758995429365
0.00089692189705
0.00100319243888
0.00105968671709
0.00105949902535
0.00101503337023
0.000948327253257
0.000876045995435
0.000811962232913
0.000768199728169
0.000744375059535
0.000714487592879
0.000621589678018
0.000429675608216
0.000220180010045
8.00681367189e-05
1.72145057273e-05
0.000409015272911
0.000494680428378
0.000604029183944
0.000724408770493
0.000834213239816
0.000905884764296
0.000920162453164
0.000889605341029
0.000836489957846
0.000775361272971
0.000715188943126
0.000667448751435
0.00064564322942
0.000653951704877
0.000675541017125
0.000658552163743
0.000518698863732
0.00028351673442
0.000103005870612
2.16635691902e-05
0.000401334051401
0.000469116435906
0.000551748785149
0.000633854566737
0.000693620749223
0.00071329924041
0.000696029619552
0.000662372283298
0.000626067074728
0.000589715979314
0.000557279955609
0.000537592838549
0.000540216444321
0.000568617805995
0.000614408361998
0.000641274619439
0.000558807734065
0.000319042677668
0.000111658198827
2.20652840923e-05
0.000384520464407
0.000425601277672
0.000470007107975
0.000504951286071
0.000518400945768
0.000508494601031
0.000487883085192
0.000469826876741
0.000457675624368
0.000449318898906
0.00044582880154
0.000452054054877
0.000474133223523
0.000514135378139
0.000565483928468
0.00060247240911
0.000547558396281
0.000313976244221
9.87594259037e-05
1.66095971461e-05
0.000346833598458
0.000359904086769
0.000370133407213
0.000372565073804
0.000366220203475
0.000356434375106
0.000351027750285
0.000352425424546
0.000359532845624
0.000370422503002
0.000385712447717
0.000408085751907
0.000440036922678
0.000480441169271
0.000521281086899
0.000540595144921
0.000471191092109
0.000251482441656
7.54582699305e-05
1.22102986752e-05
0.000268411637154
0.000268578973009
0.000267987485942
0.000267639597701
0.000269523591774
0.000275525744772
0.000286404048946
0.000301107099913
0.000318612772959
0.00033842613587
0.00036156288291
0.000387849768387
0.000416277877415
2.0280396494e-15
3.01972333045e-15
1.88345836624e-15
4.56683385887e-15
2.79287654518e-15
7.28768054634e-15
6.71376418112e-15
1.42823962314e-14
1.99245527446e-14
3.18038073851e-14
6.26160305802e-14
7.75000948627e-14
1.95664678823e-13
1.9958498338e-13
6.00188264911e-13
5.34864077497e-13
1.82075434591e-12
1.49115843868e-12
5.56733802266e-12
4.33732579928e-12
1.73436296853e-11
1.31351107951e-11
5.5221669102e-11
4.09887641302e-11
1.78746116372e-10
1.29501013663e-10
5.80659414278e-10
4.06554438911e-10
1.86463864794e-09
1.24681790913e-09
5.82218239094e-09
3.68562473576e-09
1.7473774575e-08
1.03939849699e-08
5.00135427406e-08
2.7725038771e-08
1.34904214061e-07
6.9487604107e-08
3.41714146714e-07
1.62832296927e-07
7.9092801717e-07
3.5100835048e-07
1.64418286754e-06
6.80393355589e-07
2.9928037753e-06
1.09395488755e-06
4.76192271734e-06
1.39631807041e-06
5.38590815835e-06
1.52630782616e-06
4.67495216945e-06
1.34496365487e-06
3.26440340421e-06
1.00812167108e-06
2.47722436114e-06
8.13570744667e-07
)
;

boundaryField
{
    inletfuel
    {
        type            fixedValue;
        value           uniform 0;
    }
    inletair
    {
        type            fixedValue;
        value           uniform 0;
    }
    outlet
    {
        type            zeroGradient;
    }
    axis
    {
        type            empty;
    }
    leftside
    {
        type            zeroGradient;
    }
    burnerwall
    {
        type            zeroGradient;
    }
    front
    {
        type            wedge;
    }
    back
    {
        type            wedge;
    }
    procBoundary0to1
    {
        type            processor;
        value           nonuniform List<scalar> 
27
(
0.000209540689901
0.000209873975639
0.000210330659759
0.000210913972542
0.000442665500376
0.000456831846114
0.000432838226553
0.000337681928955
0.00018120340779
5.54501771757e-05
8.98801042091e-06
0.000212339662026
0.000215283013801
0.000220035142307
0.000227170183269
0.000237230254606
0.000250470196597
0.000266565533991
0.000285029474348
0.000305231946415
0.000326223221337
0.000347190248151
0.000365191780986
0.000442665500376
0.000378102871659
1.93666077911e-06
6.63218056453e-07
)
;
    }
}


// ************************************************************************* //
