/*--------------------------------*- C++ -*----------------------------------*\
  =========                 |
  \\      /  F ield         | OpenFOAM: The Open Source CFD Toolbox
   \\    /   O peration     | Website:  https://openfoam.org
    \\  /    A nd           | Version:  7
     \\/     M anipulation  |
\*---------------------------------------------------------------------------*/
FoamFile
{
    version     2.0;
    format      ascii;
    class       volScalarField;
    location    "0.04";
    object      k;
}
// * * * * * * * * * * * * * * * * * * * * * * * * * * * * * * * * * * * * * //

dimensions      [0 2 -2 0 0 0 0];

internalField   nonuniform List<scalar> 
814
(
21.2484398697
18.7466015802
10.8694633818
21.9228070682
18.9652979808
9.45596215789
21.5214656568
19.3027242544
8.95014176175
22.0217339581
24.1376070076
20.5343790029
23.0305779243
28.3574092277
36.2925309547
24.4611954852
32.9005097779
47.2713874556
26.6346529791
38.173460141
56.7887285431
29.6448380175
43.9737182766
64.0126010407
33.624761418
49.9543494954
69.3036989386
38.5867980014
55.7935482381
73.3654711708
44.3790924162
61.2333556964
76.8457922702
50.6548164601
66.0800240892
79.9467533976
56.9119752836
70.1641214839
82.3858380231
62.5928892721
73.2965643324
83.7683615247
67.1146049255
75.2325455995
83.7605756616
69.8282928773
75.5321378223
81.9425116382
69.9420066678
73.5227163303
77.7059409867
66.3653412248
68.1753961446
70.1805491419
57.5053527314
58.0124247057
58.1646965839
42.9432087672
42.684081986
41.7121261549
26.4363728958
25.9874505174
24.8635220309
14.3102732772
13.9964752519
13.2728219669
8.45357749904
8.28621701328
7.91949544054
6.58765537565
6.4877693057
6.27619956774
6.32671243062
6.25438913135
6.10058755888
6.56956763187
6.51238060979
6.39014469736
6.95994223334
6.9169462665
6.82444170102
7.39357364654
7.36891388511
7.31488094058
8.04033404081
8.04159048099
8.0467175521
10.6388538297
10.6902006999
10.8110751165
13.9964221428
13.9881217198
13.9790757944
5.7200774765
5.71664342179
5.62443042726
5.91230294556
24.3337718826
38.9323871621
47.7707820762
54.1797340107
60.0188227898
65.9875261696
72.1126786308
77.8654641525
82.4392046964
85.097597235
85.5711933043
83.5646473434
78.5797225221
69.8961174159
56.6738575828
39.5569093918
23.0076228755
12.189085658
7.38870841071
5.97450650675
5.88046483421
6.21055164838
6.68360919763
7.22728106211
8.0469863076
10.9808155484
13.9637057332
5.47150795841
0.0156816786848
0.0296043978909
0.0361200719565
0.0384631053126
0.0379659794321
0.0364691979539
0.034362815908
0.0322012398814
0.0299330123719
0.0277617658699
0.0256091405594
0.0236696248255
0.021861294721
0.0203696167739
0.0189872962743
0.0179958570484
0.0170648535723
0.0165257284042
0.0160411067512
0.016018178967
0.0238997606336
0.0407132552983
0.0594976798379
0.0601693568588
0.0581795743567
0.0531975417193
0.0474011315591
0.041757877573
0.0367836171912
0.0327918269056
0.0293884564658
0.0266011324157
0.0241680302917
0.0222084629923
0.0204359323352
0.0191394905921
0.0179563481076
0.0172373010579
0.0166212478409
0.0166089999387
0.10183171026
0.0435846226812
0.0619903320786
0.0734898509285
0.0746102223024
0.0681092994919
0.0584679038079
0.0493048504779
0.0414710923325
0.0357034960409
0.0313074576786
0.0279571452649
0.0252083487522
0.0230293790405
0.0211197936651
0.0196782213044
0.0184174859391
0.0176123988036
0.016939819918
0.0170555798345
0.992967345757
0.107133964146
0.0709824753733
0.0682251547096
0.0728766645948
0.0758297360208
0.0692971124466
0.0581124173048
0.0472122813089
0.0391080559439
0.0333970490394
0.0293472866445
0.0262423135067
0.0238419784483
0.0218005909172
0.0202212546426
0.0188848840147
0.0180047293057
0.0172732411369
0.0222439059272
2.32651531427
0.472647299774
0.167354803631
0.0912946633296
0.0698321503931
0.0707539908887
0.0703264006369
0.0635940527594
0.0528232347424
0.0430844792056
0.0359964309863
0.0310943272753
0.0275179214541
0.0248363946775
0.022606222883
0.0208702739881
0.0194246033757
0.0184740352502
0.0177591348435
0.025563469915
5.86928839561
1.51896380659
0.583884541353
0.206626243905
0.0799645483727
0.0606192974409
0.0645283082438
0.0643464926821
0.0566869701306
0.0469260207796
0.0389119999004
0.033165322316
0.029035446195
0.0260134578809
0.0235397535822
0.0216253322489
0.020046165205
0.0190161708385
0.0184243906
0.0285845768981
10.9512380897
3.30682166944
1.28924896282
0.367309344581
0.0952705887267
0.0534943679443
0.058681894435
0.0627927052147
0.0585521510301
0.050027751678
0.0417875748473
0.0353803886482
0.0306973154173
0.0272981582373
0.0245464443743
0.0224294518241
0.0207034163961
0.0195517209433
0.0192033973412
0.0315500589473
17.6871002441
6.05723738189
2.24108094625
0.552713070797
0.105950448227
0.0511957695877
0.0553590489317
0.0607924118777
0.0588939951106
0.0522176741608
0.0444090004709
0.0376185568166
0.0324437553465
0.0286523075436
0.0256006904829
0.0232572084299
0.0213718389595
0.0200638332377
0.0199088603503
0.0343102834165
26.2649189477
10.1934034177
3.77025607763
0.964523419703
0.15214035128
0.0556058007316
0.0533823155442
0.05832835972
0.0581881910542
0.053561089789
0.0466765995192
0.0398074798655
0.0342378422964
0.0300601466695
0.026692430839
0.024102812855
0.0220422076738
0.0205784560386
0.020456718461
0.0361196688364
36.477754147
16.066495937
6.24855491391
1.74176829809
0.259858745033
0.0676642967763
0.051479073049
0.0549562829688
0.0566115380046
0.0541307451891
0.0484966028958
0.0418511184434
0.0360162527297
0.0314833815402
0.0277915086372
0.0249418543967
0.0226884110371
0.0210871473912
0.020883962484
0.0369128569773
47.5620241245
23.5183341548
9.80743053461
2.89864905019
0.462364383618
0.0951663511694
0.0510557017638
0.0510682762992
0.054322855055
0.0539601411077
0.0497448685182
0.0436076259975
0.0376716506821
0.032841869724
0.0288331826607
0.0257168856517
0.023255609345
0.0215309335206
0.02119922416
0.0369631505228
58.3305718746
31.973473162
14.4190781295
4.45388038595
0.796279078814
0.143429951683
0.0540720979108
0.0476352718098
0.0515991471668
0.0530582822606
0.0503011970045
0.044907428036
0.0390582170712
0.0340138227231
0.0297157505832
0.0263395012449
0.0236642833109
0.021822122819
0.0213434334221
0.0365495895594
67.6115904838
40.6849147622
19.8700768291
6.4637815287
1.26842290757
0.212709358514
0.0615891237053
0.0453027929409
0.0486975178085
0.0514832175153
0.050108843436
0.0456074179398
0.0400209883088
0.0348579470549
0.0303160049175
0.0267026371591
0.0238233668202
0.0218695173403
0.0212446337157
0.0358301336899
74.5264334324
48.7180049784
25.5730388047
8.78962478624
1.82365023533
0.300781368088
0.074056344202
0.044270273765
0.0457945409846
0.0493513917448
0.049156331568
0.0455781905066
0.0403917830831
0.0352121732899
0.0304979018237
0.0266942664332
0.0236471435354
0.0216025922762
0.0208699744133
0.0349802746993
78.1910954114
54.7487368203
30.3592793889
10.8859592445
2.29679766359
0.386985674437
0.0893259587505
0.0442185027089
0.0430958453074
0.0468814035523
0.0475734428888
0.044791350137
0.0400615654201
0.034977428543
0.0301886684417
0.0262622457508
0.0231102435357
0.0210161458668
0.0202586521843
0.0342492337635
77.882182386
57.1367730842
32.822071713
11.9952884343
2.4907209741
0.425500352
0.0982963538631
0.0440355638084
0.0409841526853
0.0445509807623
0.0455892587926
0.043293193944
0.0389639874795
0.0340660418479
0.029347458833
0.0254128936231
0.0222590753291
0.0201858619277
0.01953533811
0.0339586179439
73.4396212499
54.5802915444
31.3040820665
11.3365608896
2.24753421239
0.38563202111
0.0922290345598
0.0428678045008
0.0401394484312
0.0430365847001
0.0436311647264
0.0412486881011
0.0371654732165
0.0325357858158
0.0280608959081
0.0242955941494
0.0212790708225
0.0193173955687
0.0189409984493
0.0344812133052
64.3266765796
46.7648956939
25.3481779685
8.57698644514
1.68973078561
0.304239829792
0.0796956686698
0.043829646077
0.0418797199065
0.0431758904337
0.0421192144136
0.0390928707897
0.0349197828072
0.0305849061201
0.0265368433633
0.0231649832364
0.0204653429326
0.0187151598982
0.0188110843605
0.0361828697278
50.2653679023
34.3691364335
16.9211790039
5.40440598172
1.224211127
0.251143584442
0.074124723106
0.0510812392461
0.0480452802004
0.0459383327488
0.0421258505176
0.0376201781402
0.0329342038223
0.028707319496
0.0251712784937
0.0224020167051
0.0202229319922
0.0187795276806
0.0195373335266
0.0393689550353
33.1715029365
20.8948350274
9.46665066348
3.13054153332
0.928912562975
0.252811088988
0.0872331002258
0.0672313644272
0.0605843538541
0.0536527151846
0.0461829636446
0.039122306096
0.0329587981969
0.0280831779333
0.0246363380999
0.0224245007665
0.0209173213806
0.0198996377013
0.0214767136429
0.0442210699342
18.3663246509
11.028366036
5.04007598264
1.98647050701
0.797736234212
0.278550339937
0.117261828591
0.0931839578209
0.0825679965671
0.0713184858266
0.0598876674161
0.0490635102796
0.039271558292
0.0316112111258
0.0264585699108
0.0238818853734
0.0228478380293
0.0223434193219
0.024870421332
0.050794480255
9.71852241508
6.08732522406
3.16094118433
1.54986412771
0.756308838899
0.316272635927
0.159130018818
0.130125880336
0.119198775032
0.108133780922
0.0954723501095
0.0798326950539
0.062352643263
0.0466738432649
0.034778942172
0.0284586408762
0.0264560429341
0.0262239862177
0.0297648140794
0.0590142150875
6.21824003485
4.3421830721
2.62718725616
1.47308559985
0.787286486637
0.381299590396
0.220333333376
0.188504678539
0.183799038294
0.182129121967
0.177023862103
0.156969844712
0.126136243655
0.0918426776623
0.061164265317
0.0414883965562
0.0333019845895
0.0316910250873
0.0360269204579
0.0689202679927
5.29524052571
4.02001297268
2.65705242497
1.57192484747
0.871622173283
0.475371169523
0.316239350295
0.29233907012
0.309969388524
0.33660392712
0.355209502655
0.332202780934
0.279112375165
0.208260681232
0.136339262978
0.078415498028
0.0490235254681
0.0399005658453
0.0435800146317
0.0806145845237
5.36963963322
4.28833706581
2.99172558688
1.84181811539
1.05843524003
0.642691983849
0.494263509008
0.49987378816
0.573769828206
0.657227082987
0.689796916048
0.650719376927
0.564952647262
0.447156974292
0.314994324437
0.175898570589
0.0888723905743
0.055256340262
0.0528767291725
0.0948692596102
5.78443792689
4.80479626741
3.53416707071
2.30786489668
1.42609888431
0.98179396912
0.884829834769
0.986673598421
1.14599528822
1.21808736778
1.16031359675
1.0394147444
0.893090593898
0.749673300633
0.595476325317
0.380407711513
0.183473688839
0.087809556445
0.0659356676775
0.1127575215
6.34236631101
5.49994947209
4.32963010122
3.11520335751
2.20927143091
1.82026599624
1.86713498054
2.03391143597
2.01467851377
1.81195561499
1.5215758538
1.23530191358
1.00519779836
0.866034543161
0.791286569961
0.630131669572
0.341981472923
0.146703750027
0.0856532399593
0.136004970915
7.00292691929
6.38936891245
5.49620831816
4.59019637896
4.03651327417
3.90588362637
3.70346837964
3.23401682064
2.63007267839
2.04211855974
1.5407434854
1.14608542545
0.873442526612
0.736183898081
0.742874114288
0.763811242548
0.526456330737
0.227889107468
0.110690277231
0.169194052482
8.02717908709
7.87876035306
7.67155163748
7.59251982695
7.5616857049
6.93963198808
5.50948771083
3.94362094399
2.72794304009
1.89916481242
1.33752481309
0.952236998303
0.702848821283
0.579987358043
0.599225868608
0.724056957777
0.636046691078
0.290411992825
0.131690654924
0.218806812787
11.3380797448
11.8640861284
12.2340162969
12.0168304529
10.6524060653
8.11855115626
5.38937378817
3.34951018405
2.11009294767
1.399382465
0.969626109525
0.692455711262
0.529689976127
0.470047637578
0.516455733172
0.652358807665
0.639762885647
0.299028166361
0.141780870311
0.297214487818
13.8590425026
13.2402995522
11.8473368838
9.61797036692
6.9079654629
4.40623927782
2.68120754575
1.67525985732
1.12890175408
0.803815723148
0.595725102729
0.466143022424
0.406655974551
0.411292038002
0.480115761293
0.586118273262
0.532820277252
0.245404409215
0.16354816842
0.403865669533
5.07188694128
4.26505068317
3.2868431013
2.35309069109
1.61996410221
1.12631950782
0.83069407267
0.647869880378
0.525082222774
0.435506437959
0.376050548414
0.348619873013
0.355333405923
0.0709859823584
0.0739236039644
0.124599989378
0.0890745279506
0.125045685681
0.0948328195819
0.118187694052
0.091446315117
0.109400165631
0.0855446017603
0.100431802223
0.0793570624817
0.0923747572799
0.0737180886452
0.0854797091027
0.0688770819853
0.0798224906586
0.0649766758829
0.0754167367549
0.0621045607255
0.0723320084361
0.0603411716487
0.0706806962931
0.0597548283948
0.0705661375318
0.0604119158297
0.0721008565706
0.0623655530708
0.0753513873499
0.0656950953053
0.080407685825
0.0705098089434
0.0873132187774
0.0770088560456
0.0961713862664
0.0854700483774
0.107014340988
0.0962299565094
0.119724188413
0.109543045836
0.133910692471
0.125864625701
0.150028476091
0.146746473116
0.168231660067
0.166325979588
0.185636664505
0.177720499447
0.218394519766
0.195538629379
0.266605540576
0.218688412419
0.330612488688
0.250514527866
0.407869276312
0.293873673619
)
;

boundaryField
{
    inletfuel
    {
        type            turbulentIntensityKineticEnergyInlet;
        intensity       0.05;
        value           uniform 13.5;
    }
    inletair
    {
        type            turbulentIntensityKineticEnergyInlet;
        intensity       0.05;
        value           uniform 0.015;
    }
    outlet
    {
        type            inletOutlet;
        inletValue      nonuniform 0();
        value           nonuniform 0();
    }
    axis
    {
        type            empty;
    }
    leftside
    {
        type            kqRWallFunction;
        value           nonuniform List<scalar> 
33
(
0.0709859823584
0.0739236039644
0.016018178967
0.0166089999387
0.0170555798345
0.0739236039644
0.0890745279506
0.0948328195819
0.091446315117
0.0855446017603
0.0793570624817
0.0737180886452
0.0688770819853
0.0649766758829
0.0621045607255
0.0603411716487
0.0597548283948
0.0604119158297
0.0623655530708
0.0656950953053
0.0705098089434
0.0770088560456
0.0854700483774
0.0962299565094
0.109543045836
0.125864625701
0.146746473116
0.166325979588
0.177720499447
0.195538629379
0.218688412419
0.250514527866
0.293873673619
)
;
    }
    burnerwall
    {
        type            kqRWallFunction;
        value           nonuniform List<scalar> 7(10.8694633818 9.45596215789 8.95014176175 0.0156816786848 0.0238997606336 0.10183171026 5.91230294556);
    }
    front
    {
        type            wedge;
    }
    back
    {
        type            wedge;
    }
    procBoundary0to1
    {
        type            processor;
        value           nonuniform List<scalar> 
27
(
0.93114846206
0.936026222775
0.924153307158
0.903295199522
0.390328127862
0.447602227311
0.473776494009
0.372800679234
0.21169886477
0.213717851307
0.555478103347
0.848873299874
0.758992072686
0.66527758117
0.581881273048
0.512688798392
0.455271884001
0.406531223338
0.365174205351
0.331487224608
0.309597767755
0.303981733067
0.313357395051
0.390328127862
0.333030587941
0.490191852766
0.344710009869
)
;
    }
}


// ************************************************************************* //
