/*--------------------------------*- C++ -*----------------------------------*\
  =========                 |
  \\      /  F ield         | OpenFOAM: The Open Source CFD Toolbox
   \\    /   O peration     | Website:  https://openfoam.org
    \\  /    A nd           | Version:  7
     \\/     M anipulation  |
\*---------------------------------------------------------------------------*/
FoamFile
{
    version     2.0;
    format      ascii;
    class       volScalarField;
    location    "0.04";
    object      N2;
}
// * * * * * * * * * * * * * * * * * * * * * * * * * * * * * * * * * * * * * //

dimensions      [0 0 0 0 0 0 0];

internalField   nonuniform List<scalar> 
814
(
2.8596744639e-08
2.23361149576e-08
8.25771506729e-09
3.0909944736e-06
3.23194336238e-06
2.46167493911e-06
0.000167453469418
0.000285791953334
0.000686504179755
0.00556461267269
0.0172881673057
0.141620804444
0.0138504494953
0.0356275722592
0.169365142017
0.0253897525784
0.0570745716766
0.195535097607
0.0413914194956
0.0829034430104
0.221700129702
0.0619451678695
0.111918227609
0.245614226901
0.0874239236136
0.142432880359
0.266266895245
0.117837307431
0.173828486557
0.28411063423
0.152556490992
0.20547805755
0.300350770106
0.190213852745
0.236749055677
0.315895986215
0.229010624822
0.267282671047
0.33124040923
0.267341256803
0.296983820554
0.347019090889
0.304417472579
0.326310922341
0.364303640699
0.340446440367
0.356132626318
0.384405070592
0.37668955305
0.387820257679
0.408759553198
0.415693653529
0.423746316834
0.43957501238
0.461398561944
0.467507555495
0.480059680251
0.516250504052
0.521135384299
0.531474742408
0.574513198339
0.578323020151
0.586526811615
0.62188102965
0.624694953115
0.63076832294
0.651016129514
0.653108725109
0.657587754377
0.665568059587
0.667242526908
0.670802094893
0.671572834742
0.672981563185
0.675977743027
0.67268866471
0.673907784807
0.676497205049
0.670472494074
0.671514150975
0.673721026249
0.665585657123
0.6664262027
0.668210319307
0.65860307398
0.659232875209
0.660565013635
0.65309326604
0.653580126254
0.654622797193
0.671113567518
0.671590526472
0.672685127396
0.727392870931
0.727540817023
0.7282008906
0.560240082878
0.493997549234
0.441469098469
0.42207909087
0.409567364442
0.400992584764
0.395606341072
0.392781498955
0.392050093424
0.393031629714
0.396419525922
0.403187064701
0.414758408512
0.432532220537
0.458647646958
0.496037502479
0.54517839599
0.597628193761
0.639016036359
0.663646622204
0.675568941579
0.679962817217
0.679929589683
0.67665045038
0.670583941054
0.662341853847
0.656036970365
0.674224809852
0.729232298698
0.76799558646
0.767996993805
0.767998473972
0.767999292582
0.767999691744
0.76799987425
0.767999952344
0.767999983305
0.767999994651
0.767999998383
0.767999999459
0.767999999726
0.767999999783
0.767999999795
0.767999999799
0.767999999803
0.767999999809
0.767999999812
0.767999999779
0.767999999751
0.767470308996
0.767816216568
0.767946164108
0.767981748044
0.767993575197
0.767997755538
0.767999259072
0.767999772531
0.767999936151
0.7679999838
0.767999996049
0.767999998765
0.767999999281
0.767999999369
0.767999999389
0.767999999401
0.767999999415
0.767999999368
0.767999998356
0.767999989191
0.763085400268
0.767037071073
0.76764245329
0.767876087838
0.767949737854
0.767982165411
0.767994370182
0.767998461033
0.767999614773
0.767999913475
0.767999982139
0.767999996014
0.767999998422
0.767999998785
0.767999998849
0.767999998871
0.767999998889
0.76799999851
0.767999986771
0.767999613461
0.73702204543
0.762650229124
0.765048068293
0.766851489981
0.767566886778
0.767864374945
0.767959663898
0.767990540855
0.767998000973
0.767999582276
0.767999923772
0.767999986092
0.767999996136
0.767999997574
0.76799999778
0.767999997828
0.767999997824
0.767999995876
0.767999906261
0.767991145633
0.706430589955
0.742636814392
0.755626119587
0.762525420879
0.765880010676
0.767250494566
0.767766377159
0.767944296539
0.767990157356
0.767998362989
0.767999694876
0.767999946871
0.767999988752
0.767999994602
0.767999995389
0.767999995519
0.767999995445
0.767999990393
0.767999822438
0.767989697823
0.664349281254
0.712479279499
0.736929436369
0.75377104922
0.762769215604
0.766259940753
0.767470807881
0.767862476876
0.767971513611
0.767995243607
0.767999116314
0.767999842869
0.767999969297
0.767999987913
0.767999990418
0.767999990773
0.767999990543
0.767999980339
0.767999723407
0.767989637325
0.625789524037
0.685181947262
0.719443896904
0.745935985637
0.760203437515
0.765488136885
0.767225355053
0.767774312259
0.767943721776
0.767989297303
0.76799788567
0.76799960157
0.767999921448
0.767999972195
0.767999979482
0.767999980506
0.767999980015
0.767999961765
0.767999583018
0.767988766004
0.593417261869
0.664277232398
0.707811714481
0.742093079245
0.759555073592
0.765249126901
0.767071752714
0.767689469381
0.767908379661
0.767979426897
0.767995923175
0.767999141844
0.767999816566
0.767999936069
0.76799995525
0.767999958185
0.767999957347
0.76799992778
0.767999397878
0.76798717215
0.566120382417
0.64517850973
0.695795186406
0.736236010521
0.7582900128
0.764878143119
0.766868597426
0.767581866071
0.767861076584
0.767964286437
0.767992610752
0.767998316219
0.767999601436
0.767999854715
0.767999901466
0.767999909811
0.767999908652
0.767999864033
0.767999162587
0.767985341815
0.542508342385
0.625574559881
0.681058986244
0.726770550447
0.755308453957
0.763984301267
0.766512772649
0.767431021248
0.767798207373
0.767942588109
0.767987234189
0.767996876898
0.767999171434
0.767999673309
0.767999782083
0.767999804652
0.767999804106
0.767999739829
0.767998845842
0.767983323381
0.522133451596
0.606086305257
0.664981015273
0.715392547786
0.750756705527
0.762512964685
0.765998175082
0.767236896794
0.76772131743
0.767914918113
0.767978628734
0.76799429153
0.767998301922
0.767999269288
0.767999517637
0.767999579505
0.767999583025
0.767999493613
0.767998374894
0.76798082698
0.504675705706
0.587094522445
0.648166593667
0.703274397777
0.745103271101
0.760764813009
0.765426898091
0.767026390535
0.767638262957
0.76788244239
0.76796577144
0.767989770249
0.767996534291
0.767998370058
0.76799893429
0.767999101056
0.767999121488
0.767999000951
0.767997604479
0.767977434636
0.489581244507
0.568587932023
0.630744174129
0.690500537991
0.738928596254
0.759022276848
0.764885531206
0.766822517181
0.767553809671
0.767843628665
0.767947463986
0.7679820953
0.767992916378
0.76799637805
0.767997656358
0.767998097044
0.767998175463
0.767998019687
0.767996246955
0.767972573268
0.476831327368
0.551290174145
0.613844029048
0.678110521387
0.73300511352
0.757372925578
0.764391947443
0.766628954759
0.767465488287
0.767795359219
0.767920544372
0.76796816499
0.767985365422
0.767992011396
0.767994888188
0.767996018892
0.767996276234
0.767996093956
0.767993761293
0.767965350123
0.468729132402
0.537213771957
0.599988334097
0.668480369513
0.728880150846
0.756160230218
0.763975216848
0.766447732732
0.767365883783
0.76773101445
0.767878158543
0.767941354967
0.767969399732
0.767982574879
0.767988986758
0.767991784241
0.767992553936
0.767992406523
0.767989208228
0.767954393905
0.468269998287
0.529958729791
0.592424555096
0.664414049499
0.728063769539
0.756035998867
0.763799105084
0.766300206278
0.767244568807
0.767634886869
0.767807292216
0.767891024094
0.767936491755
0.767962573293
0.767976668909
0.767983319353
0.767985464498
0.767985588039
0.767981097446
0.767937777995
0.476665061969
0.533541650263
0.596192616937
0.669310531289
0.731742718308
0.757186343318
0.763929974329
0.766187686952
0.767075860086
0.767479806132
0.767682814658
0.767799649701
0.767873155785
0.767921408353
0.767951335043
0.767966722912
0.76797236673
0.767973519878
0.767967283777
0.767913015371
0.496057844699
0.55001359565
0.613679884442
0.684823951866
0.738608609205
0.758700203769
0.764043492544
0.765967191286
0.766782314024
0.767210240678
0.767464798364
0.767636248353
0.767757165486
0.767843903039
0.767901038846
0.767934821634
0.767949149111
0.767953311797
0.767945108818
0.767877552818
0.529048266908
0.580844048766
0.642691160231
0.704204076228
0.744533208601
0.75933126269
0.763839965514
0.765462104067
0.766268390231
0.766751879979
0.767098380633
0.767353807415
0.767552320546
0.76770268661
0.767808838866
0.76787613088
0.767908936023
0.767921032147
0.767911968317
0.767829177672
0.574516115612
0.62161653404
0.674711619595
0.720653880543
0.748021046392
0.758753907325
0.763000601657
0.76458334019
0.765444064563
0.766034190491
0.766509060746
0.766886850717
0.767202426186
0.7674555633
0.767644877917
0.767772833707
0.767842567053
0.767872567416
0.767865822071
0.767766482135
0.621648043538
0.659555694769
0.69924277752
0.730625370437
0.749126081149
0.757595599973
0.761575850652
0.763250579887
0.764216344276
0.764946794046
0.765575881729
0.766117866901
0.766607780762
0.767026071753
0.767358551261
0.767593775576
0.767733618308
0.767801199858
0.767805019534
0.767689641518
0.656745895016
0.684831535735
0.713135090879
0.735083872126
0.748761380035
0.756076401604
0.759795755488
0.761507405474
0.762472800585
0.76325546637
0.764040470271
0.764793807102
0.76555163973
0.766253064477
0.76684684035
0.767279052028
0.767552179703
0.767695226124
0.767727561091
0.767599785233
0.67654387891
0.697660394121
0.718877882541
0.735772888397
0.747135002226
0.753882571175
0.757471416546
0.759139676149
0.759989232344
0.760637550087
0.761412602124
0.762450930558
0.763607479914
0.76480121143
0.765888327267
0.766709339079
0.767239909488
0.767530515124
0.767628132352
0.767498933304
0.685675792011
0.702683239716
0.720000349862
0.734334021372
0.744530788627
0.750916981719
0.754296665902
0.755725819817
0.756230244291
0.756513200871
0.757104614554
0.75843092879
0.760133541844
0.762090473963
0.764024623518
0.765630585448
0.76668142996
0.767262756417
0.767494305577
0.767387188338
0.688393640352
0.702853373916
0.717897146661
0.730846834484
0.740426971861
0.746568714285
0.749606388044
0.750575243745
0.750531777737
0.750398248849
0.751021901615
0.752690834088
0.755021461473
0.757804477156
0.760777526414
0.763638964157
0.765673932413
0.766810657446
0.767302131782
0.767261797566
0.687156669306
0.699757227496
0.71315383861
0.725085422311
0.734140555481
0.739817939279
0.742401913674
0.742922735241
0.742740687644
0.743169085664
0.744720062469
0.747183990096
0.750118564773
0.753281841327
0.756744401349
0.760590107333
0.763975339182
0.766075299774
0.767024815756
0.767118590425
0.682781521495
0.693589637802
0.7052889065
0.715956590772
0.724143186816
0.729113268474
0.731447973227
0.73293550222
0.734753303498
0.737490587064
0.740991778279
0.744787619997
0.748378575572
0.751480790121
0.754379008478
0.757849533231
0.761934897773
0.765098759532
0.766668573821
0.766958222006
0.675552940074
0.684388056115
0.69401917389
0.702845528398
0.709747765843
0.714672565552
0.719017722475
0.724152785058
0.730072919313
0.736110307448
0.741712999487
0.746566741598
0.750355828553
0.752956439254
0.754749598972
0.756780472257
0.760267957786
0.764131330964
0.766336207312
0.76679729321
0.666110452104
0.672896118257
0.680492522861
0.687871216243
0.694753974686
0.702030285542
0.710959938659
0.721213455748
0.731095457838
0.739418005998
0.745886842212
0.750646217549
0.753904970039
0.755869180145
0.756827526174
0.757560708845
0.759737619773
0.763625946205
0.766173765211
0.766652549549
0.659113398003
0.664935609952
0.67225999309
0.680874709564
0.691067425812
0.703291206844
0.716866466639
0.7295731163
0.739638496253
0.746953162989
0.752062518362
0.755517829192
0.757677795046
0.7587511276
0.759006174059
0.759032510032
0.760273993363
0.763749148597
0.766250726466
0.766510734827
0.677678408331
0.684519791532
0.693653289724
0.704675079379
0.716827029652
0.728766576851
0.7387471132
0.74625940036
0.751578662684
0.755331581211
0.75793778059
0.759647460843
0.760599718095
0.76088227061
0.760701095011
0.760557822483
0.761639201868
0.764547225425
0.766378016208
0.766338580357
0.731626409406
0.735979717783
0.741032465958
0.74597749061
0.750239272721
0.753598478983
0.756108756807
0.758052748833
0.759570562766
0.760761126881
0.76163026632
0.762151644362
0.762324997497
0.767724198744
0.767705882448
0.767818549559
0.767774982361
0.767876791645
0.767824341668
0.767900495586
0.767843988464
0.767907500306
0.767848270465
0.767906143713
0.767843284242
0.767898690753
0.767831231342
0.767885499363
0.767812217746
0.767866035084
0.767785669022
0.767839051991
0.767750406639
0.767803193701
0.767705033328
0.76775685292
0.767647992347
0.767698542359
0.767577679479
0.767626509589
0.767492268503
0.767539232033
0.767389471126
0.767434312585
0.767265994027
0.767309145327
0.767117291936
0.767160634225
0.766938437167
0.766986485627
0.766724395211
0.766790320444
0.76647526567
0.766577540247
0.766196283441
0.766352114104
0.765899792298
0.766122823969
0.765576562424
0.765924656074
0.765230502727
0.765634424136
0.764954215439
0.765338134451
0.764764115191
0.765121183137
0.764685683198
0.765070361219
0.764723653991
)
;

boundaryField
{
    inletfuel
    {
        type            fixedValue;
        value           uniform 0;
    }
    inletair
    {
        type            fixedValue;
        value           uniform 0.768;
    }
    outlet
    {
        type            zeroGradient;
    }
    axis
    {
        type            empty;
    }
    leftside
    {
        type            zeroGradient;
    }
    burnerwall
    {
        type            zeroGradient;
    }
    front
    {
        type            wedge;
    }
    back
    {
        type            wedge;
    }
    procBoundary0to1
    {
        type            processor;
        value           nonuniform List<scalar> 
27
(
0.757540301372
0.757529013123
0.757635332801
0.757811444392
0.762208000977
0.762016729657
0.762248986536
0.763436920106
0.765293395554
0.766412802694
0.766151709787
0.758228930357
0.758871379614
0.759561270168
0.760222702409
0.760829095745
0.761390288482
0.761918282074
0.762398746292
0.762812943369
0.763132736079
0.763318523348
0.763351880424
0.762208000977
0.763280275271
0.765094214309
0.764802694545
)
;
    }
}


// ************************************************************************* //
