/*--------------------------------*- C++ -*----------------------------------*\
  =========                 |
  \\      /  F ield         | OpenFOAM: The Open Source CFD Toolbox
   \\    /   O peration     | Website:  https://openfoam.org
    \\  /    A nd           | Version:  7
     \\/     M anipulation  |
\*---------------------------------------------------------------------------*/
FoamFile
{
    version     2.0;
    format      ascii;
    class       volScalarField;
    location    "0.04";
    object      nut;
}
// * * * * * * * * * * * * * * * * * * * * * * * * * * * * * * * * * * * * * //

dimensions      [0 2 -1 0 0 0 0];

internalField   nonuniform List<scalar> 
814
(
0.00243594077724
0.00151822573777
0.000200822636418
0.00204386476826
0.00129437931949
0.00017473641079
0.00182381951236
0.00117927619313
0.000165476877504
0.00154824007465
0.00103906282743
0.00027173303701
0.0013414323165
0.000951471994865
0.000467751082669
0.00120024717464
0.000936736457724
0.00065996593436
0.00111791185268
0.000982384153488
0.000869251521193
0.00110910907953
0.00108297913278
0.00108208673617
0.00116880425464
0.00122972388106
0.00130005227831
0.00129387066861
0.00141528389276
0.00153387062008
0.0014821561448
0.00163856259172
0.00179682992451
0.00173129595913
0.00190146062729
0.00209585127794
0.00203638353728
0.0022043163601
0.00242647087566
0.0023885939161
0.00254285965146
0.00277722889148
0.00277379974561
0.00290726681224
0.00313332842192
0.00316662145984
0.00327364312583
0.0034689457378
0.00351818463768
0.00359266520518
0.00373447166402
0.00373091385515
0.0037665305524
0.00383468936651
0.0036274402267
0.00362286750986
0.00360913109813
0.00304960609999
0.00301567683607
0.00294118985747
0.00215738845367
0.00211816081232
0.002034231804
0.00143924320347
0.0014122493851
0.00135625285202
0.00118600254877
0.00117104414355
0.00114165300312
0.00128663248843
0.00127542386522
0.00125268721821
0.00145257006639
0.00144076382588
0.00141592836285
0.00159864161431
0.00158771024171
0.00156412263174
0.00175102728356
0.00174207020896
0.0017228537945
0.00192103873593
0.00191546826619
0.00190337804941
0.00215328321499
0.00215261553614
0.00215163378465
0.00269887440559
0.00270334345781
0.00271356647967
0.00297380685574
0.00296896609203
0.00295837621362
0.00128725929097
0.00128405967454
0.00126395275761
0.0018340767858
0.000438479587558
0.000666079556208
0.000857582968341
0.00105063030649
0.00127286437229
0.00153922384204
0.00185454146404
0.00221095267398
0.00258987966672
0.00297095928303
0.00333405327054
0.00364885954022
0.00386356573322
0.00388350705421
0.00356252071847
0.00282510164244
0.00191608094774
0.00128226321353
0.00110543494028
0.00122312345235
0.00138137297078
0.00153068577646
0.00169507068584
0.00188551077238
0.00214987819779
0.00272740935079
0.00294249762007
0.00123137713822
2.68499871045e-05
0.000141728619599
0.00020551260051
0.000239077239877
0.000261878067396
0.000283427917243
0.000306285054016
0.000329601363488
0.00035052953653
0.000367039757105
0.000377584066971
0.000382695744106
0.000382668137951
0.000379566283952
0.000373223892539
0.000367055606995
0.000359323216422
0.000353881373933
0.000335087962478
9.74598037795e-05
3.77081527126e-05
9.07152422282e-05
0.000163075343662
0.00021548619126
0.000264345571898
0.000301268591296
0.000331732697601
0.000357381150146
0.000377774716639
0.00039299321621
0.000401298619703
0.000404335351799
0.000402113692155
0.000397150771924
0.000388607246954
0.000380491370387
0.000370565962423
0.000362999430476
0.000333524452184
9.92436901318e-05
8.10341382674e-05
3.33943791517e-05
7.40884355032e-05
0.00014611882058
0.000210306033678
0.000267060502792
0.000314653223632
0.00035459751032
0.000382800571203
0.000400959370215
0.000409572778282
0.00041209962522
0.000409510042929
0.000404191421299
0.000395485504565
0.00038670118272
0.000376394933433
0.000367730688682
0.000331271761639
0.000100570117843
0.000157063354516
2.11816709424e-05
2.54931154222e-05
4.88195686482e-05
8.91827330514e-05
0.000163441196541
0.000237673154388
0.000308651850224
0.000363924842678
0.000398741474892
0.000413718258275
0.000417596676655
0.000415335780807
0.000410099454898
0.000401635094548
0.000392473150192
0.0003820153089
0.000372346586817
0.000328878210774
0.000113530798565
9.75960701596e-05
3.96190174301e-05
2.55812956617e-05
2.32407054083e-05
3.2976391102e-05
6.3895058353e-05
0.000119341511062
0.000207242503799
0.000304187552993
0.00037879114665
0.000413817639963
0.00042336236372
0.000422164379911
0.000417057252201
0.00040861529771
0.000399083547927
0.000388271202866
0.000377636226952
0.000327021941022
0.000117379293608
0.000195718756107
0.000106941296219
6.75764310213e-05
3.19630915105e-05
1.88304102684e-05
2.76002725143e-05
6.46412202437e-05
0.000140820196402
0.000246549346607
0.000347706694232
0.00040747404083
0.000427976955516
0.000429541687182
0.000424893407702
0.000416336657503
0.000406472109093
0.000395189278166
0.000383548152508
0.000326540209941
0.000120981001672
0.000366148208265
0.000221184441032
0.000139173864631
5.18862036304e-05
1.74839173954e-05
1.71484607095e-05
4.43760275494e-05
0.000108462227454
0.000208171523445
0.00031573975898
0.000394057840599
0.000428937759517
0.000435846831041
0.000432460550607
0.00042394614726
0.00041381444632
0.000402072424734
0.000389048989417
0.000326232447402
0.000125944084885
0.000612927755685
0.000392031203172
0.000230543182246
7.6177927144e-05
1.87535836636e-05
1.48709576751e-05
3.70884427068e-05
9.15724007807e-05
0.000180093426556
0.000284757232452
0.000375004059742
0.000425169271306
0.000439937242555
0.000438897821198
0.000430779951548
0.00042046423953
0.000408306448413
0.000393557176055
0.000324395525984
0.000131673752513
0.000944218364617
0.000640226312483
0.000369299987131
0.000128436035116
2.6056170767e-05
1.46993912057e-05
3.13288668095e-05
7.67234012004e-05
0.000154541116947
0.00025508200266
0.000353052426184
0.00041714089207
0.000441187528963
0.0004435442699
0.000436225808892
0.000425830531794
0.000413263617408
0.000396785946884
0.000320753303988
0.000135957647493
0.0013546081241
0.000981781896383
0.000582190187612
0.000222947785223
4.28384352528e-05
1.55660186513e-05
2.44470785842e-05
6.06304357824e-05
0.000130074509522
0.000227571068683
0.000330381961094
0.000405561914261
0.000438880577511
0.000445384104545
0.000439227192686
0.00042885234472
0.000415818762852
0.000397817025876
0.000315784476875
0.000138263702885
0.00182225267351
0.00140789318676
0.00087287806245
0.000357412527234
7.33861224615e-05
1.9319387058e-05
1.87987565276e-05
4.55684453101e-05
0.000107916319769
0.000202781927298
0.000307904981672
0.000390661091206
0.000431936389669
0.000442790614542
0.000438032182045
0.000427711982103
0.000414066090605
0.000394749756576
0.000309123788922
0.000138970139116
0.0023154297601
0.00189492233083
0.00123517106463
0.000529242114129
0.000121675515203
2.70937502928e-05
1.6172477357e-05
3.45182961699e-05
8.97144340579e-05
0.000181009535561
0.000285729860761
0.000372154119603
0.000418942748718
0.00043359291936
0.0004302131077
0.000419847778108
0.000405326758149
0.000384876752786
0.000299104189232
0.00013847880373
0.00280174840813
0.00241242975874
0.00165132314034
0.000739262924571
0.000186908337648
3.87936180596e-05
1.61998605284e-05
2.76099965827e-05
7.5588988337e-05
0.000161905121447
0.000263479046302
0.000349390563985
0.000398350235301
0.000415429180927
0.000413033772794
0.000402318623434
0.000386540003559
0.000365191597168
0.000283208275902
0.000136978518771
0.0032506235759
0.0029174703853
0.00208059945731
0.000969409018549
0.000260494930386
5.41359054715e-05
1.83421462446e-05
2.3694777801e-05
6.48465966323e-05
0.000145017920895
0.000240547950714
0.000321409520471
0.000368713531373
0.000386269848756
0.0003841354606
0.000372623069056
0.000355223028428
0.000333426419785
0.000259346594605
0.000134807716071
0.00363149293314
0.00334381370008
0.00244755568359
0.0011683126157
0.000321488186069
7.03827167864e-05
2.2133336873e-05
2.20467983199e-05
5.72931906127e-05
0.000130319004349
0.000216264823909
0.000287415924871
0.000329464503174
0.000345605590349
0.000342994272497
0.000330346472267
0.000311313131635
0.00028986171415
0.000227651083592
0.000132596110845
0.003906265893
0.00360665985495
0.00265730518479
0.00126950311875
0.000347450341199
8.12426626051e-05
2.61873467522e-05
2.24497874791e-05
5.3699202438e-05
0.000118060293525
0.000190137831804
0.000247533628504
0.000281750421489
0.000295184038602
0.000291875760583
0.000278456598766
0.000258675929494
0.000238805777875
0.000191393414266
0.000131265950029
0.00402489350925
0.00362980358936
0.0025975524357
0.00120491485478
0.000323286487358
8.23123277939e-05
2.85023249979e-05
2.51736313085e-05
5.52028370385e-05
0.000108657807822
0.000162488729677
0.000203713275504
0.000228935770184
0.000239380089615
0.000236113095233
0.000223516797932
0.000205010598958
0.000188236601607
0.00015630753585
0.000131966625349
0.00389255014743
0.00334037329052
0.00222011427095
0.000955619727913
0.000268880044711
7.7253841557e-05
3.02169032642e-05
3.22720553583e-05
6.14481613382e-05
0.000100728674319
0.000134682594593
0.000160266622468
0.000176545691155
0.000184534050256
0.000182903060969
0.000173577761356
0.000158879785922
0.000146295978742
0.000128334297432
0.000135877360797
0.00339109486384
0.00269254069677
0.0016165412863
0.000666807935988
0.000232438012193
7.65182881521e-05
3.58572470062e-05
4.68504739429e-05
7.23661884672e-05
9.51334297141e-05
0.00011120825127
0.000122372803739
0.000130425613751
0.000136064601248
0.000137591097855
0.000134080491541
0.000125546549298
0.000117725531436
0.000110950354175
0.000143904986795
0.00253329707661
0.00185050423123
0.00103792888151
0.00046541730188
0.000219719566286
8.91962100705e-05
5.04104330339e-05
7.0011450632e-05
8.8921733257e-05
9.64558976015e-05
9.74669949102e-05
9.62615323628e-05
9.60173935813e-05
9.82688762195e-05
0.000102393829989
0.00010577254188
0.000105060063592
0.000102620306333
0.00010452518551
0.0001563426125
0.00165215748452
0.0011765482078
0.000697434409609
0.000392579575076
0.000229407474278
0.000108348033705
7.2564019811e-05
9.84409816733e-05
0.00011386334745
0.000110080220484
9.98142160986e-05
8.91302713973e-05
8.04893183992e-05
7.63721566e-05
7.85377869138e-05
8.61714097609e-05
9.38188841581e-05
9.81522413229e-05
0.000107617099354
0.000172695571586
0.00113241949558
0.000875807443707
0.00060973140568
0.000405544609741
0.000247423784064
0.000132491144243
0.000103139822209
0.000132882674319
0.000148726532647
0.000141970514246
0.00012739511279
0.000110801201289
9.33729735525e-05
7.88253793886e-05
7.1118359985e-05
7.44888102153e-05
8.69738135542e-05
9.98651324265e-05
0.000117757412937
0.000191751605659
0.00103602568672
0.000878612585089
0.000663310088038
0.000448283851391
0.000276266373814
0.000167671706727
0.000145053403051
0.000179529604572
0.00020045442579
0.000200673047229
0.000193254477679
0.000175683878415
0.000149447228446
0.000118878216074
9.1056842801e-05
7.71686734509e-05
8.29986860256e-05
0.000102318724937
0.000131295011965
0.000211924938611
0.00115673141341
0.000986445312037
0.000746288806951
0.000503900602697
0.000319328906156
0.000217406665824
0.000206334879395
0.000249197433282
0.000282681097344
0.000303056722504
0.000317192606112
0.000306320514294
0.000273293662576
0.000221741375344
0.000161552778056
0.000109794196114
8.96127996905e-05
0.000102944386444
0.000143510114142
0.000231251819939
0.00130142475145
0.00111490752866
0.000859228216142
0.000596077460387
0.000395431814232
0.000297013782648
0.000300673123122
0.000356308841115
0.000417048801335
0.000473892851202
0.000507904069979
0.000502809799461
0.000468468374786
0.000405372533169
0.000315032279835
0.000201265842469
0.000124514985661
0.000107982507121
0.000150138794355
0.000248422334864
0.00145311757581
0.00127213469972
0.00101760060627
0.000743721833755
0.000531927329478
0.000441016919568
0.000464405316583
0.000550580326518
0.000651051773079
0.000715231213282
0.000720011599726
0.000691063902297
0.000647964732615
0.000600501704012
0.000526716929622
0.000377165834878
0.000213190710672
0.000132839536587
0.000153885269331
0.000264425445855
0.00163018525191
0.00147327590013
0.00124352215965
0.000986677070308
0.000788486165084
0.000719982606766
0.000778288904175
0.000889871001585
0.000940334381055
0.000913746636536
0.000835430175337
0.000745262734082
0.000676952786886
0.000655889696264
0.000662854804309
0.000579159818095
0.000357462825144
0.000187883146922
0.000164348576069
0.000282418087866
0.0018426377175
0.00173262652151
0.00156795824121
0.00139053977906
0.00127374140201
0.00125574270079
0.00125895270272
0.00120408687591
0.00108679840138
0.000940231876776
0.000790842702702
0.000661217248738
0.000578134934727
0.000568053605644
0.000642599009746
0.000696721579642
0.000523467394095
0.000267103873983
0.000186993220635
0.000311505993258
0.00214418162081
0.00211920598957
0.0020766362115
0.00203369464997
0.00199349133912
0.00188534567508
0.0016305476674
0.00130980596235
0.00102981775792
0.000817523346926
0.00065686040629
0.000538886853063
0.000472823991475
0.000479261231876
0.000578362566804
0.000709839730923
0.000637887816619
0.000334270785509
0.000214887421889
0.000356372057028
0.00275574024004
0.00278882704603
0.00278776779909
0.00270638766507
0.002466861011
0.00202592329978
0.00149844528361
0.0010601574194
0.000772845396362
0.000598584374428
0.000487079254944
0.000417507879821
0.000399773860816
0.000450061568169
0.000567247417128
0.000699276469015
0.000668746019482
0.000356011786531
0.000242991635286
0.000422164123878
0.00290027361071
0.00277175126821
0.00252255585018
0.00213430555192
0.00164672015511
0.00116466123491
0.000805889350148
0.000585916251583
0.000464787537399
0.000393981524197
0.000354733587783
0.000350527543929
0.000395429804802
0.000482938496872
0.000586697952734
0.000668782151325
0.000593518849552
0.000321634294525
0.000281445005963
0.000506966576238
0.00115153343072
0.000997516206562
0.000813167565046
0.000637003230457
0.000498882923906
0.00040775945517
0.000355372610354
0.000325208736838
0.000308668460827
0.000305769416618
0.000326543702241
0.000378252752156
0.000450789423905
0.000247159039625
0.000128049790981
0.00016634126655
0.000154365307453
0.000157907912787
0.000164398299139
0.000152301914183
0.000158541846679
0.000148623578401
0.000148308940326
0.000145509976734
0.000137569752094
0.000142898263254
0.000127774699354
0.000140726402283
0.000119357940648
0.000139082935515
0.000112566786387
0.000138170064241
0.000107552286797
0.000138310838049
0.000104452024263
0.000139890280043
0.000103381596898
0.000143247730027
0.000104452018217
0.000148664953979
0.000107749755659
0.00015625880566
0.000113404428011
0.000165989028056
0.00012159414726
0.000177465547793
0.000132647262431
0.000189959591129
0.000147022002398
0.000202153613033
0.000165270030772
0.000211975021442
0.000187798667961
0.000216204644701
0.000215356146321
0.000214613369955
0.000250560620771
0.000197524827513
0.000283381197384
0.000162776882006
7.07071131062e-05
0.000168877950582
7.4159391026e-05
0.000186885195011
7.8422493641e-05
0.000209782431181
8.39242525149e-05
0.000242350576708
9.08836117173e-05
)
;

boundaryField
{
    inletfuel
    {
        type            calculated;
        value           uniform 0.0100623058987;
    }
    inletair
    {
        type            calculated;
        value           uniform 0.000335410196625;
    }
    outlet
    {
        type            calculated;
        value           nonuniform 0();
    }
    axis
    {
        type            empty;
    }
    leftside
    {
        type            nutkWallFunction;
        Cmu             0.09;
        kappa           0.41;
        E               9.8;
        value           nonuniform List<scalar> 
33
(
0
0
4.72105738014e-06
5.00188317128e-06
5.21026714078e-06
0
0
0
0
0
0
0
0
0
0
0
0
0
0
0
0
0
0
0
0
0
0
0
1.55469355024e-07
7.07046717018e-07
1.39325367008e-06
2.28351151956e-06
3.4069563333e-06
)
;
    }
    burnerwall
    {
        type            nutkWallFunction;
        Cmu             0.09;
        kappa           0.41;
        E               9.8;
        value           uniform 0;
    }
    front
    {
        type            wedge;
    }
    back
    {
        type            wedge;
    }
    procBoundary0to1
    {
        type            processor;
        value           nonuniform List<scalar> 
27
(
0.000311408523534
0.000311694710982
0.000310282221965
0.000307921910971
0.000519495831593
0.000571868267879
0.000570281772506
0.000456984467524
0.000309166280848
0.000337071268592
0.000634139917142
0.000302901492769
0.00029692937002
0.000294852087407
0.0002964557991
0.000298486288785
0.000298334939733
0.00029740939006
0.000300385051311
0.000314196429242
0.000344808942249
0.000390570944556
0.00043651071136
0.000519495831593
0.000474067322306
0.000282883252323
9.84246173946e-05
)
;
    }
}


// ************************************************************************* //
