/*--------------------------------*- C++ -*----------------------------------*\
  =========                 |
  \\      /  F ield         | OpenFOAM: The Open Source CFD Toolbox
   \\    /   O peration     | Website:  https://openfoam.org
    \\  /    A nd           | Version:  7
     \\/     M anipulation  |
\*---------------------------------------------------------------------------*/
FoamFile
{
    version     2.0;
    format      ascii;
    class       volScalarField;
    location    "0.04";
    object      O2;
}
// * * * * * * * * * * * * * * * * * * * * * * * * * * * * * * * * * * * * * //

dimensions      [0 0 0 0 0 0 0];

internalField   nonuniform List<scalar> 
814
(
1.23797128443e-09
9.04995789368e-10
1.49539330159e-10
1.79464984732e-07
1.90414427029e-07
9.94469676869e-08
1.25596365595e-05
2.35606365688e-05
5.73799539197e-05
0.000503725092764
0.00187443855883
0.0198199611065
0.000753703079009
0.00201803432324
0.009946727885
0.000772353605771
0.00158822955181
0.00483044053354
0.000657261326485
0.00108038156273
0.00229463757269
0.000494593021759
0.000674645665583
0.00108975819669
0.000341611242998
0.000400036540828
0.000522729927101
0.000221273269243
0.000230175231172
0.000256746833082
0.000136480114586
0.000130573170779
0.000131793706839
8.12203136362e-05
7.42705063459e-05
7.24026894311e-05
4.74108789526e-05
4.31914507982e-05
4.33125290801e-05
2.78218101685e-05
2.6274138698e-05
2.84023375146e-05
1.71802631718e-05
1.73644575429e-05
2.07708848558e-05
1.23407757675e-05
1.36171580374e-05
1.81645442648e-05
1.19941815418e-05
1.42189889014e-05
2.04250940953e-05
1.64259711867e-05
1.9879343847e-05
2.88743408106e-05
2.81689678491e-05
3.3690085778e-05
4.77870924892e-05
5.57310739937e-05
6.55719851478e-05
9.05303905961e-05
0.000120233539196
0.00013906101612
0.000186321033412
0.000241313364707
0.000274541737424
0.000355994617864
0.00038543823005
0.000431663303707
0.000541585029856
0.00047573324927
0.000525709940189
0.000641831880985
0.000464821677395
0.000507513996445
0.000605077669246
0.000380267457991
0.00041018774305
0.000477800914989
0.000272578400406
0.000290394834639
0.000329959727211
0.000178665992979
0.000187804873629
0.000207913730526
0.000140008417524
0.000145952687084
0.000159121983115
0.00063182016811
0.000651650886978
0.000696397169711
0.00622355096731
0.00630600293524
0.00650806332686
0.038788511373
0.0390655101265
0.0399146198593
0.117263570998
0.039484493321
0.0132247685696
0.00472558109649
0.00178995105439
0.000722488327249
0.000317432629118
0.000157303639869
8.96678882958e-05
5.75268805123e-05
4.02813528272e-05
3.09610496751e-05
2.82736672991e-05
3.25070175017e-05
4.55239277356e-05
7.3445957562e-05
0.000135726940322
0.000270684527447
0.000495832554447
0.000720718954783
0.000823166954455
0.000752988533584
0.000577714812183
0.000387287713711
0.000236486142814
0.000178151608495
0.000762288772306
0.00680742877511
0.041265028674
0.231989815514
0.23199104944
0.231993943246
0.231996508484
0.231998189355
0.231999151179
0.231999642856
0.231999865426
0.231999954743
0.231999985988
0.231999995367
0.231999997752
0.231999998269
0.231999998373
0.231999998409
0.231999998441
0.231999998484
0.231999998506
0.23199999825
0.231999998029
0.230963962977
0.231491128574
0.231778828045
0.231901927084
0.231958013494
0.231983386836
0.231994025571
0.231998049968
0.231999428759
0.231999851528
0.231999963874
0.231999989291
0.231999994163
0.231999994981
0.231999995157
0.231999995249
0.231999995361
0.231999994991
0.23199998696
0.231999914235
0.219159419034
0.224721906568
0.228893774526
0.230914963724
0.231550510289
0.231837606366
0.231947809886
0.231985523507
0.23199632433
0.231999165942
0.231999828132
0.231999963226
0.231999986766
0.231999990294
0.231999990871
0.231999991055
0.231999991196
0.231999988183
0.231999895036
0.231996933029
0.172152020017
0.189287483203
0.204032769913
0.220725673706
0.22772519932
0.230669707909
0.231604805511
0.23190698412
0.231980254691
0.231995856801
0.231999245504
0.231999866006
0.231999966171
0.231999980426
0.231999982379
0.231999982784
0.231999982752
0.231999967293
0.231999256239
0.231929749972
0.0672819975598
0.0871427042667
0.132420303602
0.179350522087
0.210738453307
0.224435253733
0.229640644748
0.231438084407
0.231900730796
0.231983476333
0.231996923391
0.231999473048
0.231999896907
0.231999955755
0.231999963357
0.231999964483
0.231999963892
0.231999923804
0.231998591141
0.231918258172
0.0226960110695
0.0321991573081
0.0581814601443
0.107959590785
0.179729022663
0.214195805409
0.226577835012
0.230594120889
0.23170906813
0.231951429396
0.231990992365
0.231998419221
0.231999710477
0.231999899272
0.231999923755
0.231999926889
0.23199992504
0.231999844067
0.231997805406
0.231917777636
0.00762763140842
0.0109326787831
0.0229401335026
0.0565908646467
0.153688193815
0.205997134836
0.223979980292
0.229669543444
0.231419577281
0.231889705937
0.231978276953
0.231995959411
0.231999248496
0.231999765375
0.231999836641
0.231999845631
0.231999841625
0.231999696766
0.23199669154
0.231910865163
0.00265968998505
0.00416794667893
0.0123850598799
0.0445083403949
0.147309389234
0.20336074098
0.222324875803
0.228769163685
0.231047788132
0.231786478843
0.231957890009
0.231991269539
0.231998240535
0.231999458454
0.231999644216
0.231999669284
0.231999662093
0.231999427284
0.231995222655
0.231898219087
0.00102923924767
0.00220178674526
0.00913968904679
0.038867428605
0.136803225326
0.1995120652
0.220166381081
0.227627136428
0.230548070011
0.231627412761
0.231923403488
0.231982885852
0.231996205887
0.23199877686
0.231999220269
0.231999288313
0.23199927676
0.231998921921
0.231993356012
0.231883696548
0.000477649483608
0.00147737832714
0.00689772108666
0.0303871421936
0.111951051183
0.190352987118
0.216426825387
0.226032322627
0.229883454585
0.231399032937
0.231867514289
0.231968451233
0.23199225242
0.23199729293
0.231998290661
0.23199846425
0.231998450552
0.231997937553
0.231990843495
0.231867682608
0.000273414895378
0.00105522164413
0.00476074014546
0.0200329515271
0.075678513118
0.17541676067
0.211041848686
0.223987995192
0.229071760299
0.231108220873
0.231778677488
0.231943058192
0.23198455856
0.231994088903
0.231996266021
0.231996712812
0.231996706948
0.231995986963
0.231987108332
0.231847877806
0.000180010202642
0.000733262561501
0.00305180935599
0.0122601161263
0.0474127826785
0.158370701796
0.205093169376
0.221778559568
0.228197988805
0.230769465731
0.23164816497
0.231900197743
0.231969654261
0.231987204352
0.231991892926
0.231993028361
0.231993077894
0.231992086208
0.231980998964
0.231820966094
0.000125486524779
0.000499624116267
0.00196798130125
0.0080173096901
0.0346177766826
0.142628765114
0.199537685628
0.219650687008
0.227317209868
0.230372198945
0.231468678777
0.231831434366
0.231940750862
0.231972493864
0.231982541833
0.231985398905
0.231985671577
0.231984323494
0.231970235423
0.231782401468
8.94247328763e-05
0.00034474452091
0.00133835420623
0.00571989135863
0.0271244341785
0.128810173506
0.194603590602
0.217656794334
0.226416372462
0.229896973001
0.231219151381
0.231713990125
0.231883204221
0.231941306412
0.231962810166
0.231969871977
0.231970894613
0.231969108831
0.231950530291
0.231725102514
6.75463385381e-05
0.000250523326919
0.000978820476455
0.00438169543372
0.0221478093807
0.119451853383
0.190587520269
0.215841068807
0.225447175061
0.229302719198
0.230852267445
0.23149883016
0.23176535925
0.231875735106
0.231921873588
0.231938889135
0.231942188351
0.231940034103
0.231914443948
0.23163819194
6.12357782532e-05
0.000212835302645
0.000816310895649
0.00374129745141
0.0195431996951
0.119623518669
0.189086632228
0.214471554338
0.224361051174
0.228479360055
0.230276544969
0.231112112502
0.231528502614
0.231739721761
0.231838721811
0.231878505474
0.231888202669
0.231886446463
0.231850185247
0.231506387703
6.99790350353e-05
0.000236763109969
0.00090171457986
0.00411238570954
0.0215988806046
0.130116703413
0.190722628193
0.21368392066
0.223007893776
0.227240868532
0.229312218471
0.230436081122
0.231084597405
0.231465146179
0.231672003697
0.23176356325
0.231790263594
0.231792120913
0.231740827852
0.231309965165
9.62607812272e-05
0.000323469332522
0.001279823062
0.00614000371245
0.0322861993946
0.142929188614
0.192409973655
0.212241490356
0.220778097633
0.225174294062
0.227677451577
0.229259337746
0.230288915236
0.230957069322
0.231348248002
0.231549583453
0.231620930033
0.231635601842
0.23156554178
0.231028687913
0.000151422690254
0.000504699814465
0.00203644615099
0.00974873557197
0.0490289523102
0.147936757199
0.191521559831
0.208543630629
0.216888657528
0.221711625645
0.224975370006
0.227248739937
0.228892772973
0.230034718113
0.230759803624
0.231165934321
0.231336812376
0.231389398062
0.231304387783
0.230645069144
0.000273113815883
0.000884868698789
0.00338659576359
0.0142917675662
0.0636470354119
0.142470848244
0.184910728147
0.201735431424
0.210518190764
0.216224846518
0.220560701457
0.22384956877
0.226439284383
0.228372416239
0.229692598728
0.230493647281
0.230880426015
0.231027512033
0.230942831175
0.230148137067
0.000523082352061
0.00155800415688
0.00518663111431
0.0179709624906
0.0667180578344
0.132677193584
0.172935622719
0.190840633328
0.200647577929
0.207560353169
0.213200448025
0.217892473814
0.221965775981
0.22526652072
0.227710245222
0.229288777884
0.230136559535
0.230507190026
0.230471265943
0.229539798161
0.000895838638743
0.00235292965076
0.00665041863313
0.0193068723444
0.0617328937808
0.120160190151
0.157814172255
0.176085148413
0.185913524291
0.193254753571
0.200224083378
0.206789791626
0.213286134335
0.219121345774
0.223826554694
0.227012827929
0.228859655111
0.229743565286
0.229878951621
0.228830029751
0.00120185209459
0.00277950401166
0.00685282018266
0.0175218568095
0.0496032873927
0.101824406121
0.137489618657
0.155252652021
0.164010627091
0.170040724897
0.176784159328
0.185885631064
0.196125658216
0.206598366068
0.215867767928
0.222516414896
0.226516733751
0.228535974235
0.229127486409
0.228036480897
0.00128752232113
0.00270252613433
0.00603036621709
0.0139273933769
0.0338587566447
0.0775162897067
0.10938339335
0.124633651794
0.130209081594
0.13273455647
0.137376727358
0.148786909749
0.164121211371
0.181950065028
0.199352604715
0.213340816495
0.222009332381
0.226477599329
0.228111035646
0.227160693929
0.00111912188022
0.0021684488284
0.00444429609719
0.00936665184466
0.0202876202839
0.0446874591436
0.0695013577674
0.0799644667172
0.0806829025465
0.0789156915086
0.0823119881132
0.0954964441845
0.116106747798
0.141821018455
0.169435376835
0.195521017061
0.213373319994
0.222798906175
0.226611592186
0.226178984527
0.000817592068272
0.00146332297861
0.00274582163913
0.00524313122146
0.0100725239408
0.0190483508322
0.0284188733233
0.0309811602344
0.029138300865
0.0275702478004
0.0309198783254
0.0462480245571
0.0702155171728
0.0989301721653
0.13150335745
0.167457060744
0.198239117349
0.216531750698
0.22436431029
0.225049986481
0.000520609397111
0.000854712567283
0.0014550094339
0.00248561106385
0.00416866449832
0.00661446136221
0.00875000735833
0.0092978974552
0.00967929977953
0.0114615565893
0.0163725112287
0.0294787376819
0.0550500754153
0.0819156148947
0.109103399437
0.141993453715
0.179760610755
0.207997225099
0.221391796604
0.223770215121
0.000301324342303
0.000453308323302
0.000702939546863
0.00109204157438
0.00168068727267
0.00257335104694
0.00389314315574
0.00592557858799
0.0093112780085
0.014791420945
0.0242581874997
0.0459406440724
0.0735725070634
0.0959895195956
0.112848538276
0.132317110128
0.164742376274
0.199503406114
0.218589792337
0.222479659857
0.000222637776431
0.000334748383321
0.000547435100854
0.000963251074747
0.0018000425349
0.00345855271742
0.0064459562014
0.0112267242482
0.0182846994189
0.0290929393397
0.0496539686563
0.0798649655951
0.106026238655
0.123715312576
0.133072983715
0.140307739965
0.160395530814
0.195200691761
0.217253331925
0.221327207245
0.000919658179565
0.00131617390783
0.00205288468392
0.00339933658034
0.00582156709152
0.00997364481795
0.0164347739859
0.025796625035
0.0386324872348
0.0632946878467
0.0948247493531
0.121893175764
0.141043132172
0.151390724692
0.15427439113
0.154718638743
0.165848317197
0.196513079313
0.217972053605
0.220210185956
0.00751439037807
0.00917073769096
0.0119139461852
0.0162095410998
0.0226352841513
0.0317093714292
0.043490156379
0.0659339661525
0.0954836467668
0.122325893199
0.143968707898
0.159554199236
0.168867699735
0.172000733559
0.170546507663
0.169064303397
0.178371087158
0.20359554967
0.219102781592
0.218846238428
0.0446225256727
0.0518907381028
0.0633623302919
0.0799392548126
0.098390064015
0.115675809795
0.131267594218
0.145792647438
0.158739602071
0.169712973297
0.178171765899
0.183500054157
0.185479016435
0.229811777621
0.229666476563
0.230560359457
0.230214718589
0.231022459899
0.230606336529
0.23121053304
0.230762218593
0.231266111275
0.230796194604
0.231255350737
0.230756637712
0.231196222689
0.230661015122
0.231091567563
0.230510168225
0.230937145614
0.230299539754
0.230723072145
0.230019778807
0.230438585069
0.229659797866
0.230070930296
0.229207242715
0.229608305884
0.228649381297
0.229036804978
0.22797171941
0.228344348032
0.227156098244
0.227511929678
0.226176391451
0.226518924957
0.224996557096
0.225340903102
0.223577555816
0.223959946202
0.22187955823
0.222405259466
0.219903534618
0.220720120367
0.217691179695
0.218935781566
0.215340353707
0.217120232638
0.212776915353
0.215549296886
0.210030850014
0.213243969324
0.207837601517
0.210889977204
0.206327440475
0.209165518684
0.205702914046
0.208759996918
0.20600268784
)
;

boundaryField
{
    inletfuel
    {
        type            fixedValue;
        value           uniform 0;
    }
    inletair
    {
        type            fixedValue;
        value           uniform 0.232;
    }
    outlet
    {
        type            zeroGradient;
    }
    axis
    {
        type            empty;
    }
    leftside
    {
        type            zeroGradient;
    }
    burnerwall
    {
        type            zeroGradient;
    }
    front
    {
        type            wedge;
    }
    back
    {
        type            wedge;
    }
    procBoundary0to1
    {
        type            processor;
        value           nonuniform List<scalar> 
27
(
0.149225874406
0.149250258009
0.149849234938
0.150796072676
0.184522449037
0.182555838666
0.184168901634
0.194215423528
0.210073938878
0.219441583815
0.217360077948
0.153067286058
0.156637431294
0.160897232906
0.165544392008
0.170304216409
0.175154037692
0.180065788923
0.184779598
0.189012012408
0.192396332737
0.194453911168
0.194919740846
0.184522449037
0.19422649441
0.208948027056
0.20662993322
)
;
    }
}


// ************************************************************************* //
