/*--------------------------------*- C++ -*----------------------------------*\
  =========                 |
  \\      /  F ield         | OpenFOAM: The Open Source CFD Toolbox
   \\    /   O peration     | Website:  https://openfoam.org
    \\  /    A nd           | Version:  7
     \\/     M anipulation  |
\*---------------------------------------------------------------------------*/
FoamFile
{
    version     2.0;
    format      ascii;
    class       volScalarField;
    location    "0.04";
    object      one_over_tauStar;
}
// * * * * * * * * * * * * * * * * * * * * * * * * * * * * * * * * * * * * * //

dimensions      [0 0 -1 0 0 0 0];

internalField   nonuniform List<scalar> 
814
(
785.048293214
1111.25143337
4870.75321016
965.360810153
1318.71551437
4870.00917403
1062.09063707
1473.39557525
4867.50340127
1280.00153249
2090.50302397
6804.71617474
1544.63809845
2681.94909894
6983.87530374
1833.72891041
3161.14207013
6446.91604032
2144.04099619
3497.51799736
5879.64730339
2405.61348431
3654.6983048
5323.65491725
2589.39354219
3656.14937806
4797.0168246
2684.30137606
3547.90797727
4303.56826255
2694.97946815
3362.81388988
3847.51119791
2633.1560429
3126.74390499
3431.27291499
2514.84024215
2863.3904113
3053.85817938
2357.62476418
2592.5482785
2712.6075538
2176.41137586
2327.02227829
2403.6799349
1982.9703174
2074.31013701
2123.47968447
1787.13979772
1839.29846258
1869.959226
1598.52438976
1626.32671842
1644.24641405
1424.19334387
1438.39340915
1447.51915936
1264.48038347
1270.87255862
1273.22669064
1098.93703142
1100.16539361
1095.77162039
888.7138174
885.700725142
874.26802207
634.860520765
630.184773013
617.703006897
457.697422694
454.757552512
448.014309651
391.403923887
390.121704856
387.254454154
369.959819946
369.270233554
367.813274012
357.951784513
357.571249261
356.725467166
346.596684234
346.447189442
346.093752198
336.258191315
336.417846991
336.791457915
355.123016029
356.253263386
358.937638665
424.11986375
424.557673726
425.79323661
399.773203096
400.526719504
400.311982151
291.580731986
5002.08586572
5265.09740759
5016.26528465
4642.95404393
4244.77888988
3858.96681351
3499.92895895
3169.6735037
2864.34843678
2576.7196733
2308.31810492
2059.10430266
1828.04465504
1617.14151255
1428.91353038
1256.9555991
1076.19816557
848.77837213
595.130857249
436.982602906
382.695595291
365.294368922
355.087496581
345.19018126
337.084143403
362.740660214
427.603281664
399.696337671
52.5628510356
18.8047526512
15.8203264326
14.4813368406
13.0493653993
11.581785765
10.0981831934
8.793515497
7.68592524534
6.80771719836
6.10440999856
5.56672772207
5.14178019079
4.83012746357
4.57882542176
4.41273032116
4.27443608586
4.20309915839
4.30836122117
14.7927248189
57.0497763171
40.4299992473
32.8660677642
25.1449160461
19.817993003
15.8988743118
12.8647994397
10.5192044554
8.76539961258
7.51120440994
6.59207397015
5.92187274252
5.40982762804
5.03322862089
4.73326003422
4.52748704198
4.36133507067
4.27391930549
4.48510033612
15.0624987161
113.434874882
118.06106999
75.5592030093
45.3606173135
31.9735930238
22.9773967966
16.7360396996
12.5208440441
9.75375098525
8.01601846252
6.88072270751
6.10645700906
5.54073080001
5.12830867531
4.80653972744
4.58013770692
4.40404781376
4.31071649462
4.60219024722
15.2634413341
571.639511723
457.788403211
252.479081142
126.516309475
73.8203226966
41.8489753613
26.2768299339
16.9607566902
11.6823044543
8.82999096397
7.26664277152
6.32579529166
5.68712328009
5.23279842584
4.8855231167
4.63732193013
4.44937948436
4.35212283888
4.72725860312
17.6362894418
2148.39240978
1073.54411988
591.576366067
356.103956342
191.873150584
100.108518471
53.1843277744
27.6633204061
15.6434864293
10.2417626377
7.83076774373
6.61124252156
5.86718231344
5.36016849949
4.97956163319
4.70691882099
4.50282715655
4.40305991667
4.88786969604
19.600381084
2699.12544945
1279.46642618
779.283844277
584.072320755
384.668952706
198.722236371
90.1171195111
41.1966143813
20.7147467169
12.1534637587
8.59734357322
6.97574276521
6.08450957197
5.51072400707
5.08907315457
4.7885910343
4.56559347499
4.46244627528
5.07847528369
21.2647099639
2692.99197755
1347.08713006
834.884471675
638.293813705
492.132006453
281.923199007
119.306277237
52.1800651941
25.3380470078
14.2689072444
9.54750830011
7.42519119205
6.33979923554
5.68174069119
5.2114922752
4.87854803258
4.63457855166
4.52324851559
5.29820595941
22.5467632306
2598.85240327
1392.59009525
876.079185757
653.821241573
509.476371572
310.681598107
134.579862265
59.8193400521
29.4567328317
16.5140621302
10.6623817515
7.96510755321
6.63828835662
5.87617577586
5.34913182273
4.97860911624
4.71117921034
4.58855225448
5.52390532981
23.4524661896
2505.82154713
1435.34562239
920.16307434
676.633336861
526.339262035
341.313251896
153.643775579
68.5057980541
33.9162873902
18.9096506434
11.9038663392
8.59098693629
6.98563170686
6.10038806656
5.50766653476
5.09463960923
4.80069797411
4.66796788958
5.74030811687
23.9109800491
2426.322463
1475.42669533
967.39817681
703.806124599
546.622026298
392.219286516
189.96760993
81.6980048065
39.2065759814
21.4210988554
13.2167567126
9.2900453836
7.38722903043
6.36290975452
5.69532911182
5.23489586383
4.91112032584
4.77100113249
5.95238464313
24.0281753304
2351.86198725
1505.96233349
1012.67863011
730.560838429
567.590268598
444.304165899
245.099116374
101.039253489
45.3491146755
23.9637763167
14.546501857
10.0492714755
7.85111999917
6.67645555735
5.92501711397
5.41203949874
5.05528162372
4.90933071877
6.17246001804
23.9384625488
2269.78433102
1520.8998675
1052.09374482
758.109413567
589.559743134
477.239414117
301.677399384
124.429363604
51.815367077
26.3968739443
15.8505168414
10.8635185122
8.39272571814
7.06154305997
6.21750786901
5.64703207037
5.25516531782
5.10349014202
6.42271850663
23.7546350045
2173.8129503
1519.81768923
1084.40151425
787.724009536
611.325285707
494.129455573
342.877078132
147.930293056
58.0372711752
28.634472918
17.123064557
11.7517690837
9.04439315374
7.55344695982
6.60715873144
5.97454340573
5.5478485531
5.39048962136
6.75204146143
23.5421974606
2064.59093076
1504.4906723
1107.56540446
816.884294117
630.584100198
500.57930809
363.956840374
168.40617849
63.6126992929
30.6436251874
18.3985635765
12.7668625955
9.86226232871
8.20656988773
7.14718656587
6.44899934568
5.99266192109
5.8323449975
7.24355725468
23.35413694
1937.92636974
1474.78570017
1117.51004535
839.424303928
643.405612434
495.211831743
363.623659219
180.712347871
67.7446430653
32.3910538997
19.8053712551
14.0308489079
10.9475047568
9.11158592358
7.92384954575
7.15712770938
6.68322120473
6.52736867193
8.01094944932
23.2478055622
1793.60065635
1426.1813325
1112.51435759
851.121518514
645.358171952
471.436913901
338.006035838
176.63267738
68.7178167228
33.9746843698
21.5878293198
15.7475728275
12.4516664854
10.3908267198
9.05290840716
8.21698620499
7.74770743575
7.61068471238
9.18920840751
23.2845940439
1640.68551758
1352.89620425
1084.69337502
846.996078951
625.339968344
421.300370459
291.132328234
153.206528606
65.4450488921
35.6581340325
24.1779001121
18.2331145328
14.6183478305
12.2387472577
10.7013520302
9.78757679717
9.34633017855
9.24076762142
10.91049363
23.5179703615
1485.28594585
1258.78222891
1026.68185876
806.814777248
563.913471237
353.483169617
237.032970398
122.095683765
61.3254951539
38.5921224405
28.1621022555
21.9675796248
17.8131567618
14.9259736509
13.0654962568
12.01792147
11.5995957616
11.5198976474
13.19807679
23.9688795796
1331.54907873
1146.70996838
939.971714022
726.815508552
471.110731519
294.168175798
185.631241668
98.0049100954
59.7454867911
43.4800745203
34.1164448715
27.6904735324
22.7446659245
19.0028520542
16.4760641197
15.0464252476
14.5055884791
14.3646904861
15.855040755
24.6251215596
1175.18840494
1012.80584772
816.956055735
600.900646196
377.563699633
254.128096535
155.403367638
86.347010176
61.3235784868
50.088919903
42.6792453244
36.6121280451
30.9238438666
25.7439473747
21.671496709
19.0929946521
17.9286851315
17.4608079554
18.4990263823
25.4600074716
995.518411529
838.065539172
644.530448005
450.667613106
310.938288534
230.705195336
145.186319117
85.1411621296
65.2751415108
58.3421712348
54.0429698438
49.5897381739
43.9579106439
37.2909835542
30.348155461
24.9607816717
21.9292209163
20.4959236974
20.8051807339
26.4756929648
765.333394959
618.857005103
461.455380432
341.213532384
273.992457715
214.334216552
138.643550788
88.0989506202
72.1555387787
68.5912170642
67.498290992
64.8988433535
60.1533981794
53.3404927961
44.054137915
34.4126478859
27.3920866844
23.6422347402
22.7542135369
27.7035391355
534.5540328
440.836135405
354.31723001
294.755578249
255.883208201
204.272093964
136.532318669
94.487061337
82.5649140882
81.7401476038
82.501061889
80.4713952973
76.0162697044
69.5829736168
60.5020666245
48.4264689564
36.1356325699
27.8874115162
24.7014124548
29.2746053685
410.039888104
365.686682007
319.923869215
280.453457675
245.319047659
196.490610578
137.817507069
105.605030072
98.7601827582
100.045227309
100.865803703
97.6745496714
91.9767931186
84.5808898478
76.0012125557
64.3222910742
49.2707860735
34.9024209211
27.3379998597
31.3810050664
371.084632563
346.090509214
313.34206707
278.025769204
240.746133002
194.579401182
147.913480781
126.346050204
123.938377441
124.93269951
122.329158793
116.55642833
108.601551896
99.3284575319
90.0329194442
78.6968379842
64.2762141093
46.0833068705
31.7085221597
34.3786626932
358.409505759
340.063094484
312.679565258
279.33943727
241.295406541
200.373771132
171.588249796
161.447152659
158.576799347
153.404573068
145.138136871
135.446919594
124.105545703
112.400617492
101.784494319
90.8037184751
77.4841497039
59.5213320979
38.5791897139
38.3893052299
350.362558685
336.171159111
313.52400426
284.301620607
252.312676253
227.71152989
216.117129769
205.884878497
192.966867632
178.577170163
163.998217161
149.232140023
133.668956835
118.847642655
107.450413803
97.9403088624
86.1211848805
70.2957486064
46.9219904773
43.3550150211
342.256644459
332.098973029
315.688458122
297.314816942
285.466997279
280.198962203
264.963859398
241.892847611
217.928778713
195.567780244
175.403370641
156.03212989
135.979090367
116.620738663
104.023913007
98.6674059101
90.52146416
76.7955003181
53.2842483552
48.8983824319
337.160051937
334.852026154
332.774114097
336.357546538
341.749270857
331.547335459
304.300245501
271.12566801
238.510073394
209.139524585
183.298106443
159.043809278
133.763230975
108.871262249
93.2055062431
91.7864321535
89.7422328596
78.1902968587
55.1530132719
55.2763333664
370.725335133
383.361248839
395.467037618
400.048468016
388.922483147
360.822286961
323.797102136
284.395303011
245.720685919
210.38606474
179.131417333
149.21592839
119.176964242
93.9357938433
81.9094939162
83.9487811319
86.0971100136
75.5831922354
52.5016249489
63.3844534618
430.528167596
430.27156951
422.903414366
405.637028016
377.481754769
340.333112647
299.213288802
257.13166924
218.438222712
183.494479313
151.028508545
119.575909153
92.4689305407
76.6037004918
73.6382641575
78.8738898839
80.7875864938
68.6484186033
52.3009151834
71.7212825251
396.096242137
384.335493543
363.096217364
331.595394768
291.268423217
247.74393907
209.791225015
178.940508642
152.871321548
128.016667787
103.509391181
82.8546724212
70.8949225067
25.845281719
51.9505159791
67.418966467
51.9265859315
71.2721417586
51.9095720398
69.8419469073
51.9049303691
66.2476562466
51.9053227264
62.1174322856
51.9098233152
58.1782687052
51.9178221087
54.6667908124
51.9291357544
51.6524292466
51.9439950018
49.1244376643
51.9627928917
47.0678290054
51.9859714048
45.4747970223
52.0139510955
44.3379141951
52.0471301668
43.6524406123
52.0859359032
43.4044553507
52.1309722987
43.6030827116
52.1831767781
44.2871925192
52.2440315903
45.5735325767
52.3150402528
47.6550058487
52.3976560967
50.8477112741
52.4914790072
55.7650690765
52.5949255325
62.9469927563
52.7050982318
76.7077221159
52.8186591274
102.703686962
226.204452541
116.434502004
237.305866627
128.442214444
250.977243998
141.887983586
268.666610316
151.513100595
291.048523978
)
;

boundaryField
{
    inletfuel
    {
        type            calculated;
        value           uniform 120.747670785;
    }
    inletair
    {
        type            calculated;
        value           uniform 4.0249223595;
    }
    outlet
    {
        type            calculated;
        value           nonuniform 0();
    }
    axis
    {
        type            empty;
    }
    leftside
    {
        type            calculated;
        value           nonuniform List<scalar> 
33
(
25.845281719
51.9505159791
14.7927248189
15.0624987161
15.2634413341
51.9505159791
51.9265859315
51.9095720398
51.9049303691
51.9053227264
51.9098233152
51.9178221087
51.9291357544
51.9439950018
51.9627928917
51.9859714048
52.0139510955
52.0471301668
52.0859359032
52.1309722987
52.1831767781
52.2440315903
52.3150402528
52.3976560967
52.4914790072
52.5949255325
52.7050982318
52.8186591274
226.204452541
237.305866627
250.977243998
268.666610316
291.048523978
)
;
    }
    burnerwall
    {
        type            calculated;
        value           nonuniform List<scalar> 7(4870.75321016 4870.00917403 4867.50340127 52.5628510356 57.0497763171 113.434874882 291.580731986);
    }
    front
    {
        type            wedge;
    }
    back
    {
        type            wedge;
    }
    procBoundary0to1
    {
        type            processor;
        value           nonuniform List<scalar> 
27
(
267.242991313
268.392680967
266.154750859
262.081206779
67.6077466465
70.4441470814
74.7710305993
73.405430392
61.6107727602
57.081411921
78.8603943595
250.243658363
228.14523763
201.432800274
175.442763414
153.814911277
136.898107388
122.758137295
109.230007643
94.81187115
80.7011697376
69.9769937359
64.5745500428
67.6077466465
63.2140151644
155.995177918
315.246491083
)
;
    }
}


// ************************************************************************* //
