/*--------------------------------*- C++ -*----------------------------------*\
  =========                 |
  \\      /  F ield         | OpenFOAM: The Open Source CFD Toolbox
   \\    /   O peration     | Website:  https://openfoam.org
    \\  /    A nd           | Version:  7
     \\/     M anipulation  |
\*---------------------------------------------------------------------------*/
FoamFile
{
    version     2.0;
    format      ascii;
    class       volScalarField;
    location    "0.04";
    object      p;
}
// * * * * * * * * * * * * * * * * * * * * * * * * * * * * * * * * * * * * * //

dimensions      [1 -1 -2 0 0 0 0];

internalField   nonuniform List<scalar> 
814
(
106254.680463
106245.297736
106262.750612
106236.860414
106232.013448
106235.521979
106219.292232
106216.537855
106219.35242
106217.927068
106216.14093
106221.405346
106225.736219
106224.705404
106223.699315
106209.937325
106209.357454
106209.55526
106202.286125
106202.299284
106202.682297
106197.25066
106197.078868
106197.17949
106189.566415
106189.469879
106189.425894
106180.532633
106180.525998
106180.361969
106170.707558
106170.674637
106170.499027
106160.143112
106160.051316
106159.92445
106148.551235
106148.391602
106148.280767
106135.982491
106135.808325
106135.65104
106122.364863
106122.219996
106122.054164
106107.781065
106107.642924
106107.536057
106092.523454
106092.397647
106092.321327
106076.41273
106076.277147
106076.218761
106059.062952
106058.972853
106058.93661
106040.849912
106040.785091
106040.763601
106021.865195
106021.808069
106021.785574
106002.361542
106002.322626
106002.278446
105982.363378
105982.32627
105982.284122
105962.960932
105962.925463
105962.887002
105944.764932
105944.741038
105944.696893
105928.113078
105928.09305
105928.07323
105912.615551
105912.605638
105912.583048
105897.770566
105897.76675
105897.74975
105882.925769
105882.91701
105882.90191
105868.754669
105868.691847
105868.663159
105853.418367
105853.351538
105853.334012
105841.402668
105841.432928
105841.537359
106208.790607
106226.159689
106209.564793
106202.789466
106196.981629
106189.202734
106180.176655
106170.383146
106159.802433
106148.164146
106135.48905
106121.897569
106107.429902
106092.238132
106076.130368
106058.879943
106040.725205
106021.738882
106002.209779
105982.215814
105962.819917
105944.635231
105928.036026
105912.551975
105897.726727
105882.878687
105868.624191
105853.309668
105841.683938
106246.328294
106246.675968
106247.681312
106249.405028
106251.926783
106254.997778
106258.761369
106262.996123
106267.69564
106272.740273
106278.104734
106283.75262
106289.704396
106295.884071
106302.030437
106307.841979
106312.894678
106317.337925
106320.588029
106323.020216
106235.640493
106236.608922
106238.915011
106241.351417
106244.815491
106248.36241
106252.967779
106257.876871
106263.25188
106268.833484
106274.589447
106280.480757
106286.571873
106292.818105
106298.98253
106304.820761
106309.882325
106314.326114
106317.444122
106319.77086
106229.639272
106230.660074
106231.535581
106233.023917
106236.928987
106240.97663
106246.744487
106252.392598
106258.554604
106264.736728
106270.963961
106277.170813
106283.441073
106289.761087
106295.948588
106301.819431
106306.898016
106311.341789
106314.288849
106316.613471
106226.050106
106215.100627
106223.763269
106222.478719
106230.126017
106234.156486
106240.974643
106247.09279
106254.026968
106260.76033
106267.438285
106273.951667
106280.404032
106286.802481
106293.007522
106298.891227
106303.972284
106308.405243
106311.138835
106313.530655
106222.323227
106218.656243
106217.209381
106216.099124
106221.129584
106224.933922
106233.635267
106240.612838
106248.494527
106255.829788
106263.03271
106269.913367
106276.593089
106283.094144
106289.328481
106295.228069
106300.311968
106304.722938
106307.484267
106309.721
106209.182432
106209.376988
106210.873253
106210.873709
106213.479896
106218.348246
106226.066557
106233.654197
106242.105579
106249.970898
106257.730693
106265.014649
106271.961923
106278.597542
106284.871556
106290.785942
106295.874008
106300.281898
106303.212337
106305.48826
106203.393994
106203.719749
106204.55316
106205.770954
106206.725283
106210.750566
106217.615565
106225.869099
106234.809945
106243.211498
106251.483138
106259.171638
106266.411069
106273.214813
106279.559355
106285.502673
106290.6078
106295.02166
106298.109739
106300.443036
106197.015116
106196.998391
106197.555405
106198.404891
106199.125135
106203.042282
106209.178251
106217.647601
106226.684597
106235.529751
106244.216738
106252.280966
106259.829424
106266.849794
106273.304323
106279.282989
106284.402906
106288.817286
106292.058019
106294.401668
106189.010205
106188.886063
106189.219652
106189.766676
106190.430539
106194.189311
106200.029835
106208.462135
106217.640462
106226.82253
106235.833076
106244.233239
106252.098687
106259.377611
106265.983881
106272.014201
106277.157833
106281.575909
106284.937526
106287.276039
106179.90451
106179.790481
106179.975856
106180.313244
106181.067295
106184.09431
106189.790448
106198.067114
106207.485381
106216.970157
106226.218446
106234.900396
106243.074875
106250.645846
106257.462202
106263.587086
106268.78352
106273.223818
106276.628756
106278.942853
106170.084496
106169.978469
106170.095004
106170.278989
106170.982895
106173.273647
106178.722911
106186.76692
106196.262626
106205.877502
106215.282708
106224.158836
106232.603587
106240.487608
106247.585959
106253.876473
106259.167751
106263.656015
106267.039389
106269.310557
106159.550636
106159.525865
106159.730007
106160.159099
106161.343537
106162.300798
106167.47398
106174.7014
106184.042605
106193.496554
106202.950568
106211.90827
106220.545099
106228.729117
106236.175296
106242.72736
106248.182201
106252.739976
106256.109376
106258.292617
106147.927278
106147.973145
106148.163953
106148.606057
106149.48696
106150.60597
106155.094614
106161.698367
106170.658235
106179.810081
106189.154667
106198.073823
106206.805931
106215.222686
106223.042337
106229.948942
106235.676462
106240.373924
106243.763876
106245.810005
106135.183792
106135.27066
106135.464372
106135.931724
106136.674018
106137.729287
106141.715064
106147.68364
106155.939162
106164.764609
106173.850376
106182.608746
106191.337999
106199.878471
106208.031397
106215.341001
106221.465359
106226.42544
106229.855024
106231.856088
106121.607525
106121.630493
106121.878193
106122.379063
106123.154203
106124.216577
106127.457013
106132.929687
106139.800991
106148.254541
106156.98355
106165.478351
106174.099412
106182.661361
106191.063107
106198.758125
106205.371151
106210.733459
106214.37732
106216.307806
106107.245215
106107.183649
106107.489204
106107.873389
106108.742907
106109.561477
106111.971099
106116.979057
106122.598514
106130.207055
106138.363791
106146.458978
106154.945681
106163.479339
106172.071142
106180.115137
106187.263081
106193.160004
106197.211661
106199.127286
106092.083039
106092.041081
106092.218141
106092.437063
106093.367485
106095.07936
106096.042655
106099.677879
106101.988964
106109.514719
106117.332593
106124.996634
106133.453488
106142.131788
106150.959024
106159.37789
106167.10208
106173.62965
106178.285543
106180.345218
106075.992638
106075.969927
106076.160608
106076.524164
106077.238599
106077.929938
106078.617988
106080.865715
106084.046462
106086.473306
106094.379686
106101.608364
106109.722294
106118.484638
106127.61394
106136.500931
106144.902176
106152.136438
106157.537473
106159.965697
106058.79311
106058.760706
106058.831313
106059.064832
106059.051309
106059.010402
106059.535152
106059.961469
106061.955229
106063.31008
106069.402939
106075.595185
106083.340987
106092.197291
106101.755959
106111.428596
106120.764015
106128.82677
106135.051908
106138.048474
106040.635425
106040.547406
106040.507011
106040.496348
106040.362982
106039.547154
106039.006767
106038.181784
106038.921192
106039.138224
106043.326546
106048.289919
106055.337441
106064.026259
106073.900904
106084.370358
106094.744199
106103.786232
106110.874249
106114.558626
106021.638022
106021.477989
106021.203029
106020.734695
106020.048441
106018.895382
106017.583023
106016.115217
106015.605024
106015.282013
106017.270811
106020.700968
106026.588186
106034.491113
106044.255248
106055.603226
106066.974371
106077.162023
106085.241989
106089.681449
106002.040198
106001.748094
106001.226894
106000.338028
105999.328265
105997.924844
105996.014831
105993.914271
105992.106551
105991.08376
105990.412301
105992.333674
105996.64445
106003.95208
106013.676033
106025.469868
106037.796322
106049.094141
106058.172699
106063.572439
105982.062159
105981.689453
105981.095853
105980.105084
105978.992519
105977.525754
105975.568189
105973.453956
105971.51638
105970.350589
105969.544122
105970.179799
105972.343407
105977.05677
105985.44005
105996.329717
106007.800359
106019.946417
106030.162705
106036.544384
105962.670539
105962.28912
105961.692265
105960.790906
105959.500534
105958.224614
105956.28428
105954.254968
105952.198892
105950.401656
105949.16021
105949.160537
105950.83513
105952.642072
105959.435863
105967.789377
105978.353149
105990.01035
106001.755533
106008.844257
105944.497445
105944.170617
105943.653262
105942.885157
105941.758979
105940.552422
105939.014287
105937.346567
105935.763542
105935.225046
105934.900513
105934.857368
105934.967295
105935.486301
105938.284276
105943.581143
105948.120017
105961.728107
105973.41065
105980.932216
105927.95281
105927.730883
105927.378459
105926.879172
105926.246748
105925.593557
105924.89468
105924.347766
105923.80601
105922.981577
105922.31545
105922.308972
105922.683726
105924.112209
105924.583312
105925.091644
105928.375337
105934.659289
105945.345702
105953.195754
105912.485698
105912.328127
105912.091532
105911.755285
105911.309965
105910.906531
105910.390495
105909.603878
105909.075383
105908.580474
105908.138909
105907.648274
105907.376254
105907.53599
105908.070973
105909.508003
105910.20407
105914.119934
105920.362836
105926.530592
105897.679676
105897.575229
105897.436671
105897.245229
105896.968497
105896.698448
105896.363263
105896.187731
105896.266505
105896.599889
105896.918975
105897.29855
105897.239374
105896.488792
105895.001097
105893.477951
105892.826267
105893.738031
105896.98565
105900.208389
105882.830373
105882.707526
105882.515494
105882.25965
105882.007349
105881.874622
105882.00755
105882.315704
105882.65355
105882.928945
105883.207897
105882.926152
105882.37191
105881.246812
105879.115289
105876.495317
105875.72957
105875.807717
105875.717627
105874.109135
105868.522232
105868.424241
105868.348159
105868.306048
105868.298095
105868.326305
105868.401164
105868.437388
105868.596508
105869.203948
105869.27612
105868.614993
105866.405301
105863.093492
105858.995466
105854.229509
105851.145677
105850.415052
105848.630932
105843.75008
105853.269941
105853.140301
105852.977325
105852.829408
105852.775514
105852.911238
105853.441344
105854.310615
105854.215664
105853.149765
105850.879547
105847.712285
105843.419376
105838.336336
105833.095196
105828.289841
105825.621038
105823.560447
105817.075997
105809.678612
105842.015581
105842.69528
105843.770426
105845.232314
105844.946242
105844.121092
105842.002236
105838.561217
105834.900511
105830.422968
105825.06604
105818.842761
105812.302618
106306.76196
106307.333431
106305.543676
106305.500529
106303.36728
106303.596164
106299.307722
106299.367685
106294.039426
106294.06692
106287.245024
106287.312895
106279.052666
106279.122912
106269.454904
106269.509733
106258.421547
106258.460454
106245.900783
106245.922562
106231.858369
106231.857557
106216.279644
106216.258551
106199.121517
106199.066813
106180.365091
106180.29849
106159.989955
106159.924553
106138.119225
106138.053773
106114.669669
106114.605618
106089.847716
106089.78419
106063.803032
106063.753574
106036.88976
106036.909901
106009.519639
106009.577708
105982.047738
105982.108942
105954.107237
105954.484312
105927.232986
105927.520671
105900.659269
105900.860352
105874.229604
105874.176203
105843.856385
105843.874988
105809.357043
105809.360772
)
;

boundaryField
{
    inletfuel
    {
        type            zeroGradient;
    }
    inletair
    {
        type            zeroGradient;
    }
    outlet
    {
        type            fixedValue;
        value           nonuniform 0();
    }
    axis
    {
        type            empty;
    }
    leftside
    {
        type            zeroGradient;
    }
    burnerwall
    {
        type            zeroGradient;
    }
    front
    {
        type            wedge;
    }
    back
    {
        type            wedge;
    }
    procBoundary0to1
    {
        type            processor;
        value           nonuniform List<scalar> 
27
(
105828.627338
105828.477632
105828.199813
105827.787612
105805.575731
105799.594202
105796.894598
105793.463227
105784.789295
105777.820581
105769.270535
105826.841199
105824.681589
105821.52117
105817.501907
105812.865089
105807.95198
105803.061419
105798.464814
105793.108408
105787.083618
105780.633786
105774.107795
105805.575731
105767.796755
105768.65198
105768.547945
)
;
    }
}


// ************************************************************************* //
