/*--------------------------------*- C++ -*----------------------------------*\
  =========                 |
  \\      /  F ield         | OpenFOAM: The Open Source CFD Toolbox
   \\    /   O peration     | Website:  https://openfoam.org
    \\  /    A nd           | Version:  7
     \\/     M anipulation  |
\*---------------------------------------------------------------------------*/
FoamFile
{
    version     2.0;
    format      ascii;
    class       volScalarField;
    location    "0.04";
    object      PaSR<psiReactionThermo>:kappa;
}
// * * * * * * * * * * * * * * * * * * * * * * * * * * * * * * * * * * * * * //

dimensions      [0 0 0 0 0 0 0];

internalField   nonuniform List<scalar> 
814
(
5.58078798013e-12
7.72052091277e-12
2.53048177021e-11
6.80735714516e-12
9.05887973289e-12
2.43974200097e-11
7.4589093698e-12
1.00638612492e-11
2.4010514161e-11
8.89602127123e-12
1.41181116026e-11
3.80725923108e-11
1.0644775913e-11
1.79990555048e-11
4.26679904112e-11
1.25428618604e-11
2.11782837289e-11
4.1118656526e-11
1.45852757823e-11
2.35112220473e-11
3.85562771138e-11
1.6352436804e-11
2.47390992518e-11
3.55492653994e-11
1.766530552e-11
2.49547896474e-11
3.24516878698e-11
1.8432037731e-11
2.44127805444e-11
2.94190905496e-11
1.86453668304e-11
2.3309622105e-11
2.65405090747e-11
1.83510509369e-11
2.18138726775e-11
2.38583690832e-11
1.76371747141e-11
2.0088442382e-11
2.13786144253e-11
1.66195492486e-11
1.82737391484e-11
1.90949282703e-11
1.54029679291e-11
1.64649126783e-11
1.69931450099e-11
1.40734468833e-11
1.47175030937e-11
1.50568101378e-11
1.27023851166e-11
1.30689246302e-11
1.32777080347e-11
1.13554462685e-11
1.15476524732e-11
1.16631191379e-11
1.00694246527e-11
1.01613503693e-11
1.0207877262e-11
8.81038409737e-12
8.84213353115e-12
8.8285109991e-12
7.3967451167e-12
7.38425425134e-12
7.3084267351e-12
5.64550201225e-12
5.60456284028e-12
5.48323021003e-12
3.87740531919e-12
3.83493083848e-12
3.73104997748e-12
2.8093180041e-12
2.78451617858e-12
2.7282249102e-12
2.43894206286e-12
2.4251420936e-12
2.39606523216e-12
2.33151244284e-12
2.32363812803e-12
2.30571155016e-12
2.28488991954e-12
2.27892366643e-12
2.26732208162e-12
2.23879448895e-12
2.23642538126e-12
2.23010967896e-12
2.20563371259e-12
2.20542176896e-12
2.20629522576e-12
2.38452498748e-12
2.39236528556e-12
2.41023171641e-12
2.87221893347e-12
2.87408302343e-12
2.88106882589e-12
2.47975685216e-12
2.48426911734e-12
2.47827147302e-12
2.06797765249e-12
2.8515926006e-11
3.18704521512e-11
3.14063575809e-11
2.98431685316e-11
2.79068909061e-11
2.58663384537e-11
2.38411851467e-11
2.18715727581e-11
1.99621805597e-11
1.8090933402e-11
1.62929077171e-11
1.45835835444e-11
1.29654103891e-11
1.14530304606e-11
1.00491160925e-11
8.67036468793e-12
7.10856691217e-12
5.25585767719e-12
3.55955183666e-12
2.64178490009e-12
2.35240772242e-12
2.27822033466e-12
2.24793353595e-12
2.21904627694e-12
2.20579634007e-12
2.43583660263e-12
2.89105539246e-12
2.46709280459e-12
3.12449432854e-13
1.32447579843e-13
1.13099537666e-13
1.04018751464e-13
9.39714941763e-14
8.35729588178e-14
7.30024607768e-14
6.36743999686e-14
5.57256782073e-14
4.94033389261e-14
4.4323438559e-14
4.04295891189e-14
3.73432940955e-14
3.5074564249e-14
3.32391544866e-14
3.20232174463e-14
3.10067289013e-14
3.04800325071e-14
3.1208380731e-14
1.02033959105e-13
3.53842270688e-13
2.76684121968e-13
2.32747232229e-13
1.79976254388e-13
1.42720971359e-13
1.14877025596e-13
9.31567015886e-14
7.62893391631e-14
6.36386142959e-14
5.45728471501e-14
4.7912912543e-14
4.3047472139e-14
3.93214445521e-14
3.65759931598e-14
3.43825341436e-14
3.28748999034e-14
3.16525260812e-14
3.10056635352e-14
3.24813761513e-14
1.0397801708e-13
7.12334791648e-13
6.67048127364e-13
5.0078106796e-13
3.18756298531e-13
2.28488068579e-13
1.65482919144e-13
1.21040330442e-13
9.07903232168e-14
7.08314915909e-14
5.82614868738e-14
5.0028778593e-14
4.44039417416e-14
4.02857448515e-14
3.72785105288e-14
3.49259018965e-14
3.32671270097e-14
3.19719430395e-14
3.12804117848e-14
3.33243799796e-14
1.05453548166e-13
3.13526275345e-12
1.38060240105e-12
1.00771243737e-12
7.38280032745e-13
4.93401544031e-13
2.95273283493e-13
1.88522566268e-13
1.22604738849e-13
8.47544938627e-14
6.41722374448e-14
5.28450173571e-14
4.60103077357e-14
4.1361092982e-14
3.80485202595e-14
3.5510368493e-14
3.36923250812e-14
3.23107351643e-14
3.15891533225e-14
3.42254140769e-14
1.22706348643e-13
6.93234043072e-12
2.25939748869e-12
1.23101454322e-12
1.01159952216e-12
8.850342973e-13
6.23712474156e-13
3.66812091012e-13
1.97472804377e-13
1.13042046816e-13
7.4361746833e-14
5.69483471891e-14
4.80983798563e-14
4.26831210509e-14
3.89865543431e-14
3.62054225032e-14
3.4208799359e-14
3.2709207071e-14
3.19679420823e-14
3.53845164504e-14
1.36630315745e-13
1.03895930997e-11
3.5605512528e-12
1.84277751336e-12
1.18426539893e-12
1.02049670668e-12
9.04946526867e-13
5.73521002344e-13
2.88283890729e-13
1.48804709077e-13
8.80889809208e-14
6.25059490631e-14
5.07594914293e-14
4.42771282762e-14
4.00943700341e-14
3.70137491569e-14
3.48137753146e-14
3.31758995576e-14
3.24086122116e-14
3.67632524838e-14
1.48485830758e-13
1.26156994282e-11
4.88192572401e-12
2.48268453164e-12
1.35748479789e-12
1.05285817491e-12
9.77781543276e-13
6.97294870491e-13
3.57689000405e-13
1.80897645015e-13
1.03195366478e-13
6.93710280895e-14
5.40316235138e-14
4.61458487588e-14
4.13507018478e-14
3.79157046669e-14
3.54787361376e-14
3.36874915748e-14
3.28587152146e-14
3.83528840808e-14
1.57775561373e-13
1.40536237065e-11
6.20269282358e-12
3.16904290584e-12
1.61945488283e-12
1.10803020167e-12
9.93633700359e-13
7.44805370198e-13
4.02506154172e-13
2.089107414e-13
1.19113977977e-13
7.739757196e-14
5.79514063e-14
4.83256920616e-14
4.27760430192e-14
3.89274139845e-14
3.62162238959e-14
3.42534810807e-14
3.33400134677e-14
3.99815272124e-14
1.64483705398e-13
1.49305191705e-11
7.45428047872e-12
3.96245163048e-12
2.05909500079e-12
1.25535445708e-12
1.04087085724e-12
7.95337501523e-13
4.49594835692e-13
2.38462408613e-13
1.35944997041e-13
8.63022410705e-14
6.24840877185e-14
5.08564860087e-14
4.44157455887e-14
4.00893974124e-14
3.70681795502e-14
3.49116319261e-14
3.39219980045e-14
4.15373434171e-14
1.67959438367e-13
1.53959751116e-11
8.53559021748e-12
4.8187160271e-12
2.60553594787e-12
1.42122412299e-12
1.10706869165e-12
8.71129823503e-13
5.14168444749e-13
2.723303924e-13
1.53384929498e-13
9.56783456733e-14
6.75340450648e-14
5.37753167483e-14
4.63301186144e-14
4.1459959535e-14
3.80931344627e-14
3.5718393643e-14
3.46722973434e-14
4.305678178e-14
1.68912108159e-13
1.55360469248e-11
9.35618228389e-12
5.62362134447e-12
3.15496757065e-12
1.59123059366e-12
1.19835902487e-12
9.53373605126e-13
5.95213463212e-13
3.09845032601e-13
1.70778514239e-13
1.05120668916e-13
7.3001371164e-14
5.71366128191e-14
4.86083209908e-14
4.31299381349e-14
3.93802860342e-14
3.67640686812e-14
3.567246398e-14
4.46268014204e-14
1.68310746073e-13
1.53880751437e-11
9.89707453e-12
6.30965781548e-12
3.68729530878e-12
1.85139105156e-12
1.31294775324e-12
1.02316679488e-12
6.74449050606e-13
3.46918915659e-13
1.8709293297e-13
1.14306541135e-13
7.88391526243e-14
6.10454211695e-14
5.13937700422e-14
4.52452583199e-14
4.10770110666e-14
3.82031856198e-14
3.70657663643e-14
4.63999463964e-14
1.66972247736e-13
1.49924711274e-11
1.019593788e-11
6.85589567694e-12
4.1994498948e-12
2.19072698344e-12
1.44002153913e-12
1.08848835432e-12
7.37646774499e-13
3.79747606658e-13
2.0167779849e-13
1.23170837994e-13
8.51684947767e-14
6.57243307666e-14
5.49328354205e-14
4.80466961922e-14
4.34264493273e-14
4.02957203438e-14
3.91104431251e-14
4.87132087903e-14
1.65365438437e-13
1.44048784093e-11
1.02975609076e-11
7.251045788e-12
4.65017657176e-12
2.51088019964e-12
1.56050603355e-12
1.15325430738e-12
7.82815234824e-13
4.05984274462e-13
2.14243517369e-13
1.31915613655e-13
9.23391535266e-14
7.15571418037e-14
5.9601930099e-14
5.19041690793e-14
4.6807304385e-14
4.34543807895e-14
4.2236330712e-14
5.2137140102e-14
1.63875962524e-13
1.36235090055e-11
1.02223267461e-11
7.47298806052e-12
4.97371079692e-12
2.73302198377e-12
1.64644604999e-12
1.19696826895e-12
8.02281204555e-13
4.2166149479e-13
2.24495061454e-13
1.41366229927e-13
1.01164386532e-13
7.92293558962e-14
6.60225089613e-14
5.74115490133e-14
5.18164305004e-14
4.83218598392e-14
4.71151707043e-14
5.74377814135e-14
1.62934012041e-13
1.2663146383e-11
9.95062416488e-12
7.51553112103e-12
5.12576167577e-12
2.80554530563e-12
1.66519340057e-12
1.17834695729e-12
7.75983826954e-13
4.19317302042e-13
2.32986664745e-13
1.53057800762e-13
1.12964446874e-13
8.97333968995e-14
7.50034427929e-14
6.53412969585e-14
5.92428335968e-14
5.57516272529e-14
5.46410081473e-14
6.54902925487e-14
1.63015378169e-13
1.15993462614e-11
9.4483049399e-12
7.31512167865e-12
5.04561365317e-12
2.67057251926e-12
1.57605328829e-12
1.07255127833e-12
6.92102534703e-13
3.95767916352e-13
2.41274824568e-13
1.69567540177e-13
1.29665587908e-13
1.04588745565e-13
8.7777161746e-14
7.6760382076e-14
7.01033662472e-14
6.67567153524e-14
6.58019350504e-14
7.70953207731e-14
1.645559373e-13
1.04734491069e-11
8.73722791995e-12
6.80028324821e-12
4.56710499427e-12
2.3189385816e-12
1.38483198449e-12
9.10926880746e-13
5.8265976587e-13
3.69037118768e-13
2.55921978468e-13
1.93871577398e-13
1.53869796924e-13
1.25851932785e-13
1.05903355136e-13
9.27946331416e-14
8.52344581473e-14
8.19798397337e-14
8.11144087863e-14
9.22939872011e-14
1.67765280983e-13
9.29464450423e-12
7.80552325936e-12
5.94650432934e-12
3.75712314362e-12
1.91696953599e-12
1.18514043432e-12
7.50228246327e-13
4.95323646175e-13
3.5631090014e-13
2.79658447826e-13
2.27823115006e-13
1.88833819232e-13
1.57136838879e-13
1.32353398329e-13
1.15210391656e-13
1.05262209548e-13
1.01194986571e-13
9.98692167925e-14
1.09795168876e-13
1.72591906976e-13
7.98873057942e-12
6.5845335637e-12
4.74348674041e-12
2.80722123023e-12
1.56249431936e-12
1.0431737217e-12
6.63083421434e-13
4.52674527013e-13
3.60043741704e-13
3.10250640152e-13
2.72879355142e-13
2.39139361599e-13
2.05533526705e-13
1.73657522537e-13
1.47873749706e-13
1.31198313746e-13
1.23409727845e-13
1.20097597756e-13
1.27347587426e-13
1.78826978953e-13
6.4048853098e-12
5.03468678874e-12
3.39144980257e-12
2.00891022632e-12
1.31226933563e-12
9.57380373365e-13
6.38551255795e-13
4.483331637e-13
3.75455352255e-13
3.47991816368e-13
3.29283545291e-13
3.07166594445e-13
2.7696745081e-13
2.39665068431e-13
1.99493010951e-13
1.67488427152e-13
1.49028258934e-13
1.40084408206e-13
1.43113284926e-13
1.86418982591e-13
4.59453918412e-12
3.47229722775e-12
2.33705404669e-12
1.54374920481e-12
1.16643917662e-12
8.97892208784e-13
6.24402866845e-13
4.5997068151e-13
4.04000784655e-13
3.94411809927e-13
3.94885679764e-13
3.85298454541e-13
3.62647442453e-13
3.27420084108e-13
2.77149117818e-13
2.23651325504e-13
1.83385639649e-13
1.61033810036e-13
1.56946563236e-13
1.95509623884e-13
3.12977109954e-12
2.46115138451e-12
1.83219309715e-12
1.37451032455e-12
1.09461725222e-12
8.64383827883e-13
6.24029603002e-13
4.86271155424e-13
4.49053455084e-13
4.5413129606e-13
4.66636599198e-13
4.64470447686e-13
4.47353187099e-13
4.1750452619e-13
3.70218728072e-13
3.04662284053e-13
2.36720660358e-13
1.88894178966e-13
1.70909181623e-13
2.06965696432e-13
2.43725207034e-12
2.08608031476e-12
1.70284723429e-12
1.35058575488e-12
1.0645852312e-12
8.41770112272e-13
6.36913260209e-13
5.34816799437e-13
5.21921563033e-13
5.39516108512e-13
5.55236573056e-13
5.5097601985e-13
5.31560378863e-13
5.01126460945e-13
4.607554001e-13
3.97778841989e-13
3.14795144032e-13
2.33476663515e-13
1.89279145203e-13
2.22085786735e-13
2.24636491239e-12
2.02152530618e-12
1.72388079368e-12
1.39876282303e-12
1.09304120483e-12
8.51096953093e-13
6.90169760326e-13
6.30837426151e-13
6.42654320277e-13
6.63616085246e-13
6.62776574196e-13
6.45116574302e-13
6.16748953303e-13
5.80926692699e-13
5.4263187172e-13
4.84988847872e-13
4.04573316039e-13
3.02422710765e-13
2.18632844813e-13
2.43337797751e-13
2.20810600679e-12
2.03618069653e-12
1.78522538724e-12
1.4843696401e-12
1.18035463855e-12
9.44229548857e-13
8.36865640476e-13
8.27511070936e-13
8.43077442042e-13
8.29840462879e-13
7.87976191638e-13
7.43100685462e-13
6.95200408793e-13
6.49339335382e-13
6.09532591188e-13
5.59758911435e-13
4.86722180445e-13
3.84636743384e-13
2.63634343787e-13
2.71587241651e-13
2.19825204547e-12
2.06629750176e-12
1.86378465814e-12
1.61097208937e-12
1.35996120941e-12
1.20480893165e-12
1.16976682869e-12
1.14945894608e-12
1.08935277113e-12
1.00271473361e-12
9.06776013875e-13
8.16434441192e-13
7.41046737539e-13
6.80950893436e-13
6.43379670894e-13
6.07711443563e-13
5.44751695085e-13
4.52976509555e-13
3.17731010048e-13
3.06533688311e-13
2.18795513488e-12
2.09669524077e-12
1.95646590832e-12
1.8020534533e-12
1.70142311234e-12
1.66582614934e-12
1.57783551552e-12
1.43095567191e-12
1.26773126617e-12
1.11049852817e-12
9.69254892415e-13
8.52200422676e-13
7.51742445252e-13
6.66573759179e-13
6.24775420623e-13
6.18322549071e-13
5.79700340282e-13
4.98338879907e-13
3.60045619773e-13
3.46090130096e-13
2.20147429708e-12
2.17690357083e-12
2.1519324596e-12
2.16478225037e-12
2.19142894519e-12
2.11058950158e-12
1.90016628354e-12
1.63942983762e-12
1.38788421957e-12
1.17348224751e-12
1.00645913117e-12
8.76007382799e-13
7.51502705221e-13
6.35194068525e-13
5.70914083085e-13
5.84434739877e-13
5.83152583511e-13
5.12881895756e-13
3.74866162791e-13
3.92461597692e-13
2.4891488345e-12
2.57244157976e-12
2.64931552801e-12
2.66942784853e-12
2.57019568546e-12
2.33392860068e-12
2.01599361403e-12
1.68188954992e-12
1.38151224736e-12
1.15604860102e-12
9.91418166353e-13
8.44132438649e-13
6.9834096839e-13
5.74978895066e-13
5.20471168297e-13
5.46067382087e-13
5.67474070551e-13
5.00951002685e-13
3.61205166701e-13
4.52092548802e-13
2.90569958755e-12
2.89032049476e-12
2.81457540748e-12
2.65388725954e-12
2.39729201028e-12
2.06276041272e-12
1.71158883132e-12
1.41488197534e-12
1.19905654082e-12
1.02635038501e-12
8.70865796786e-13
7.16710627649e-13
5.78463073326e-13
4.94963979286e-13
4.83934839447e-13
5.22749155699e-13
5.383857809e-13
4.60412288496e-13
3.64701509167e-13
5.13730610756e-13
2.4259249384e-12
2.31357649016e-12
2.13370525803e-12
1.90005704545e-12
1.63469466699e-12
1.37691840065e-12
1.17249813195e-12
1.01872681349e-12
8.93168089075e-13
7.71334578844e-13
6.46035234451e-13
5.34814696469e-13
4.68427973123e-13
1.84303212321e-13
3.58507133833e-13
4.74718694009e-13
3.6364023316e-13
5.01922495962e-13
3.65473078904e-13
4.91547920653e-13
3.65117501319e-13
4.65883370108e-13
3.63993636548e-13
4.36399118611e-13
3.62513668975e-13
4.08263161067e-13
3.60857262968e-13
3.83141837854e-13
3.59102853008e-13
3.6152556497e-13
3.57332978906e-13
3.43343092876e-13
3.55632419862e-13
3.28505652381e-13
3.5409717281e-13
3.16976179364e-13
3.52816175603e-13
3.0871203758e-13
3.51858022375e-13
3.03674831449e-13
3.51246083608e-13
3.01743405778e-13
3.50969451786e-13
3.02931463169e-13
3.50983434334e-13
3.07430128657e-13
3.5125082224e-13
3.15948610042e-13
3.51763765769e-13
3.29686282367e-13
3.52544188788e-13
3.50673564859e-13
3.53667357892e-13
3.82767093802e-13
3.55302649045e-13
4.29347534665e-13
3.57811962119e-13
5.16970057039e-13
3.59863046745e-13
6.76953297075e-13
1.25962980138e-12
7.65038221966e-13
1.33001958678e-12
8.4794155903e-13
1.42776313793e-12
9.45486391637e-13
1.56242531792e-12
1.02493439449e-12
1.73629232296e-12
)
;

boundaryField
{
    inletfuel
    {
        type            calculated;
        value           uniform 0;
    }
    inletair
    {
        type            calculated;
        value           uniform 0;
    }
    outlet
    {
        type            calculated;
        value           nonuniform 0();
    }
    axis
    {
        type            empty;
    }
    leftside
    {
        type            calculated;
        value           uniform 0;
    }
    burnerwall
    {
        type            calculated;
        value           uniform 0;
    }
    front
    {
        type            wedge;
    }
    back
    {
        type            wedge;
    }
    procBoundary0to1
    {
        type            processor;
        value           uniform 0;
    }
}


// ************************************************************************* //
