/*--------------------------------*- C++ -*----------------------------------*\
  =========                 |
  \\      /  F ield         | OpenFOAM: The Open Source CFD Toolbox
   \\    /   O peration     | Website:  https://openfoam.org
    \\  /    A nd           | Version:  7
     \\/     M anipulation  |
\*---------------------------------------------------------------------------*/
FoamFile
{
    version     2.0;
    format      ascii;
    class       surfaceScalarField;
    location    "0.04";
    object      phi;
}
// * * * * * * * * * * * * * * * * * * * * * * * * * * * * * * * * * * * * * //

dimensions      [1 0 -1 0 0 0 0];

internalField   nonuniform List<scalar> 
1567
(
-3.65386023121e-09
9.33912845893e-08
-1.35942764063e-08
2.79147412127e-07
4.35203325634e-07
1.38860790711e-09
9.21621183283e-08
-1.02822967259e-09
2.82027067105e-07
4.34912591835e-07
-2.23241065858e-10
9.24747535004e-08
-5.5430838312e-09
2.87613427289e-07
4.29803623069e-07
-3.60616490339e-09
9.61474168139e-08
-3.35911957228e-09
2.8735322514e-07
4.00999893589e-07
2.06067267563e-08
-1.11793572646e-09
9.73081928806e-08
6.09502960947e-09
2.80058070639e-07
3.92787656926e-07
1.24548343786e-08
-1.7038405235e-10
9.75108749807e-08
3.13176585334e-09
2.76736335503e-07
3.80303955251e-07
1.49288790574e-08
-1.24070368781e-09
9.87806828195e-08
-1.66397674208e-09
2.77188825423e-07
3.78024869239e-07
3.66808669686e-10
-8.69098197433e-10
9.96841580944e-08
-2.12010458729e-09
2.78516300444e-07
3.78073013822e-07
-2.1823709562e-09
-5.41560336944e-10
1.00272506719e-07
-8.57621567139e-10
2.78951773718e-07
3.79354517531e-07
-1.9665892522e-09
-2.2453119108e-10
1.00558452049e-07
1.16856707372e-09
2.77701245614e-07
3.81946371518e-07
-1.04318302498e-09
4.59382478831e-10
1.00167309248e-07
2.89496541307e-09
2.75429456943e-07
3.85190245954e-07
2.47366947703e-10
1.3712952584e-09
9.8857468805e-08
4.23631710156e-09
2.72747562986e-07
3.88353375338e-07
1.90060729629e-09
2.43355471851e-09
9.64650755929e-08
6.29943084385e-09
2.69082128414e-07
3.90054386997e-07
5.59104260002e-09
3.59284515052e-09
9.28878179095e-08
1.05816853485e-08
2.62301092817e-07
3.87870520602e-07
1.38531808179e-08
4.61285739233e-09
8.82718121842e-08
1.51743983433e-08
2.51955724145e-07
3.80457716123e-07
2.37456712452e-08
5.49743219166e-09
8.2781431581e-08
1.89145747864e-08
2.38825718938e-07
3.67475129809e-07
3.31582462649e-08
6.31337234599e-09
7.65299626799e-08
2.27464936183e-08
2.22831750981e-07
3.48453175492e-07
4.32347487955e-08
7.32963399709e-09
6.93704334322e-08
2.69947641228e-08
2.038973744e-07
3.2288125002e-07
5.43842661497e-08
7.89908311778e-09
6.17978169107e-08
3.02157430696e-08
1.82692917596e-07
2.92648575527e-07
6.26887575257e-08
8.01488076151e-09
5.42197663636e-08
3.11907576319e-08
1.6090938629e-07
2.60810475501e-07
6.55542882951e-08
7.15067432623e-09
4.76810681093e-08
2.77027615157e-08
1.4223120987e-07
2.32845226087e-07
5.89539000419e-08
5.61644986415e-09
4.28604872058e-08
2.22596484987e-08
1.28007225223e-07
2.11785583125e-07
4.74634386752e-08
3.84080579722e-09
3.96878231021e-08
1.51545866292e-08
1.1869638356e-07
1.9702715744e-07
3.32945809023e-08
2.68931756458e-09
3.73421456549e-08
1.0453972534e-08
1.11975422249e-07
1.85490248202e-07
2.3748346137e-08
1.70142929731e-09
3.57684678565e-08
7.04853377479e-09
1.07000331927e-07
1.77345329465e-07
1.58042395289e-08
6.71319320829e-10
3.50851975629e-08
2.43311629206e-09
1.05205461465e-07
1.73824106621e-07
5.86436370694e-09
-1.45701038392e-10
3.51709731678e-08
-5.91371326073e-10
1.05445889971e-07
1.74294385068e-07
-1.46590980734e-09
-4.52674301521e-10
3.55317012556e-08
-1.78078141684e-09
1.06495481423e-07
1.76236131127e-07
-4.25161760609e-09
6.70714775662e-10
3.48141408757e-08
2.6985495029e-09
1.04308511218e-07
1.72539681227e-07
6.08797969382e-09
4.15410369823e-09
3.07517123675e-08
1.50435838653e-08
9.3718980452e-08
1.55634840727e-07
3.24929506134e-08
8.09934161557e-09
2.43726994555e-08
3.15462761204e-08
7.54963065664e-08
1.25484409841e-07
7.07068839754e-08
1.07420527167e-08
4.35997663727e-08
9.86717249226e-08
2.63082182247e-07
-2.75418427901e-07
2.64814601973e-07
2.37115418732e-09
2.73387857486e-07
3.17022432438e-09
2.93736885105e-07
-2.11746200955e-08
3.15063195356e-07
-2.35188261226e-08
3.3473524762e-07
-2.08134487529e-08
3.52672949895e-07
-1.75154753826e-08
3.69212172751e-07
-1.43186913788e-08
3.84511303926e-07
-1.10611057126e-08
3.97032120935e-07
-4.50690722166e-09
4.04457957182e-07
8.72913545693e-09
4.05207089102e-07
2.52771887097e-08
3.98553325611e-07
4.21702118313e-08
3.83502113447e-07
6.08273287349e-08
3.60784168607e-07
7.99247749284e-08
3.31335397754e-07
9.51994949784e-08
2.98697686414e-07
1.0144262827e-07
2.7021222641e-07
9.16846100864e-08
2.48192658255e-07
7.47708162836e-08
2.32087247038e-07
5.36188872e-08
2.19221031403e-07
3.88382903782e-08
2.09334173572e-07
2.64529929675e-08
2.05372203873e-07
9.70754269465e-09
2.06041796309e-07
-2.71648404857e-09
2.08757466543e-07
-7.68351251395e-09
2.0450155208e-07
9.89988505937e-09
1.84491215898e-07
5.32517956948e-08
1.48871098346e-07
1.17645311677e-07
1.65799133758e-07
-2.73288425044e-07
1.27846013677e-06
-7.50025151351e-07
2.08268060583e-06
-1.31680419315e-06
2.92156278858e-06
-2.04682469411e-06
4.01254237056e-06
-2.78226342096e-06
5.16150662504e-06
-3.70524820983e-06
6.75220725232e-06
-4.57916912679e-06
8.41838557089e-06
-5.46023707299e-06
1.05154196834e-05
-6.19900893823e-06
1.29130403306e-05
-6.80254815686e-06
1.58577005845e-05
-7.20586665594e-06
1.93832133497e-05
-7.40295204306e-06
2.367499315e-05
-7.36891062207e-06
2.88627868032e-05
-7.07077211167e-06
3.5110279709e-05
-6.54676825389e-06
4.26920682039e-05
-5.6590098108e-06
5.16774329411e-05
-4.62678221439e-06
6.27259128222e-05
-3.07328728525e-06
7.56034136052e-05
-1.96955683735e-06
9.20350407575e-05
0.000110232281129
1.12620418539e-07
1.15608442182e-06
-2.47354355952e-07
2.46713668105e-06
-4.60639684826e-07
3.20421420814e-06
-1.05918391708e-06
4.723401589e-06
-1.6493004693e-06
5.91400335871e-06
-2.25813399959e-06
7.5806580422e-06
-2.75703367025e-06
9.20671419955e-06
-3.2194177065e-06
1.13521185735e-05
-3.56335293785e-06
1.37351700022e-05
-3.83883364598e-06
1.67377978242e-05
-3.99320910684e-06
2.02966689621e-05
-4.04892836769e-06
2.46793054113e-05
-3.98574680227e-06
2.99802818398e-05
-3.78740508219e-06
3.63712981837e-05
-3.46400595794e-06
4.41574791508e-05
-2.9533439869e-06
5.33446175565e-05
-2.34904438075e-06
6.47628284081e-05
-1.47632755997e-06
7.79301415375e-05
-1.31127011571e-06
9.57166188905e-05
0.000113547985797
-2.73096712144e-07
1.08225776588e-06
-4.85291811675e-07
2.18883413119e-06
-6.72404644622e-07
3.11845465709e-06
-8.75982006557e-07
4.85738232648e-06
-1.0824710318e-06
6.16417791432e-06
-1.47342336899e-06
8.09613848408e-06
-1.74764185763e-06
9.67208234365e-06
-1.99711282156e-06
1.18563555734e-05
-2.1390009038e-06
1.42039562656e-05
-2.23995337066e-06
1.72512725912e-05
-2.27808822875e-06
2.08507239872e-05
-2.27253060204e-06
2.53157749559e-05
-2.20805584918e-06
3.07124076392e-05
-2.07800231358e-06
3.72247771658e-05
-1.8756600857e-06
4.51615312777e-05
-1.57679384216e-06
5.45163691619e-05
-1.19953648428e-06
6.61703573398e-05
-6.92411425589e-07
7.95841997129e-05
-8.43374150651e-07
9.84668239246e-05
0.000115837322041
-3.66334069423e-07
7.51752470448e-07
-2.93576761693e-07
1.0352766735e-06
-9.83950705842e-07
2.06983482061e-06
-1.25406257621e-06
3.6021993448e-06
-1.76699403853e-06
5.77342694724e-06
-1.89782189107e-06
7.97438567202e-06
-2.10443803051e-06
9.96652921589e-06
-2.24000587756e-06
1.2249117262e-05
-2.30977082291e-06
1.46314259416e-05
-2.34674078195e-06
1.77446492298e-05
-2.34255246228e-06
2.14174190013e-05
-2.3059873631e-06
2.59880928934e-05
-2.21704123735e-06
3.15012022289e-05
-2.07295693593e-06
3.81629971273e-05
-1.84958794113e-06
4.62659432394e-05
-1.53438103705e-06
5.58209983389e-05
-1.08638435304e-06
6.76900007416e-05
-5.25639802233e-07
8.14051854619e-05
7.99513021264e-07
0.000100008793697
0.000118903748628
8.01783568867e-07
4.42631264788e-08
6.10340506643e-07
1.5530328929e-08
7.17811318674e-07
-2.12413582653e-07
1.22299513407e-06
-8.6145878479e-07
2.02075371592e-06
-2.06875522594e-06
4.11046024859e-06
-2.58984213192e-06
6.35670055471e-06
-2.81367428514e-06
9.31515936869e-06
-2.65015279574e-06
1.20652142167e-05
-2.58694846148e-06
1.4892139211e-05
-2.54675058822e-06
1.81694119139e-05
-2.49883372762e-06
2.19577653262e-05
-2.42939474489e-06
2.66495688998e-05
-2.31997857634e-06
3.22953387356e-05
-2.15798245558e-06
3.91144438334e-05
-1.91163390627e-06
4.73864359076e-05
-1.56913176319e-06
5.71479459346e-05
-1.04124369908e-06
6.9190557163e-05
-3.49508686669e-07
8.31667217333e-05
1.34836730116e-06
0.00010126714648
0.000119620935475
4.15603957071e-06
-3.35028229104e-08
6.01019764508e-07
-1.45090232648e-07
6.76292880655e-07
-3.03390927355e-07
9.67040122001e-07
-9.21437066635e-07
1.408251673e-06
-1.994788091e-06
2.79832279653e-06
-2.85797140163e-06
4.79198159009e-06
-3.18113558373e-06
8.23858675514e-06
-3.06940691288e-06
1.16334147463e-05
-2.96361113279e-06
1.50160129285e-05
-2.82257234001e-06
1.84880600582e-05
-2.72678969281e-06
2.24607217364e-05
-2.6206442457e-06
2.72896938111e-05
-2.48719734228e-06
3.30836119188e-05
-2.30418571411e-06
4.00660655145e-05
-2.03197311132e-06
4.85077152366e-05
-1.6558025494e-06
5.84763828422e-05
-1.05300216906e-06
7.06603424305e-05
-2.4708095732e-07
8.48653493434e-05
1.52705875697e-06
0.000102517336399
0.000119776803171
5.04220067912e-06
-8.41359772316e-08
6.42140311552e-07
-1.89241841375e-07
7.09114486835e-07
-3.51897401498e-07
9.33290230582e-07
-7.4448796555e-07
1.3109983321e-06
-1.58129258929e-06
2.39781290589e-06
-2.66994219403e-06
4.282536737e-06
-3.22627600065e-06
7.64594277957e-06
-3.33581099013e-06
1.13290347399e-05
-3.24126604622e-06
1.50558403782e-05
-3.0693210312e-06
1.87608629026e-05
-2.9389878161e-06
2.29406549935e-05
-2.80291530145e-06
2.79208797627e-05
-2.64665447723e-06
3.38751955465e-05
-2.4447132637e-06
4.10299326928e-05
-2.14946811168e-06
4.96445474197e-05
-1.74573990114e-06
5.98264993575e-05
-1.08275671562e-06
7.21302877986e-05
-2.12378186709e-07
8.65720630551e-05
1.75122959324e-06
0.000103664016691
0.00012021724812
5.02975057408e-06
-9.85130224562e-08
7.09055643114e-07
-2.08607772573e-07
7.86771097723e-07
-3.72139715577e-07
9.98388276713e-07
-7.27457131276e-07
1.40220135991e-06
-1.29125807305e-06
2.44827087568e-06
-2.19103455484e-06
4.37677493153e-06
-2.93888202638e-06
7.61139653681e-06
-3.33492526994e-06
1.12981249002e-05
-3.3782342088e-06
1.51462818514e-05
-3.25810987293e-06
1.90558317519e-05
-3.11425539826e-06
2.3422010601e-05
-2.96276361238e-06
2.85623272317e-05
-2.79023850508e-06
3.46842030734e-05
-2.57530772229e-06
4.20216115029e-05
-2.26330482204e-06
5.08134887706e-05
-1.84164706386e-06
6.1218367293e-05
-1.14090963628e-06
7.36356024365e-05
-2.43805020524e-07
8.83404598971e-05
1.75629391208e-06
0.000104881395447
0.000121441518911
4.3390555601e-06
-9.73342256005e-08
7.85172658671e-07
-2.01309833611e-07
8.75558350881e-07
-3.42817048597e-07
1.07077671269e-06
-6.4665241147e-07
1.44848938993e-06
-1.22746340902e-06
2.44731453122e-06
-2.12627561016e-06
4.39795477776e-06
-2.86473281318e-06
7.44494814125e-06
-3.36278924048e-06
1.1208708846e-05
-3.4900424029e-06
1.51907842791e-05
-3.42356452383e-06
1.935274785e-05
-3.27535882558e-06
2.3906961787e-05
-3.11736959823e-06
2.92233187819e-05
-2.9368623331e-06
3.5521837372e-05
-2.71544188993e-06
4.30514277988e-05
-2.39499242377e-06
5.2026241522e-05
-1.96370653573e-06
6.26628007445e-05
-1.24735457976e-06
7.52015885371e-05
-3.45233269288e-07
9.01975871843e-05
1.52760018429e-06
0.000106340052478
0.00012340567705
3.50087214985e-06
-9.20637195702e-08
8.63802034924e-07
-1.86661343652e-07
9.64090740989e-07
-3.01436976408e-07
1.13290452635e-06
-5.36616302382e-07
1.44456296455e-06
-1.16774398106e-06
2.3007907924e-06
-2.12634878982e-06
4.12194610568e-06
-2.97199647823e-06
7.00139310369e-06
-3.49435344501e-06
1.0879346797e-05
-3.64890526053e-06
1.50973906155e-05
-3.58992394971e-06
1.95810544546e-05
-3.43651977962e-06
2.43833059716e-05
-3.27512086708e-06
2.99034567122e-05
-3.09512766733e-06
3.63958243033e-05
-2.87532581461e-06
4.41279930774e-05
-2.55570472072e-06
5.32922474135e-05
-2.12196399586e-06
6.41647114891e-05
-1.40735701944e-06
7.68418862464e-05
-5.10743637597e-07
9.21526373048e-05
1.16007330761e-06
0.000108109979782
0.000125886928649
2.75070081415e-06
-8.68245905643e-08
9.43313090605e-07
-1.79932355849e-07
1.05775193138e-06
-2.82871045267e-07
1.20120751324e-06
-4.63395725189e-07
1.44603609629e-06
-1.04882506116e-06
2.11287200383e-06
-2.01271800644e-06
3.70457279708e-06
-2.99003652823e-06
6.43349246651e-06
-3.54775283255e-06
1.03673730153e-05
-3.76632132152e-06
1.49191120599e-05
-3.71023878225e-06
1.97367465041e-05
-3.57376083798e-06
2.48531411531e-05
-3.42025653929e-06
3.06055742655e-05
-3.25537157495e-06
3.73177612085e-05
-3.0499239544e-06
4.52637256982e-05
-2.74115589432e-06
5.46217546839e-05
-2.31239375437e-06
6.57298142231e-05
-1.61086479604e-06
7.85623901163e-05
-7.22825290202e-07
9.42006358118e-05
7.60452435929e-07
0.000110172751774
0.000128699934317
2.13726274124e-06
-8.33960565383e-08
1.02489507712e-06
-1.82713899425e-07
1.16295956972e-06
-2.96063692691e-07
1.29345491487e-06
-4.78969394745e-07
1.49453869479e-06
-9.15802627655e-07
2.04783534475e-06
-1.7714371694e-06
3.37742488163e-06
-2.78403862221e-06
5.98429849169e-06
-3.44007569449e-06
9.91603116838e-06
-3.74936598941e-06
1.4761234061e-05
-3.73904115489e-06
1.98789245239e-05
-3.64698157756e-06
2.53258058459e-05
-3.52859862857e-06
3.13444833329e-05
-3.40021843912e-06
3.83019973811e-05
-3.22768856569e-06
4.64743331463e-05
-2.94278789461e-06
5.60274651197e-05
-2.52680285475e-06
6.73651828905e-05
-1.84388120867e-06
8.0365180135e-05
-9.61087920064e-07
9.63303887591e-05
3.86002255337e-07
0.00011246766579
0.000131707917341
1.66555075337e-06
-7.27631804391e-08
1.10430132932e-06
-1.71865502053e-07
1.2728405503e-06
-2.86951210409e-07
1.39951904109e-06
-4.51566826162e-07
1.56155821799e-06
-8.04066971151e-07
2.03818178097e-06
-1.49761794564e-06
3.19785331085e-06
-2.39417521356e-06
5.69360823234e-06
-3.11922094059e-06
9.64448482755e-06
-3.50854206118e-06
1.46883452606e-05
-3.60093661781e-06
2.00626866637e-05
-3.60250275723e-06
2.58355974792e-05
-3.57097178212e-06
3.21550238093e-05
-3.50998830612e-06
3.93632560706e-05
-3.39690653803e-06
4.77754970839e-05
-3.15108527198e-06
5.75187456692e-05
-2.75669171592e-06
6.90763254053e-05
-2.09373149337e-06
8.22461751393e-05
-1.20716969766e-06
9.85231542504e-05
3.88659462204e-08
0.000114940910209
0.000134783074908
1.32081880613e-06
-4.68828930571e-08
1.17230250712e-06
-1.36754946358e-07
1.37797071193e-06
-2.43394722863e-07
1.50837496132e-06
-3.9187303541e-07
1.64318956668e-06
-6.60755921411e-07
2.05527687544e-06
-1.14385997927e-06
3.11878936315e-06
-1.86437490117e-06
5.54993237749e-06
-2.58546317304e-06
9.54950559034e-06
-3.01879751438e-06
1.47020463666e-05
-3.28133941862e-06
2.03507405283e-05
-3.41379291192e-06
2.63894078046e-05
-3.52795678048e-06
3.30529791643e-05
-3.57952780248e-06
4.05117354649e-05
-3.55480362308e-06
4.91695335454e-05
-3.3674076098e-06
5.9096157844e-05
-3.00131092837e-06
7.08571070339e-05
-2.35328722932e-06
8.41879859486e-05
-1.44391237511e-06
0.00010074298671
-2.09057203452e-07
0.000117478290238
0.000137833917579
1.10984078614e-06
-6.11762216185e-09
1.21609535748e-06
-7.50476186491e-08
1.46585671612e-06
-1.67156494779e-07
1.61275671308e-06
-3.02683582056e-07
1.74031656963e-06
-4.99581778349e-07
2.1115356846e-06
-6.786576225e-07
3.12498256533e-06
-1.08717871171e-06
5.51266765575e-06
-1.76321516045e-06
9.67716834037e-06
-2.26176747592e-06
1.48426704924e-05
-2.70479004667e-06
2.07368188762e-05
-3.06327264362e-06
2.70228544518e-05
-3.37711355586e-06
3.39992137214e-05
-3.59200026781e-06
4.17246865524e-05
-3.69094919421e-06
5.06383486718e-05
-3.57558909668e-06
6.07325500092e-05
-3.24756815803e-06
7.2685920567e-05
-2.61097851348e-06
8.61600117288e-05
-1.66476988633e-06
0.000102944336221
-4.08723899125e-07
0.000119995100402
0.000140742178991
9.81297345056e-07
4.19014660081e-08
1.22889163484e-06
9.12936358722e-09
1.5194785318e-06
-5.62893049004e-08
1.6983374731e-06
-1.66474490038e-07
1.84359556436e-06
-2.88790057732e-07
2.23334188545e-06
-2.21024272964e-07
3.35851186984e-06
-3.51335970483e-07
5.70828734037e-06
-7.65795994559e-07
9.9110348504e-06
-1.35545641405e-06
1.51347397208e-05
-1.99774109238e-06
2.11468998598e-05
-2.59232436603e-06
2.76292311418e-05
-3.14132091146e-06
3.48909792838e-05
-3.57675116195e-06
4.2920756562e-05
-3.82222493323e-06
5.21020492359e-05
-3.8101059475e-06
6.23840276931e-05
-3.518789777e-06
7.45000233854e-05
-2.88111083053e-06
8.80944856355e-05
-1.87767596362e-06
0.000105049836049
-5.60551732744e-07
0.000122375423474
0.000143320723074
9.64053440883e-07
9.19689458208e-08
1.21081647322e-06
9.92334887462e-08
1.53426072718e-06
6.16004028093e-08
1.76164640713e-06
-3.95374376009e-08
1.98099744891e-06
-3.09892093532e-08
2.44893295297e-06
2.28747353905e-07
3.79510376496e-06
3.25473110709e-07
6.29855353086e-06
6.68324586984e-08
1.04670668517e-05
-5.49638689653e-07
1.54340717446e-05
-1.31035971797e-06
2.13424184953e-05
-2.16263084042e-06
2.79971502928e-05
-2.92240133191e-06
3.54944126389e-05
-3.5518311959e-06
4.38677341318e-05
-3.94582939645e-06
5.3366158522e-05
-4.01986843161e-06
6.38918673691e-05
-3.77152714044e-06
7.6200047462e-05
-3.13552735237e-06
8.98987012109e-05
-2.07295043555e-06
0.000106961485649
-6.94806551041e-07
0.00012450776751
0.000145441070687
9.40590266543e-07
1.39774994396e-07
1.16443909882e-06
1.7524809457e-07
1.52074403337e-06
1.50852036418e-07
1.8189289626e-06
6.73251112919e-08
2.16374582082e-06
1.9006858796e-07
2.78737759426e-06
7.36885921935e-07
4.31432243421e-06
8.72381441057e-07
7.17229224496e-06
6.94855013576e-07
1.08802665786e-05
-8.63947174722e-09
1.55428432111e-05
-8.35366224129e-07
2.0991328474e-05
-1.83966609595e-06
2.77457275013e-05
-2.69303247828e-06
3.5383855858e-05
-3.49763021656e-06
4.42438634138e-05
-4.0130457326e-06
5.41450613629e-05
-4.26425676958e-06
6.50969079546e-05
-4.06540386895e-06
7.76125008517e-05
-3.42779759816e-06
9.14338072805e-05
-2.29894485197e-06
0.000108542212196
-8.23365009092e-07
0.000126215178158
0.000146916414906
9.62544914571e-07
1.77987538599e-07
1.09468981194e-06
2.36220009276e-07
1.48463406975e-06
2.3747930235e-07
1.8724000083e-06
2.08090567434e-07
2.37351071119e-06
5.34110426688e-07
3.17942497975e-06
1.00315901214e-06
4.96183724666e-06
1.25279844384e-06
7.61759386666e-06
9.85465402855e-07
1.07787165027e-05
3.35365538963e-07
1.49596647358e-05
-6.26565779058e-07
2.00176867416e-05
-1.70812092469e-06
2.66096063411e-05
-2.74755043237e-06
3.43280290405e-05
-3.67816221861e-06
4.35940533366e-05
-4.31087718629e-06
5.39963270025e-05
-4.58883840045e-06
6.55074423704e-05
-4.39862109309e-06
7.84201847433e-05
-3.7367900595e-06
9.24739668503e-05
-2.526730367e-06
0.000109617758224
-9.59321405269e-07
0.000127371527489
0.000147697990971
9.11832922735e-07
1.93153589754e-07
1.01646028154e-06
2.67568284983e-07
1.44127623173e-06
3.13021457614e-07
1.92498241692e-06
3.8477505815e-07
2.5544797921e-06
7.64256072979e-07
3.503733065e-06
1.13997456877e-06
5.10598783175e-06
1.30921065961e-06
7.45548976853e-06
9.71270028552e-07
1.01566451103e-05
3.24774902853e-07
1.37890286404e-05
-5.97022054473e-07
1.83252436515e-05
-1.67998319431e-06
2.44655608178e-05
-2.77889652514e-06
3.19643693088e-05
-3.74914672774e-06
4.13512294263e-05
-4.44607063909e-06
5.22704462671e-05
-4.80894516506e-06
6.45928143323e-05
-4.67511641882e-06
7.82415339644e-05
-4.05473757961e-06
9.28361330143e-05
-2.81109550194e-06
0.000110103111019
-1.15188172354e-06
0.000127895575661
0.000147667508864
8.69645839165e-07
1.78908200287e-07
9.48580891394e-07
2.67953991025e-07
1.40159028611e-06
3.75080231389e-07
1.94423021387e-06
5.57181163973e-07
2.62052337072e-06
9.30290318155e-07
3.57658264202e-06
1.28664244205e-06
4.97199106187e-06
1.42574685083e-06
6.91457835692e-06
1.10795138289e-06
9.22134388121e-06
5.18112882995e-07
1.22681205145e-05
-3.91441789187e-07
1.61895789703e-05
-1.49674660499e-06
2.14186036053e-05
-2.76288918341e-06
2.82009756988e-05
-3.94760324176e-06
3.71175400987e-05
-4.86620352043e-06
4.8218505085e-05
-5.37427794502e-06
6.1460888861e-05
-5.21568827897e-06
7.62305999406e-05
-4.50681408676e-06
9.19316188419e-05
-3.11986657137e-06
0.000109698470101
-1.33916851542e-06
0.000127728439188
0.000146973143094
7.41008766711e-07
1.50965873366e-07
8.95908536541e-07
2.50635158869e-07
1.355041989e-06
3.95359280338e-07
1.90939651092e-06
6.28888542026e-07
2.56759383573e-06
9.5611819677e-07
3.46981462414e-06
1.27262519357e-06
4.724614787e-06
1.39227713551e-06
6.30246568052e-06
1.14982045215e-06
8.21223810865e-06
6.54338308829e-07
1.05673375433e-05
-1.27161491243e-07
1.36130377591e-05
-1.07843411442e-06
1.75415012089e-05
-2.21401857744e-06
2.29370527942e-05
-3.39567489575e-06
3.05318881065e-05
-4.6030287593e-06
4.11387224209e-05
-5.31969509929e-06
5.49396062617e-05
-5.32080502434e-06
7.13198108784e-05
-4.70723476095e-06
8.91064701035e-05
-3.32411033506e-06
0.0001082032817
-1.60781881865e-06
0.000127044836945
0.000145718221572
5.57823667956e-07
1.22523857868e-07
8.45039416498e-07
2.27264104748e-07
1.28824848133e-06
3.91714657224e-07
1.81474561891e-06
6.33615103884e-07
2.42578166581e-06
9.44179892318e-07
3.20183697562e-06
1.21949834135e-06
4.33747333892e-06
1.30595567139e-06
5.63570960522e-06
1.10867469041e-06
7.13431912434e-06
7.3159067831e-07
8.82203432503e-06
2.21067750677e-07
1.08684774178e-05
-4.37275569154e-07
1.34188720631e-05
-1.14373949022e-06
1.71325559552e-05
-2.00173728972e-06
2.27542827637e-05
-3.19388333674e-06
3.16591152992e-05
-4.57963851755e-06
4.50320592736e-05
-5.12396828691e-06
6.24953676417e-05
-4.74669700878e-06
8.31001739331e-05
-3.50160696501e-06
0.000104954933074
-1.71883129446e-06
0.000125546824565
0.000144348058449
2.72113851215e-07
9.57420554e-08
7.97898227501e-07
1.89113041789e-07
1.21609013594e-06
3.37463866703e-07
1.70409927279e-06
5.53799725731e-07
2.25904730032e-06
8.20388031669e-07
2.91458203616e-06
1.00798531419e-06
3.89992578406e-06
1.02382469512e-06
4.93168682526e-06
8.622361555e-07
5.99769563608e-06
5.81055829569e-07
7.11598947023e-06
3.34448434906e-07
8.28749156167e-06
1.76177229826e-07
9.68085719283e-06
1.09332058181e-07
1.19672211972e-05
-5.45879438317e-08
1.57961723758e-05
-5.19881486248e-07
2.23085611631e-05
-1.42891148154e-06
3.31413370617e-05
-2.87464217475e-06
5.04615796802e-05
-3.5647951968e-06
7.34453662988e-05
-3.00068438706e-06
9.92126782739e-05
-1.71901110152e-06
0.000123346708504
0.000143062524464
-1.50994648052e-08
6.70826202657e-08
7.60843383619e-07
1.35542899105e-07
1.15574028499e-06
2.43576059108e-07
1.60846624164e-06
3.95531858194e-07
2.11364487008e-06
5.61581590939e-07
2.68802322418e-06
6.45018517609e-07
3.41767557984e-06
5.40823378429e-07
4.26962178365e-06
3.29382043298e-07
5.00603592481e-06
2.36611373829e-07
5.57888741254e-06
4.65054497069e-07
5.99478488086e-06
8.02551021293e-07
6.81589610214e-06
1.25486166605e-06
8.24181035643e-06
1.90949697942e-06
1.06788993826e-05
2.56728192798e-06
1.51948417712e-05
2.21151363701e-06
2.39897819116e-05
9.78211353501e-07
3.88718209161e-05
-5.96711914286e-07
6.14373520876e-05
-1.40554023931e-06
9.03392116755e-05
-1.01089180623e-06
0.000119955990837
0.000142590065174
-3.3639092233e-07
2.53920874935e-08
7.4481906526e-07
4.88079642494e-08
1.13158225667e-06
8.0682338322e-08
1.57136235396e-06
1.13597422565e-07
2.05749448882e-06
1.25085293521e-07
2.59202854174e-06
8.49439903521e-08
3.16269700296e-06
8.58305172993e-08
3.66167033117e-06
3.11817300733e-07
3.95428431097e-06
7.06675576099e-07
4.23664173053e-06
1.14122731873e-06
4.58944910548e-06
1.68748677858e-06
5.17477578297e-06
2.4238787981e-06
6.17289619706e-06
3.35507247722e-06
7.97383103141e-06
4.49213271561e-06
1.12053361263e-05
6.00962854811e-06
1.72523626405e-05
6.07026154538e-06
3.01927683704e-05
4.45903343692e-06
5.15434458973e-05
2.33690221931e-06
8.16418094049e-05
6.91123422551e-07
0.000116608137995
0.000143495204031
-4.54751908861e-07
-7.62147321726e-09
7.47040926206e-07
-1.81050765783e-08
1.13538232062e-06
-3.82853419265e-08
1.57404844964e-06
-7.33045356692e-08
2.04967485548e-06
-1.06016974967e-07
2.52899203382e-06
-2.96787873629e-08
2.88535812212e-06
1.8208238829e-07
3.12395703257e-06
5.36649699657e-07
3.25789209718e-06
1.08978158245e-06
3.4097758211e-06
1.7992834935e-06
3.73066080727e-06
2.70065546547e-06
4.26506351991e-06
3.81203706386e-06
5.2091168247e-06
5.23739260844e-06
6.86698220844e-06
6.66241062909e-06
9.96055171689e-06
7.65781863454e-06
1.54095569706e-05
8.71814177906e-06
2.54474556892e-05
8.20326452177e-06
4.53294984719e-05
6.44812996428e-06
7.54751622487e-05
3.94939543967e-06
0.000114474320147
0.000147024426995
-1.36369726545e-07
-2.11282074787e-08
7.57010620243e-07
-4.40960220922e-08
1.14954372226e-06
-6.80032184429e-08
1.57679413752e-06
-6.92715362099e-08
2.00590975075e-06
6.13351964113e-10
2.37691862029e-06
1.58062626746e-07
2.60832579894e-06
4.42516651077e-07
2.72200489772e-06
8.83645191155e-07
2.77206105996e-06
1.51362815875e-06
2.87768674787e-06
2.38059986929e-06
3.16826317039e-06
3.48696863835e-06
3.7943561966e-06
5.10447916125e-06
4.85718911619e-06
7.23568322923e-06
6.63771263382e-06
9.71270839922e-06
9.79773003397e-06
1.170587844e-05
1.53793354593e-05
1.21865302524e-05
2.52486084582e-05
1.15212953861e-05
4.38698405403e-05
9.88772315077e-06
7.48775655326e-05
6.38707145676e-06
0.000117889756705
0.000153859914542
-1.09485442432e-07
2.56225489388e-08
7.39013905518e-07
5.41700040428e-08
1.11514284601e-06
1.07481840997e-07
1.51033120423e-06
2.07330134412e-07
1.88292032548e-06
3.90718158881e-07
2.16730453002e-06
7.02067710471e-07
2.29611272239e-06
1.19636639811e-06
2.30544266884e-06
1.87685506093e-06
2.31872454723e-06
2.71830042445e-06
2.489302386e-06
3.74444991489e-06
2.9514631505e-06
5.25541140463e-06
3.81537219729e-06
7.37068574164e-06
5.08071019476e-06
9.85591426053e-06
7.3024772644e-06
1.2038469605e-05
1.14072915022e-05
1.33602829929e-05
1.79100140634e-05
1.28675218186e-05
2.85937470231e-05
1.12308986554e-05
4.6772111448e-05
1.06078484126e-05
7.87529135592e-05
9.03305722042e-06
0.000125783501186
0.000164382591398
3.214975e-07
1.211755023e-07
6.74512095913e-07
2.3624158765e-07
1.0079276788e-06
4.2910895422e-07
1.3355906462e-06
7.40057075012e-07
1.61549984944e-06
1.20693561195e-06
1.80349503871e-06
1.83015272938e-06
1.89612203067e-06
2.58064838273e-06
1.97531734969e-06
3.42370523633e-06
2.17851141246e-06
4.39581671283e-06
2.61699433448e-06
5.9752075275e-06
3.28965600326e-06
8.19100460563e-06
4.40653667192e-06
1.06218568985e-05
6.35320913895e-06
1.27042978252e-05
9.64977533168e-06
1.39925024665e-05
1.48303264129e-05
1.40654154565e-05
2.23473733196e-05
1.32522422925e-05
3.37219492804e-05
1.14719955641e-05
5.33807707345e-05
9.56489462899e-06
9.08367158823e-05
6.49941312213e-06
0.000142404732989
0.000173359561325
-6.57114477719e-07
2.96272788636e-07
5.42637536102e-07
5.87969944924e-07
8.06312361333e-07
1.02180288336e-06
1.06714660487e-06
1.61547059915e-06
1.31420491278e-06
2.36329807251e-06
1.54609775273e-06
3.23961618936e-06
1.79029895696e-06
4.16338535738e-06
2.15801964595e-06
5.58319636127e-06
2.61759722684e-06
7.35376067239e-06
3.42722901877e-06
9.34980244979e-06
4.69314686065e-06
1.12648966368e-05
6.6604511948e-06
1.26749589386e-05
9.69544062966e-06
1.31016068242e-05
1.41461596948e-05
1.21723522431e-05
1.01709488812e-05
8.17488951873e-06
6.56777117203e-06
7.10595357278e-06
4.18032283922e-06
-1.07111556834e-06
4.31682493725e-07
8.85473166128e-07
1.61900101743e-06
2.75464097858e-06
4.05417278556e-06
5.44136091033e-06
7.07392598184e-06
8.67841017182e-06
1.01787736639e-05
1.13887257235e-05
1.19646673775e-05
1.14646792117e-05
-2.55722640771e-06
3.77630370178e-06
-1.9847243863e-06
7.42863168622e-07
7.79082958453e-06
-5.72492103875e-07
2.62773405725e-06
1.09879290768e-05
2.72520964442e-06
2.95052259844e-06
1.38591664333e-05
6.3784748172e-06
2.69658624224e-06
1.63004073548e-05
9.79402600709e-06
2.24860672578e-06
1.83637224122e-05
1.27591912728e-05
1.80262432065e-06
2.01240574288e-05
1.52618023218e-05
1.42990038363e-06
2.16299671521e-05
1.73564465704e-05
1.13906876278e-06
2.29225075488e-05
1.9105590224e-05
9.2676022671e-07
2.40247822325e-05
2.05650595526e-05
7.91069200569e-07
2.49642700891e-05
2.17861682965e-05
7.04740385571e-07
2.57429989319e-05
2.27929991642e-05
6.78872007662e-07
2.6379710805e-05
2.36212972653e-05
6.54076166447e-07
2.68469700967e-05
2.42529185526e-05
6.57738854328e-07
2.71482808573e-05
2.46989758894e-05
6.35074392055e-07
2.72418087668e-05
2.49204285498e-05
6.15833977057e-07
2.71404911986e-05
2.49108025772e-05
5.63675497786e-07
2.68269217609e-05
2.46483804868e-05
4.73181404542e-07
2.63453063086e-05
2.41301341766e-05
3.56786473825e-07
2.57603695863e-05
2.34185834283e-05
2.39563153575e-07
2.51954517371e-05
2.26259744471e-05
-4.5326672615e-09
2.47550833887e-05
2.17741072611e-05
-1.42660302884e-07
2.46056974382e-05
2.09328288154e-05
-1.63827361728e-07
2.49475838014e-05
2.05231077912e-05
-2.52028517988e-07
2.49753454537e-05
2.05694054261e-05
7.22855642523e-08
2.50458117726e-05
2.14053529683e-05
-7.74188487696e-07
2.54685898355e-05
2.18490965466e-05
-8.20267569074e-07
)
;

boundaryField
{
    inletfuel
    {
        type            calculated;
        value           nonuniform List<scalar> 3(-8.94995939447e-08 -2.68475072284e-07 -4.47531957642e-07);
    }
    inletair
    {
        type            calculated;
        value           nonuniform List<scalar> 
20
(
-9.5182573712e-07
-1.52046527029e-06
-2.22883270762e-06
-3.10581004139e-06
-4.18589018247e-06
-5.51022193481e-06
-7.12789438621e-06
-9.09739455571e-06
-1.148840632e-05
-1.43838876732e-05
-1.78825793367e-05
-2.21019500084e-05
-2.71817140426e-05
-3.3287952389e-05
-4.0617975428e-05
-4.9406146529e-05
-5.9930698981e-05
-7.25222823444e-05
-8.75729063891e-05
-0.000105548534876
)
;
    }
    outlet
    {
        type            calculated;
        value           nonuniform 0();
    }
    axis
    {
        type            empty;