/*--------------------------------*- C++ -*----------------------------------*\
  =========                 |
  \\      /  F ield         | OpenFOAM: The Open Source CFD Toolbox
   \\    /   O peration     | Website:  https://openfoam.org
    \\  /    A nd           | Version:  7
     \\/     M anipulation  |
\*---------------------------------------------------------------------------*/
FoamFile
{
    version     2.0;
    format      ascii;
    class       volScalarField;
    location    "0.04";
    object      Qdot;
}
// * * * * * * * * * * * * * * * * * * * * * * * * * * * * * * * * * * * * * //

dimensions      [1 -1 -3 0 0 0 0];

internalField   nonuniform List<scalar> 
814
(
5.15324374384
5.32658689143
3.82139594456
903.260465982
1305.93991679
2537.64966901
71508.1622144
182889.723629
1461121.21016
3365527.32464
18526568.6778
456041783.667
6160790.34197
29062228.2549
394040715.475
7579820.5394
27311016.3339
176055349.701
7607933.76945
20796130.5339
76134357.5122
6503528.53666
13713674.6005
32662852.5575
4901300.8082
8207036.13782
14074299.5906
3336168.04904
4616060.31172
6183736.50795
2089549.63683
2495061.67635
2831777.4221
1225418.62312
1323212.29371
1385887.97725
685977.884606
705131.072568
737825.33285
377674.295638
388032.217778
430198.984524
215038.417205
230289.557811
279845.424916
140788.012265
161465.338678
217810.733014
123869.149711
150546.338926
217921.702672
152794.648504
187657.381021
273776.680609
235921.619908
284149.479759
403845.410601
418165.141528
494146.681636
681205.814284
795065.698948
919121.705741
1223670.53043
1302091.11241
1476537.32298
1886626.49448
1500594.20763
1666125.70396
2045841.08202
1331031.60372
1462696.10039
1758766.64125
1114364.13771
1210813.06915
1432817.62513
852424.424849
919227.626058
1066452.12366
589808.191912
626352.177329
710142.73763
369019.797563
388274.758417
429093.920098
280279.139679
291676.056619
318274.338831
1339406.34662
1388056.91902
1494353.62278
16661269.5215
16877454.4978
17499118.7194
122583636.48
123977661.869
127199879.452
77743412.61
1286924237.13
403300263.845
131609681.435
45309052.1529
16596818.803
6615645.92529
2976727.2062
1540871.67424
896804.087581
567827.342155
394178.854769
324945.39227
336222.789652
422082.659665
609687.156599
1005200.45371
1741165.10633
2548504.21451
2621127.79462
2202294.3935
1762576.22504
1282734.65171
829319.378997
487077.160394
356157.328425
1654945.03995
18408751.3587
132419163.397
17440.8114411
5668.94586569
3318.75603718
1779.78362829
840.48320832
352.232933316
113.122049879
27.992491505
6.35950861205
1.31738574359
0.243704237936
0.0398545486026
0.00567240361337
0.000701222482496
7.45106579494e-05
6.84332581457e-06
5.37472665881e-07
3.52732664149e-08
1.84868406235e-09
1.25189873503e-10
1792094.50105
673081.524748
250185.49762
86863.6070612
29669.8012755
8649.65408619
1838.0198384
369.231183991
69.7865472291
12.4071942335
2.02683957414
0.297936081039
0.0385670313573
0.00437351546046
0.000429837961551
3.69927416327e-05
2.77063202731e-06
1.78436523536e-07
9.40683092705e-09
5.64181493416e-10
31115383.228
20275099.4806
3529495.67581
762044.567327
201026.555417
46849.2358446
9653.96084396
1779.38939238
307.472789125
50.0599915142
7.61921232419
1.05293016953
0.128633300611
0.0138574377051
0.00130022708021
0.000108218822194
8.01773068485e-06
5.30551220251e-07
2.90964815226e-08
1.6013914308e-09
273417714.975
159161436.064
29419847.2972
6141819.73014
1562573.41143
334914.528478
65903.4805915
9675.42826133
1333.57075201
196.174098041
27.3424805177
3.56686907804
0.420902181032
0.0437840097766
0.00400835777103
0.000329310667785
2.4797731352e-05
1.73958909399e-06
1.02610779644e-07
9.46227713254e-09
1203510721
683818103.619
245579341.644
42721206.8216
9302600.53777
2251441.41037
452408.336065
62259.3410582
6386.11557963
681.406912934
92.3793655878
12.1794650355
1.41709087969
0.145554885746
0.0132192546771
0.00110366076483
8.72234013376e-05
6.69035170965e-06
4.47974427161e-07
5.69358586943e-08
389345123.225
265272012.762
340207545.258
172986445.058
28666047.7251
5690725.67564
1113791.71937
166348.356345
18720.0624601
1847.27589436
238.05125882
32.1982609023
3.92003134822
0.415721796691
0.0390461600074
0.00342750284729
0.000292865060739
2.48270540485e-05
1.90194045317e-06
3.35576536566e-07
116316351.746
82336660.9022
117946027.686
289963184.693
38911546.8896
6902696.85236
1436554.59077
250563.045069
34240.8364726
3804.64407094
512.065485653
72.7565154099
9.42224434643
1.06540875569
0.106783576543
0.0101814053622
0.000966273850617
9.12766421333e-05
7.9801956526e-06
1.74361509741e-06
37125445.4876
30879808.9881
63658089.5663
224022823.96
43663915.8736
6381082.26824
1400179.29539
287132.870014
48375.1646796
6546.06439525
893.361121418
139.373029673
19.6348178468
2.42315962637
0.266996091159
0.0285668579568
0.00308269926993
0.000324643442583
3.19537803137e-05
7.65625806799e-06
13529902.0762
16563327.3932
48148254.4215
191770452.63
65578636.8169
7636932.09338
1526541.71646
327940.145657
63211.9286685
10063.8670379
1441.70138686
239.23800951
36.4108794311
4.97153866217
0.618390471441
0.0762905044239
0.00949112939664
0.00110773202037
0.0001205081969
2.91207466019e-05
6031086.22862
11359467.7111
37194287.2152
144379302.871
103550151.438
11282959.231
2089677.06523
417865.54423
82028.7086138
14320.0105713
2177.16204344
377.800009663
61.8349858263
9.46332808262
1.36438068871
0.199031229391
0.0285093586449
0.00364164923766
0.000427056937516
9.88916052171e-05
3348413.20321
8266400.29252
26322205.5181
92320974.6649
152945293.47
17512253.9879
3207616.76194
594508.12631
107370.740732
18953.0845677
3128.74009434
569.404147622
99.6532664378
17.3078717998
2.9605122852
0.512506303505
0.0833839052174
0.0114629222633
0.00142296106372
0.000307081717614
2136828.26187
5803076.44132
17292543.3669
55869992.8204
230745054.924
29242079.3551
4776245.00538
853647.549599
137125.928226
23394.9600073
4228.44286249
818.153863294
155.769007835
31.4751458365
6.48718103453
1.31847337606
0.238255313814
0.0346770844187
0.00446886800182
0.000885628391258
1435698.03849
3966517.0446
11419892.2267
36789034.0764
159815682.224
48112773.7429
6934693.84976
1166518.6153
165552.650048
27117.8730856
5318.0517255
1113.11602303
242.00053332
58.6540389956
14.5553718341
3.38403485399
0.664541806194
0.101121581564
0.0133220622004
0.00240130707195
980346.609644
2730399.96691
7933414.92092
26694063.3844
122347615.491
69724044.4397
9688413.93018
1503933.60523
186611.908017
29421.7661701
6296.84293969
1499.73084706
390.59256535
114.326302181
33.3270006151
8.61578436146
1.81079318031
0.286255972255
0.0381712966236
0.00619680521541
704490.708625
1969463.34629
5893674.53278
20833796.2234
99011414.8101
86613318.3318
12194181.0412
1722925.29382
188856.376311
29584.1561704
7212.08089771
2109.41100716
680.702804972
234.053152467
76.8781983986
21.6202284198
4.83589045696
0.794716616736
0.106789954329
0.015463827619
601904.5611
1650690.08354
4964109.62724
18100856.0816
87450868.2562
90107521.341
12308545.3132
1521532.36721
157128.182894
27708.1537675
8353.32637091
3135.99062493
1257.27321424
492.226324319
175.427943614
53.0265674481
12.6672611201
2.18220940867
0.295966977159
0.0380751782915
640912.684012
1777423.19872
5451298.91548
20146672.2962
97286715.2317
73563327.4792
8813757.34336
881932.128755
102647.157493
25689.8400374
10462.4177246
4918.26416789
2335.33464646
1031.25475014
395.276210132
127.120865233
32.6610998162
5.98352581159
0.82662232965
0.09506354565
811351.247986
2298644.42682
7454872.8716
29554789.2925
142191329.907
44649842.0929
4219381.49779
364114.207711
69329.6662793
28238.7067974
14997.7646844
8236.67768525
4326.57278238
2064.20115427
869.892577869
301.359842025
83.1777007813
16.3864874069
2.35124677707
0.250313669402
1162036.92126
3321211.41369
11105458.5905
44216381.2103
199022583.085
22826625.9043
1592645.9685
191031.144115
72261.3623369
42036.0573541
25894.8708026
15443.9226746
8487.97525746
4235.03808826
1888.30824377
714.64157595
218.215601449
47.2617353438
7.18904825901
0.750353830488
1879058.00496
5243750.32492
16600597.8478
56709087.5426
133236857.701
12731370.5817
954467.024492
208915.686686
120589.714767
85129.5838526
57635.180719
35926.9935378
20073.5875565
10068.074735
4550.05331371
1805.92505412
600.138414374
144.829060018
24.2583878959
2.66303417854
3099407.15211
7825078.91432
20862934.9393
56074684.7251
80574703.8418
9965807.7211
1152323.2891
367106.436877
260053.064398
213365.432051
159569.083668
104401.070663
59636.7136485
29937.7770406
13163.1165393
5180.71875596
1792.76891993
477.686920557
89.9916395688
10.7495066045
4146693.91931
8933573.79598
19755154.8249
46771180.478
60258460.235
9900796.59953
1736575.93343
743036.646722
619008.065041
583593.273353
483072.516388
328617.655386
193403.296716
99193.2909174
43233.1987303
16513.2591439
5588.29736416
1564.99190792
326.790179628
42.6677821796
3927577.89544
7630351.5222
15855518.7007
36701081.5832
58272593.4771
12503229.8551
3051315.2974
1645903.21958
1557103.92666
1611149.49469
1434960.83104
984664.32635
592460.914976
312085.674466
140050.902073
53529.1195866
17515.5537005
4873.82840064
1074.64757448
154.889271726
3242525.34703
6190946.34828
12624291.9554
27428813.8509
65838695.3934
18240580.3942
5965003.20128
4054877.82456
4249950.63796
4537885.92867
3988520.03535
2705075.82966
1631417.22435
876572.332486
414031.601171
163237.96532
53479.6291769
14327.1211308
3116.60165914
482.429501891
2547762.26319
4688787.42033
9025925.15153
17852320.7202
36260523.6033
32482306.8311
14679028.3561
12057554.8906
12977015.0862
13014831.82
10260582.7906
6643462.59817
3885181.20963
2088949.95924
1029456.11793
431316.13885
148754.063805
40415.3755658
8272.02948088
1325.42274844
1786821.87723
3079264.82773
5467863.76155
9724734.19419
16992149.181
28379714.5215
38258463.957
39645195.1459
36095946.1575
32711982.0188
25597264.3961
14513961.566
7881483.31029
4098247.998
2029253.49618
912733.721096
345767.037848
100975.266268
19935.8559882
3117.47309609
1101657.04126
1752400.55537
2836703.39566
4517197.58269
6933223.79848
10213661.0106
13096241.967
13411857.0777
13221384.48
14763846.4669
19970266.9636
26716829.0352
12742282.8038
6125666.68196
2932432.02758
1351562.36213
559613.082711
184768.093413
39545.7034936
6013.43104753
615491.949306
902669.303846
1344971.83014
1998667.15197
3006675.32962
4611188.30908
6769509.84112
9701552.76185
14234814.1324
21171797.995
32880186.4547
30774914.8048
14214104.7717
6632800.2162
3176568.38344
1552100.15941
688650.799489
246321.30894
56128.2006818
8171.48183611
444955.45061
666165.985625
1090784.80662
1965241.98414
3801052.1375
7271537.32155
12894896.4766
20971930.3891
31804686.6848
47508939.6254
57968474.6229
26270802.9777
12035198.6526
5343824.08005
2421173.37519
1233267.47804
611165.775149
234714.901784
55095.4334555
8042.12794948
2042557.28123
3035864.75083
4931289.60465
8401639.06479
14376509.4529
23810106.0985
37244941.543
55047376.4033
77137623.62
79873795.7775
35958200.1424
16344207.1761
7192936.2594
3070881.57804
1398660.59972
744365.398873
409954.689785
169757.409157
38098.0139511
5164.23174016
20578030.3621
25465617.2484
33313100.8474
45099890.0471
61696165.5539
83251656.633
108142209.095
127701450.32
62516537.6242
30494042.5918
14593762.7981
6634548.00048
2841396.19865
1244053.59486
625723.159162
370759.654763
221554.308842
96605.886143
23411.5459949
3080.91564783
144871005.922
170488440.043
209634151.835
235374214.23
144505149.604
81187347.0636
44336655.1527
24609999.7144
14028822.2031
7733244.08058
3937753.45557
1850472.23983
857735.910674
5.55594578771e-08
1.60335142316e-07
1.87023591742e-07
3.3625755443e-07
5.99552312548e-07
7.08282833015e-07
2.17505152268e-06
1.67764591109e-06
7.12999039604e-06
4.11519016062e-06
2.12041580881e-05
1.01162041838e-05
5.78115390065e-05
2.4360891907e-05
0.000147032151224
5.7088907778e-05
0.000355272092771
0.000131600777741
0.000833118473287
0.000302945559886
0.00193055091301
0.000707511774479
0.00448953804377
0.00170499471509
0.0107270401103
0.00435099117456
0.0271687374351
0.0122366626938
0.077162587493
0.0391818825176
0.255430146366
0.13963530351
0.957470930741
0.512400229653
3.7182973156
1.78664201476
13.7355551964
5.63689724285
46.556000131
15.8054128358
140.050222718
38.7619248887
369.143460697
81.293644117
865.347256473
114.546791044
1793.54615763
412.799724621
2014.31510333
396.368357274
1501.25329155
274.665316007
812.235996756
141.004265612
492.064373639
89.6264926792
)
;

boundaryField
{
    inletfuel
    {
        type            zeroGradient;
    }
    inletair
    {
        type            zeroGradient;
    }
    outlet
    {
        type            zeroGradient;
    }
    axis
    {
        type            empty;
    }
    leftside
    {
        type            zeroGradient;
    }
    burnerwall
    {
        type            zeroGradient;
    }
    front
    {
        type            wedge;
    }
    back
    {
        type            wedge;
    }
    procBoundary0to1
    {
        type            processor;
        value           nonuniform List<scalar> 
27
(
82652419.8171
83424701.0237
80960596.1443
76520237.6279
435691.240696
259780.593081
174806.701408
112098.17576
52564.6862353
14869.9968765
1822.15161626
65886330.3287
49580613.4383
34586658.1421
23456113.5926
15926207.4761
10939913.9409
7474063.80462
4940459.52572
3055013.67739
1742537.24685
923861.227539
491933.201577
435691.240696
274261.182256
316.241199906
62.8288337171
)
;
    }
}


// ************************************************************************* //
