/*--------------------------------*- C++ -*----------------------------------*\
  =========                 |
  \\      /  F ield         | OpenFOAM: The Open Source CFD Toolbox
   \\    /   O peration     | Website:  https://openfoam.org
    \\  /    A nd           | Version:  7
     \\/     M anipulation  |
\*---------------------------------------------------------------------------*/
FoamFile
{
    version     2.0;
    format      ascii;
    class       volScalarField;
    location    "0.04";
    object      T;
}
// * * * * * * * * * * * * * * * * * * * * * * * * * * * * * * * * * * * * * //

dimensions      [0 0 0 1 0 0 0];

internalField   nonuniform List<scalar> 
814
(
293.836770348
293.838420528
293.84624918
293.762470747
293.765676849
293.77715668
293.753810996
293.771986187
293.83976503
294.443028809
296.220122177
321.897554767
295.779113142
300.252807185
343.565528712
297.885368217
305.734263927
360.826902903
301.162408037
313.193669095
377.743672458
305.879185834
322.770623663
394.682195415
312.604431996
334.399667605
410.877493373
322.100119865
348.367047787
425.979560457
335.189179594
364.792516635
440.385068085
352.507330069
383.600224687
454.609482225
374.304124968
404.757963984
469.079853566
400.454203326
428.345410072
484.555395968
430.769922266
454.897752988
502.502380335
465.44344375
485.488624741
525.026257247
505.806738841
522.199254072
555.057608807
556.042989993
569.839556643
598.308976247
627.106257537
639.905296566
667.399547343
740.342704685
754.229672736
785.023258901
917.094317534
933.470226696
970.361573608
1136.12770299
1154.54179359
1195.77978014
1330.02829313
1348.69455914
1389.75176234
1455.49723649
1473.20993379
1511.63385955
1517.92916029
1533.94662965
1568.57094178
1535.57336571
1549.67916395
1580.02938852
1520.69623334
1532.5402206
1557.91178804
1481.00401125
1490.19386033
1509.84845547
1424.36314744
1430.82550293
1444.56702271
1377.35472071
1381.79755442
1391.30744124
1482.54360021
1486.67986554
1496.0337458
1925.04130523
1925.91708529
1930.56896555
483.491842564
609.587232213
590.992033741
585.417943032
576.446162638
567.614584253
560.749429391
556.073829172
553.364013749
552.280912096
554.054508803
560.187179538
573.112160797
596.029008668
635.379098745
705.155294041
829.283805178
1024.41038151
1255.56179009
1447.94287751
1564.81516507
1615.76592023
1621.04777513
1592.10717359
1536.28620623
1462.99766717
1404.18675674
1509.15599995
1937.06589709
297.319508879
297.311328279
297.285267747
297.262532286
297.249237296
297.243446771
297.24243691
297.244048032
297.246972751
297.250563178
297.254461049
297.258595299
297.262927528
297.267409168
297.271873987
297.276051521
297.27976293
297.282964529
297.28572446
297.289335232
309.020761704
303.337142957
300.277718551
299.00270429
298.444054226
298.215775348
298.140856539
298.125871275
298.132611877
298.144231829
298.155867328
298.166348076
298.175650684
298.183984476
298.191645236
298.198236604
298.204127943
298.208672828
298.212883442
298.224697068
433.545032003
383.021103256
332.521045499
309.714623864
302.736580049
299.684011599
298.5704948
298.230851188
298.157474365
298.157057626
298.169889205
298.183577471
298.195512509
298.205153942
298.214171319
298.220881347
298.228175995
298.232116044
298.238389988
298.270162876
809.330747203
887.23502006
652.566073318
431.956421981
350.399809348
314.098171037
302.52596763
298.928258391
298.131845108
297.994313959
297.984660986
297.997117719
298.009615887
298.020393353
298.02988362
298.036929582
298.044446707
298.048379796
298.062994936
299.300181851
1420.29296653
1903.46747878
1606.68236616
1022.46531914
590.32461902
404.402019891
330.795293732
305.353962865
299.030961906
298.007590201
297.87303161
297.863114147
297.872924668
297.883822398
297.893667497
297.901537375
297.90858871
297.913902949
297.932940803
299.316051591
1360.39006414
1971.99923869
2190.44774663
1905.40608664
993.573841331
547.354269708
374.587352695
317.255149998
301.609198673
298.385456578
297.91745103
297.849742128
297.849886968
297.859426656
297.86885167
297.877244961
297.883835934
297.890192857
297.916134221
299.239081939
1211.22565901
1791.88131484
2211.1115638
2314.93267319
1262.35413591
648.624078814
409.432496216
329.973696116
305.563057967
299.203916597
298.091497618
297.89691691
297.874517842
297.880827297
297.889925786
297.898477386
297.905214653
297.912380842
297.951440662
299.333233771
1083.54576316
1615.08614824
2080.84463187
2317.53842082
1286.87636934
672.591873052
429.960758832
342.089142937
310.621426931
300.570673298
298.353541471
297.962689601
297.897810418
297.897047258
297.90534985
297.913744218
297.920788891
297.928621527
297.98368256
299.517417061
982.67025196
1456.14741674
1923.26192494
2276.72128807
1381.66911222
714.32402127
457.517883219
357.471137061
317.409345538
302.67218664
298.777017364
298.053828581
297.913937773
297.898988217
297.905189399
297.913338393
297.920627217
297.929485171
298.000763384
299.70238315
902.482102471
1313.84337658
1756.71390085
2202.72249982
1641.71591113
820.972732554
506.21481402
378.893420955
326.38366778
305.694679907
299.467960564
298.210268696
297.944095752
297.902298636
297.903472675
297.911057759
297.918648812
297.92920988
298.017573995
299.887506624
838.642959904
1192.11738051
1596.80441356
2091.28702318
2012.67904993
990.108298094
575.45742794
406.029036187
337.220083202
309.532307663
300.591015189
298.504963381
298.020412488
297.927788992
297.917191422
297.92278012
297.930796027
297.943750778
298.051630576
300.114182609
787.232708091
1088.57822055
1449.01908432
1953.60013721
2247.94158012
1173.92929891
649.232212402
434.707256218
348.680673188
313.967567846
302.264720809
299.027133808
298.190642443
298.003390271
297.965448826
297.96463113
297.972963016
297.989139369
298.120901445
300.428502997
744.57909773
999.427454681
1315.58550706
1806.55565073
2277.60002303
1335.57828515
714.551797809
461.370383444
359.96271899
319.131043775
304.586900236
299.894050516
298.547600494
298.185208168
298.084126639
298.064759896
298.07219312
298.092911196
298.257704472
300.889138437
709.207218169
924.552954889
1202.63417256
1674.88585173
2242.01421185
1471.96518491
769.744547747
485.408947495
371.258154011
325.298243881
307.867113557
301.432216345
299.300104351
298.596039953
298.350144512
298.2805267
298.281660517
298.30859763
298.525239632
301.590954519
685.002860805
867.28773871
1118.55138151
1581.03106363
2207.12898456
1558.53966527
812.45589805
506.452853233
383.33630037
333.119492647
312.833823695
304.370510894
300.910355889
299.496573572
298.921043328
298.722972307
298.699147664
298.732309831
299.033889438
302.683913921
676.58724393
834.466914226
1071.28104854
1541.90966631
2204.21193192
1545.68142537
822.977886811
521.174583549
397.178405073
344.357346
320.901545075
309.836996971
304.256303886
301.415599931
300.103846407
299.596097008
299.492003686
299.521940456
299.956822437
304.383133399
685.729351482
834.560786726
1078.92092528
1581.65801903
2235.65492102
1426.5219805
794.73793038
529.30775938
415.710110934
362.038485248
334.815336494
319.598978768
310.651032726
305.359474836
302.4993262
301.26445201
300.932428945
300.915080489
301.540313151
306.97312538
719.714711196
876.502596407
1160.16035881
1730.51711671
2244.81722836
1279.72169698
769.568271001
549.978819783
448.351149075
392.304666266
358.677812352
336.7041906
322.169015024
312.688186935
307.167624682
304.365739214
303.414263294
303.222716176
304.086033011
310.757218247
795.68960088
982.987362926
1336.08580055
1952.88417568
2183.51615484
1217.69287298
783.607597246
604.865721341
505.660946598
442.818039275
397.839803246
365.70862473
342.238597101
325.917396818
315.605346485
309.893473094
307.553932789
306.841245001
307.882675056
316.011157903
940.235416193
1179.15731818
1600.25668011
2171.7001022
2098.94104018
1293.01234728
871.159048817
701.760735849
596.535269375
520.970108405
460.699264771
414.094865846
377.127561798
349.529521836
330.770456018
319.490042479
314.144047623
312.133282598
313.139556072
322.920901723
1160.91767386
1443.69107909
1873.43728759
2315.42680637
2101.65751441
1423.62681821
1020.75643924
845.577036306
730.679637063
640.607804695
563.672182518
498.147814454
440.471820279
393.506090845
358.810921344
336.565108767
324.779814254
319.685689108
319.98959751
331.477642368
1401.89387838
1688.65378619
2065.55222793
2383.15116907
2169.91540984
1576.09279203
1200.432533
1027.09631577
920.1825955
830.623953963
740.756070155
652.793973831
563.018378987
480.811008948
413.9776821
368.84891039
342.940241518
330.672055774
328.565974159
341.519919885
1584.48916479
1844.0372538
2156.04427737
2404.22481812
2289.29018297
1775.80379823
1425.01239681
1265.53556798
1182.46671184
1119.39619515
1042.78794163
930.34316518
797.979461374
656.693020876
527.338314981
433.09848253
376.389779565
347.968759591
339.390522707
352.747447138
1686.15976585
1913.20128894
2177.02017017
2395.46399879
2407.9613756
2015.57212532
1711.47407609
1587.03550745
1550.40199591
1537.95598446
1500.29196502
1376.9715161
1200.94270335
983.00571793
756.423200144
564.000546215
441.239345019
377.578045025
353.990982761
365.071075253
1721.5583137
1918.48632172
2148.04368803
2355.02043552
2452.07329336
2307.06158076
2078.28727908
2003.00761055
2019.70049614
2058.04842108
2046.97307335
1932.665006
1732.30159044
1459.67030944
1140.28915837
809.341271619
565.206787031
430.982333736
375.631870103
378.797574206
1711.49441209
1880.14773098
2079.2363814
2272.29003028
2408.48945239
2430.92543492
2377.28890091
2368.31802962
2399.82717464
2441.71478306
2456.30452601
2358.45237175
2164.43427068
1904.20169781
1576.17462761
1167.31783445
775.889854528
522.156070905
408.370993796
394.449027518
1666.26499269
1804.18372254
1967.65786424
2131.51701201
2262.7387922
2330.44884597
2347.42023953
2368.6046095
2406.49058476
2453.36013115
2492.13483513
2455.04933965
2270.67935244
2047.99861492
1801.66441808
1463.9458024
1018.22446759
644.401702553
451.941398748
412.027440843
1593.05869876
1697.84622908
1820.06743149
1940.85726432
2039.96088976
2106.59942676
2158.62933327
2224.58803358
2303.12117995
2375.6771483
2410.70214332
2300.00427224
2087.21854547
1895.55245632
1749.27315926
1566.72860307
1204.69404612
762.583391165
492.718666261
429.091859025
1502.76724207
1575.52730856
1659.58497452
1742.95445777
1818.81152937
1894.59292959
1989.98643372
2109.00937154
2225.31546315
2296.37021958
2233.32283345
2012.74476539
1783.45961654
1616.30465693
1533.7061478
1478.35404302
1259.85062661
821.069654286
511.374627394
443.188366943
1432.42115405
1485.16079936
1550.87239603
1627.08486271
1717.21277024
1830.9594599
1970.61716363
2106.93584768
2191.3388662
2103.56642387
1870.82122869
1625.80455783
1433.42536522
1326.79070662
1307.04146261
1322.21792223
1199.63823597
803.109176962
499.028738063
455.137104243
1538.9817374
1598.14437303
1679.22996686
1781.53459943
1900.60552063
2019.33301102
2106.06064081
2045.62187251
1845.90471751
1615.07256683
1400.88603842
1233.22311438
1129.84006574
1099.46609914
1128.53924422
1161.5832232
1047.30738584
704.001256728
479.649320069
469.679179032
1948.73159487
1962.77215275
1951.12221364
1884.77569113
1777.16774335
1652.4462307
1519.53283803
1378.78180854
1241.59027241
1117.95809375
1019.32811967
957.45152034
937.769871971
341.494311081
342.902105055
325.165320144
331.345227373
315.671612691
323.524628326
311.758973659
320.424468192
310.399789676
319.618951949
310.269450563
320.179617563
311.000179835
321.761533535
312.514583805
324.341517187
314.873646013
327.989316211
318.247157306
332.864558501
322.830297233
339.160564065
328.856865493
347.099694196
336.546420684
356.918242051
346.14640738
368.890608233
357.859424631
383.345293043
371.969667549
400.706809702
388.715746792
421.452692417
408.257497725
445.880228493
430.423351847
473.959577098
453.914656315
504.52261583
477.058777135
535.381815852
498.596448737
563.41404259
517.292478023
588.40931697
529.605579347
608.251714273
549.849098731
613.861670102
567.187091556
607.897334244
573.542212441
592.509619658
564.836308299
572.428130037
)
;

boundaryField
{
    inletfuel
    {
        type            fixedValue;
        value           uniform 294;
    }
    inletair
    {
        type            fixedValue;
        value           uniform 294;
    }
    outlet
    {
        type            zeroGradient;
    }
    axis
    {
        type            empty;
    }
    leftside
    {
        type            fixedValue;
        value           uniform 294;
    }
    burnerwall
    {
        type            zeroGradient;
    }
    front
    {
        type            wedge;
    }
    back
    {
        type            wedge;
    }
    procBoundary0to1
    {
        type            processor;
        value           nonuniform List<scalar> 
27
(
1336.55839945
1335.80372115
1329.33178415
1319.68465437
956.42317085
989.629321621
974.270198671
837.108614612
610.926583459
471.131518328
485.328806958
1295.71570743
1260.21486319
1216.00451535
1165.64567555
1112.15279787
1055.57610499
996.707367411
939.158392156
886.851066209
845.432874272
821.944082287
819.773823739
956.42317085
832.881398647
553.037708048
554.694271209
)
;
    }
}


// ************************************************************************* //
