/*--------------------------------*- C++ -*----------------------------------*\
  =========                 |
  \\      /  F ield         | OpenFOAM: The Open Source CFD Toolbox
   \\    /   O peration     | Website:  https://openfoam.org
    \\  /    A nd           | Version:  7
     \\/     M anipulation  |
\*---------------------------------------------------------------------------*/
FoamFile
{
    version     2.0;
    format      ascii;
    class       volVectorField;
    location    "0.04";
    object      U;
}
// * * * * * * * * * * * * * * * * * * * * * * * * * * * * * * * * * * * * * //

dimensions      [0 1 -1 0 0 0 0];

internalField   nonuniform List<vector> 
814
(
(0.902747735293 2.21350702436e-15 61.1762995611)
(-3.0800513369 3.25256692878e-16 60.6252759114)
(4.29592954962 1.76407679189e-16 57.5672079667)
(0.819037358739 2.78235094879e-15 63.7381212553)
(-1.54645230015 7.93530248907e-16 62.651197849)
(2.10281272388 2.43453845225e-16 57.8354647334)
(0.548743796211 -4.64619913426e-15 64.6191985441)
(-1.23585280087 -1.32400561429e-14 63.152707025)
(1.20148628066 -2.05002728967e-14 56.6965396777)
(0.215002818418 -7.89927237601e-13 63.4609889051)
(-1.78128245276 -1.38809453723e-12 61.3243672341)
(2.46483761177 -6.1656033673e-12 48.5067830308)
(0.194235051067 -1.139213238e-10 63.4746025096)
(-0.694139521856 -7.7568981177e-11 60.8048345903)
(1.2412158851 -1.47330293553e-11 48.177244092)
(0.162495466775 -1.30618920662e-10 64.6662752962)
(-0.354343231963 -7.68009301933e-11 61.4502467234)
(0.8130160013 2.70326723122e-11 48.8214514857)
(0.0111332837758 -8.36533874207e-11 64.6479174935)
(-0.348026620915 -6.16750848554e-11 60.8287829605)
(0.313906542871 5.44705677611e-11 48.3869315061)
(0.000725389056592 -4.92985654835e-11 64.3591376274)
(-0.233647158218 -4.07444816843e-11 59.9904200224)
(0.142673628059 6.38682900081e-11 48.0451430116)
(-0.00374898369963 -2.66292665195e-11 64.0749777351)
(-0.124080568196 -2.47759631281e-11 59.3200915952)
(0.095500734079 3.80665520075e-11 48.1668642225)
(-0.00647612063325 7.43340286313e-11 63.5649810603)
(-0.0215999348933 1.86552979601e-13 58.6564326351)
(0.104493069888 2.6689443534e-11 48.5279393597)
(0.0189995097757 3.09434395101e-11 62.718554702)
(0.0658613180837 1.88797205947e-11 57.9219567371)
(0.120048839516 6.23131589873e-11 48.9195570503)
(0.0572516326883 2.95177076015e-11 61.5182601463)
(0.135386239463 8.54209743847e-11 57.0869364064)
(0.146143936166 9.36017740318e-11 49.2275400612)
(0.100973214175 2.38457796443e-11 59.9548156318)
(0.2121691001 6.32025324206e-11 56.0742315483)
(0.206919320297 7.15425160039e-11 49.3448941587)
(0.142178752808 -2.42045796192e-12 57.9962558867)
(0.314731859564 -3.27997932173e-11 54.765569286)
(0.34572864014 3.86666729586e-11 49.1199863267)
(0.173140228114 9.17317636609e-11 55.5776425769)
(0.408190947539 8.06450209453e-12 53.0106686882)
(0.498290621006 -1.34680358968e-11 48.372372395)
(0.196412584731 1.85445219231e-11 52.6224209888)
(0.475050085974 1.04544232008e-11 50.6720719112)
(0.621009693678 1.01603996736e-11 46.9515540991)
(0.215449859204 4.75058563063e-12 49.1045638315)
(0.533853847203 7.65913425279e-12 47.6950511413)
(0.741368929295 1.14132254903e-11 44.801756908)
(0.23905055139 2.50714769248e-12 45.0717322493)
(0.599342577636 6.66909960372e-12 44.1154498739)
(0.86828980396 1.24635875119e-11 41.948153333)
(0.247637216816 7.97253625958e-13 40.561849339)
(0.635369045227 2.14810467341e-12 39.9739764739)
(0.949953068868 3.04316974087e-12 38.4216618942)
(0.239534981642 -7.98243380718e-13 35.691454393)
(0.620750757127 -2.44299144083e-12 35.3837582193)
(0.94434656051 -5.20860390016e-12 34.3421112241)
(0.20572606792 -8.4833897513e-14 30.9766883453)
(0.531351604269 -4.92427492053e-13 30.878923573)
(0.813119921536 -2.65570039952e-12 30.2642971414)
(0.153436916039 4.28713846768e-11 27.3334544138)
(0.399660909858 1.42169486259e-10 27.3576102565)
(0.61881508842 3.9949800664e-11 27.0456417964)
(0.101674255228 2.22443678585e-11 24.8337935694)
(0.262428967872 5.74604806486e-11 24.9111853981)
(0.411438252557 3.25777270889e-11 24.7539838072)
(0.066897259306 -1.24789826903e-10 23.1526141798)
(0.170119569698 1.1689761189e-11 23.2222110897)
(0.270796119088 8.94297746412e-11 23.101363162)
(0.0416626318156 -8.09586132224e-12 21.9612128479)
(0.109497867186 6.38081736709e-12 22.0162495775)
(0.176318755796 2.08044541411e-11 21.8928324998)
(0.0157547011164 3.1940608157e-11 21.3344743878)
(0.0372948341312 -1.22367954221e-10 21.362125605)
(0.0602815584571 -1.5152794342e-10 21.2256948322)
(-0.00299783713144 -1.91939423575e-11 21.2712587665)
(-0.00874253215516 -6.61573366578e-11 21.2893101792)
(-0.0148261710867 -8.64231884393e-11 21.1524461638)
(-0.0094739813452 -2.2152154562e-11 21.7199615996)
(-0.0246862397899 -6.43768848919e-11 21.7293147003)
(-0.0405344024912 -1.13128225539e-10 21.5994039856)
(0.0143176059418 -8.70223224348e-13 21.9984445396)
(0.0373508615409 -3.17927522497e-13 22.0173102342)
(0.0596567681957 1.47693539523e-11 21.9009323503)
(0.083916516698 -1.46610299087e-11 21.1035056827)
(0.206525180609 -4.62089374007e-11 21.1164830092)
(0.307686588909 2.08042993076e-11 20.9774582644)
(0.151501697801 1.0251734163e-12 15.2968685154)
(0.390701556339 4.59753930068e-12 15.3320460373)
(0.611753160361 2.01181397662e-11 15.1721641467)
(0.150509039895 -3.35097417648e-12 7.68476822447)
(0.401149735583 -7.66133166167e-12 7.76064797005)
(0.64377150076 -1.26764780927e-12 7.7089969197)
(-2.19499455183 -4.00596108993e-11 14.4241085892)
(-0.186828879318 -3.182079911e-11 19.3125528489)
(0.0500005954193 -3.04471600229e-11 27.5718245262)
(-0.303591427469 -3.36048741733e-11 30.9119007585)
(-0.283503896009 -2.26292803302e-11 33.5341051364)
(-0.209275331481 -7.6960100744e-12 36.0213080467)
(-0.148244713683 1.08609799155e-11 38.196983571)
(-0.0987025875668 3.47244124663e-11 40.0109854392)
(-0.043290053696 5.32278127839e-11 41.5059866941)
(0.0554152315129 5.67226708067e-11 42.6902614449)
(0.249345297494 4.95104815423e-11 43.4094727746)
(0.46509155991 4.12482691038e-11 43.5147394392)
(0.659076229018 3.99981824765e-11 42.8810396296)
(0.857038531618 2.13858146475e-11 41.4738947988)
(1.05437807858 2.27533180013e-11 39.312712489)
(1.18717270453 1.83143229027e-12 36.4180606897)
(1.20159529098 -9.80958906636e-12 32.9087575803)
(1.04089209715 -5.54204862338e-12 29.3515068295)
(0.800162650143 -1.9961418269e-12 26.5201595666)
(0.543802313677 6.30988544008e-12 24.4323650409)
(0.368216867278 3.43349115587e-11 22.8398675246)
(0.240528195325 9.0638567579e-13 21.6431993303)
(0.0845349272831 -1.09184815355e-10 20.9711557309)
(-0.0225009973302 -7.87852913949e-11 20.9077321528)
(-0.0601802325688 -5.19368156151e-11 21.3686758294)
(0.0798516500892 6.13701669155e-11 21.6882240772)
(0.406719922504 6.769130494e-11 20.7227456776)
(0.828854274069 3.74103163553e-11 14.8711476926)
(0.88778603019 2.38379488435e-11 7.56647329053)
(-0.0790498712633 -4.21088761294e-12 2.20801262868)
(-0.207445561648 -3.62294098158e-11 2.29783874326)
(-0.322481106503 -7.51147123969e-12 2.25226661978)
(-0.397900737926 -2.00536259474e-12 2.32233871102)
(-0.468505628103 -5.2025604411e-13 2.26392981543)
(-0.513360306505 -1.32410849312e-13 2.25285918812)
(-0.558943430711 -4.86870889676e-14 2.2028421636)
(-0.57329868151 -8.97426077269e-14 2.17411695345)
(-0.576192150433 -3.43291402693e-13 2.14052143996)
(-0.556541861928 -1.38311457456e-13 2.11832076577)
(-0.526280869733 -8.25267771803e-14 2.09935138634)
(-0.481695471962 -2.7162579663e-13 2.08641975716)
(-0.432619167437 -2.60405959289e-13 2.07697364429)
(-0.373408520794 -5.19866210958e-14 2.0697593735)
(-0.3184377457 -6.46832846024e-15 2.06616298626)
(-0.247970329293 -6.3296949819e-16 2.06097237438)
(-0.197799894556 -1.70906399435e-16 2.0617018792)
(-0.118502396578 7.43141041155e-15 2.05746146707)
(-0.0802510292278 1.42920818562e-13 2.06392876647)
(-0.0263826982826 2.97285763242e-15 2.06153901699)
(0.234512333955 -8.53813630762e-12 2.92156532539)
(-0.114571838904 -6.73128662198e-11 2.96229398933)
(-0.157367653792 -2.0900651615e-11 2.87072945904)
(-0.260668007847 -7.63585439854e-12 2.77755769528)
(-0.455016779358 -2.45676709837e-12 2.66050430911)
(-0.480885870736 -7.294952805e-13 2.62057289228)
(-0.549118128956 -3.36351909645e-13 2.51345730857)
(-0.537815260664 -1.26726042674e-12 2.44471928837)
(-0.535085104768 -1.13543122245e-11 2.36109585462)
(-0.50133273574 -2.21517255797e-12 2.3073706563)
(-0.467597233768 -9.96065426434e-13 2.25997075307)
(-0.419946132763 -7.09642514429e-12 2.22859267797)
(-0.374203253161 -6.35996307839e-12 2.20543506266)
(-0.316995115805 -7.17557377513e-13 2.18785990495)
(-0.271555766097 -6.77774375676e-14 2.17870725124)
(-0.202497947928 -5.97041235511e-15 2.1661402327)
(-0.167387818801 -1.35235380163e-14 2.16779762572)
(-0.0852722778298 8.36406696351e-14 2.15748637463)
(-0.0677700642357 4.03759731778e-12 2.18253883054)
(-0.0468021200844 4.94531362781e-14 2.1606234959)
(-0.461376638628 -2.80106051164e-11 3.11111880535)
(-0.504328979314 -5.85314918193e-11 3.84724795281)
(-0.494611647699 -2.33891242025e-11 3.12916136291)
(-0.447064358749 -9.7034309395e-12 3.26637206001)
(-0.485809004524 -3.87932136139e-12 2.96256036754)
(-0.496046950143 -1.41240926987e-12 2.89894480198)
(-0.562825903409 -6.88414695585e-13 2.69485216421)
(-0.532075870678 -1.63086255754e-12 2.59641963232)
(-0.518229325953 -8.83853054344e-12 2.4765579705)
(-0.466791205131 -3.15551450006e-12 2.40612781882)
(-0.427297165164 -1.53619482685e-12 2.3431331121)
(-0.374595150248 -6.31203828732e-12 2.30350844011)
(-0.33061193499 -6.13300906418e-12 2.27393050917)
(-0.274866007637 -1.10447819443e-12 2.25165984397)
(-0.236266353018 -1.22280245908e-13 2.23978391543)
(-0.168805536297 -2.11980717354e-14 2.22374241801)
(-0.144076259282 -2.53022222868e-13 2.22569373852)
(-0.0577715543357 1.17433955003e-13 2.21252968615)
(-0.0576880360989 3.99846206565e-12 2.25901766256)
(-0.0593306797111 7.33261916058e-14 2.21780776622)
(-2.23090960104 -4.70945540663e-11 5.1281488816)
(-0.354963629252 -5.74822892255e-11 4.97335270111)
(-1.15828144113 -2.57533155239e-11 4.02698276426)
(-0.754213506512 -1.22476239704e-11 3.72681910091)
(-0.862507707397 -6.13752961173e-12 3.24472145291)
(-0.631759725583 -2.60122092247e-12 3.12039584415)
(-0.666817840278 -1.62563193905e-12 2.83019651713)
(-0.558305776327 -2.48134498792e-12 2.69880076189)
(-0.531037345605 -7.01639990838e-12 2.55237520825)
(-0.458027484723 -3.67198752745e-12 2.47378491416)
(-0.41288090779 -2.13405731269e-12 2.40356362781)
(-0.354144327584 -6.17995733182e-12 2.3608569121)
(-0.31062764046 -5.85486425473e-12 2.328235194)
(-0.254373605893 -1.3919986205e-12 2.30402863717)
(-0.219671036303 -1.61411728032e-13 2.29038867348)
(-0.150798862913 -8.94715657355e-14 2.27262749034)
(-0.132542430807 -3.00511784712e-12 2.27358253634)
(-0.0347417139386 9.81772144424e-14 2.25969624108)
(-0.0487894680346 5.80227038614e-12 2.31062849458)
(0.183692409336 -7.45769301189e-15 2.25896070154)
(0.405765008982 4.33263790559e-12 9.31185712528)
(0.505653193595 -1.41251087298e-10 5.96893867769)
(-0.413923951475 -3.91630033522e-11 5.94377110382)
(-1.11560250842 -1.68666133517e-11 4.56131613344)
(-1.32487529082 -8.78444869464e-12 3.99942625547)
(-1.01507482535 -5.09001058349e-12 3.39305759843)
(-0.896884632561 -1.28785564479e-11 2.99331439805)
(-0.654463704152 -1.2816153137e-11 2.787157071)
(-0.584424748961 -7.9246971556e-12 2.61907270852)
(-0.481284827969 -4.37578989708e-12 2.53923703568)
(-0.427452853267 -3.34916056808e-12 2.46654546661)
(-0.359846013534 -1.24249176962e-11 2.42233645563)
(-0.313986350335 -6.64540948918e-12 2.38764906578)
(-0.254424418461 -1.71446494606e-12 2.36207883184)
(-0.2203512278 8.20202488676e-14 2.34644141966)
(-0.147311119593 -1.21897216621e-13 2.32726022677)
(-0.131553101043 -2.72212142894e-12 2.32526915288)
(-0.0211805423244 8.99755394269e-14 2.31080363284)
(-0.0327363294145 5.64352952438e-12 2.34280380951)
(0.234614682474 -3.4093878464e-12 2.32196682801)
(0.0440416253442 -1.00746278613e-10 14.3312027195)
(-1.04490860944 -2.2259940195e-10 9.96045807829)
(-1.54164690481 -5.00900882666e-11 8.48075952918)
(-1.90613518094 -1.96996496864e-11 6.12917625318)
(-1.79074030008 -1.14732481546e-11 4.88496804102)
(-1.3481982673 -7.08812013162e-12 3.59340873677)
(-1.02473445553 -1.1165102607e-11 3.11374151362)
(-0.747102211208 -1.921622628e-11 2.83036689614)
(-0.6467791885 -9.8964859241e-12 2.67382233791)
(-0.51395933663 -5.56582756974e-12 2.59491412769)
(-0.452176388128 -8.05667729042e-12 2.52593470129)
(-0.374540001986 -1.16124256375e-11 2.48186386727)
(-0.325099003186 -1.2482361687e-11 2.44642594286)
(-0.261326135017 -2.36567302698e-12 2.41978152878)
(-0.226555277068 3.92304964086e-12 2.40211949375)
(-0.149000677601 5.18892110785e-14 2.3814883294)
(-0.134190002885 -2.41459072873e-12 2.37519819572)
(-0.0138259365839 1.20514290445e-13 2.35875402266)
(-0.0228549527424 7.3729973376e-12 2.37048045922)
(0.234984018681 -2.96557137569e-12 2.32470179813)
(-0.753569290426 -1.25399187908e-10 17.0123070525)
(-1.6703259019 -2.20168101678e-10 11.8730447051)
(-2.04809202229 -2.38657618175e-11 9.92028668353)
(-1.96462921473 -8.91697035642e-12 7.6500441282)
(-1.64512098256 -1.04585043216e-11 5.24338978308)
(-1.36278432911 -8.94696128425e-12 3.6055717824)
(-1.03690558044 -2.0351742245e-11 3.1054233403)
(-0.803041507319 -1.67522462363e-11 2.82773926059)
(-0.677186113983 -1.08996762235e-11 2.71999801771)
(-0.538199086913 -6.59044441192e-12 2.64184332211)
(-0.470759423025 -8.32855449038e-12 2.58214433375)
(-0.386246422446 -1.08564031178e-11 2.53985213494)
(-0.333904834734 -1.13335491579e-11 2.50497030875)
(-0.266769918416 -2.85992314059e-12 2.47772722991)
(-0.231412810195 3.07588372649e-12 2.45809858813)
(-0.150608692285 1.49755109769e-13 2.43606314387)
(-0.136695333834 -2.20116222586e-12 2.4244501361)
(-0.00955731460516 1.49420248273e-13 2.40561539786)
(-0.0207277255084 7.00960227822e-12 2.39737153905)
(0.243889329981 -2.41999492117e-12 2.32262969309)
(-0.958695857567 -8.79199358435e-11 19.8196862801)
(-1.86182592851 -3.4420491921e-11 13.7824355675)
(-2.22276676931 3.89596457614e-11 10.9520865863)
(-1.95748174 9.97897466106e-12 8.4966592348)
(-1.33403798711 -5.5012466066e-12 5.21092748753)
(-1.11477366159 -7.69183264831e-12 3.57094201303)
(-0.927087295577 -1.44313807744e-11 3.09686094542)
(-0.787183433418 -1.42918891636e-11 2.86257051493)
(-0.673549634828 -1.10359745873e-11 2.77272288932)
(-0.549641443026 -8.24754852236e-12 2.69139219947)
(-0.479739423115 -1.67335360872e-11 2.63807271785)
(-0.393208613396 -1.17140292466e-11 2.59824285535)
(-0.339326579831 -1.04649203654e-11 2.56450494609)
(-0.270217683451 -3.21114827354e-12 2.53712090726)
(-0.23471279062 2.23928613478e-12 2.51548426096)
(-0.152290436399 1.65064997843e-13 2.4921600872)
(-0.139244658552 -2.04241995547e-12 2.47447121854)
(-0.00939301977163 1.75702022579e-13 2.4537981475)
(-0.0238157460272 6.6489235078e-12 2.4232279753)
(0.232635003348 -2.03335887901e-12 2.33919147754)
(-0.928707625409 -3.10068773142e-11 22.7256509949)
(-1.77329100325 7.64212025829e-11 15.807259792)
(-2.07677212255 1.58087266374e-10 12.2376583048)
(-1.78367970331 3.03645842363e-11 9.52996266937)
(-1.30331782796 -8.04691175201e-13 5.72714763257)
(-1.11012702568 -5.15446522005e-12 3.85269375021)
(-0.910973256579 1.50395422749e-12 3.24628401498)
(-0.78581921476 -1.00991204724e-11 2.97093365002)
(-0.669631890621 -1.08142239905e-11 2.84320318154)
(-0.556622431774 -1.89135153836e-11 2.75040636023)
(-0.483925291419 -2.42441200389e-11 2.69531949483)
(-0.397828299184 -1.35963472959e-11 2.65813019709)
(-0.343618999767 -1.0276572552e-11 2.62569539779)
(-0.273780602747 -3.88226062344e-12 2.59849678792)
(-0.238417637745 1.2419245335e-12 2.57473428022)
(-0.1557396275 1.01316188991e-13 2.55018341003)
(-0.143148395295 -1.89078028446e-12 2.52611147896)
(-0.0141604733513 2.04963490142e-13 2.50419291679)
(-0.0305366821254 6.36580305009e-12 2.45311331463)
(0.204316749029 -1.77234764763e-12 2.37214903526)
(-0.830235669367 2.87998193312e-11 25.4207640382)
(-1.60852317029 1.9289666492e-10 17.7271429432)
(-1.85761683909 1.35484427399e-10 13.4155871372)
(-1.6410094163 4.17708982338e-11 10.4030126052)
(-1.40528044882 2.16689853212e-12 6.50549635744)
(-1.1974974586 -7.03281149141e-12 4.24393051116)
(-0.985180420757 -1.79500530884e-11 3.43280931136)
(-0.818399718977 -1.23662096805e-11 3.09904505327)
(-0.681657525686 -1.13076977249e-11 2.91665178092)
(-0.564601871228 -1.61901613942e-11 2.81382778201)
(-0.487009754213 -2.05725412911e-11 2.75409823019)
(-0.400993378682 -1.42270822834e-11 2.72005499371)
(-0.347724312813 -1.08442760186e-11 2.68929676911)
(-0.278321759011 -9.20648641224e-12 2.66243976409)
(-0.243374225889 -4.21383801214e-12 2.63640409483)
(-0.161581612697 -3.49265994113e-13 2.61047081863)
(-0.148875527547 -1.75271243402e-12 2.58008979551)
(-0.0232409052861 2.36588668941e-13 2.5572834672)
(-0.0394610857812 6.10064228065e-12 2.49021794483)
(0.166962350061 -1.55806308239e-12 2.41707505443)
(-0.717915692686 5.51263519871e-11 27.8251790675)
(-1.48127490101 1.40336544437e-10 19.4984488904)
(-1.74471361791 3.71139651774e-11 14.4467241921)
(-1.6283084466 5.61620056661e-11 11.0485299441)
(-1.50480562502 1.2944955055e-11 7.60301876309)
(-1.2673011757 -5.57078294744e-12 4.68208488825)
(-1.05212171563 -1.40345433465e-11 3.6158653244)
(-0.836750184201 -1.1930508494e-11 3.20881245464)
(-0.690363820978 9.19505304024e-13 2.98644572509)
(-0.563604514056 -1.18075698177e-11 2.87562950175)
(-0.485870757083 -1.74216668426e-11 2.81646362349)
(-0.400926651887 -1.4141549859e-11 2.78506388601)
(-0.350469087967 -1.65577335475e-11 2.75646147529)
(-0.283066860356 -9.36812038239e-12 2.72981872507)
(-0.249083746292 -8.16572515632e-12 2.70116313432)
(-0.169232331702 -7.60492891909e-13 2.67339028049)
(-0.155932328515 -1.63566305108e-12 2.63687709579)
(-0.0351238223382 2.56141837574e-13 2.61324513033)
(-0.0491171308218 5.57507700035e-12 2.53494067746)
(0.131109460945 -1.37592494456e-12 2.47059375566)
(-0.61330625645 5.20339547606e-11 30.02384112)
(-1.40516168223 4.6386104022e-11 21.2714139385)
(-1.77901722836 6.61384015648e-11 15.591782674)
(-1.85158544345 9.57013602188e-11 11.76483867)
(-1.53511999729 3.49348285958e-11 8.77527302458)
(-1.23070560811 -6.515779693e-13 5.12507825007)
(-1.03200971236 -2.71014534859e-11 3.8031271532)
(-0.814076579746 -1.48162527921e-11 3.29295076372)
(-0.675091915751 -5.82344124184e-12 3.05361455026)
(-0.547550133443 -1.12209846598e-11 2.93548923443)
(-0.475361769029 -1.56540800742e-11 2.88374125464)
(-0.395579849052 -7.82345475683e-12 2.85431754025)
(-0.349961098079 -1.39997559915e-11 2.82830934198)
(-0.286801413684 -9.14450918846e-12 2.80147277585)
(-0.254706894217 -6.9162398936e-12 2.7695930351)
(-0.177830755211 2.37523412649e-12 2.73929467459)
(-0.163640955321 -1.67848529471e-12 2.69672402457)
(-0.0482537434703 1.62313533153e-13 2.6719729675)
(-0.0583512212513 4.94285878182e-13 2.58617849404)
(0.1013269704 -1.48180318946e-12 2.52983879737)
(-0.448471560962 5.43528379876e-11 32.0707762974)
(-1.22668248388 7.83628074104e-11 23.1193266894)
(-1.66303489905 1.82503888484e-10 16.9403066221)
(-1.81647894083 1.49564996395e-10 12.656639016)
(-1.48344709066 6.13281800797e-11 9.72657162829)
(-1.12850504032 9.39986587606e-12 5.56078819779)
(-0.916521040367 -1.40459039278e-11 3.98468398787)
(-0.738479448081 -1.39824949848e-11 3.36644863458)
(-0.61887486683 -2.21721534006e-11 3.12759167073)
(-0.508658851095 -1.46677533961e-11 3.00482347798)
(-0.449362301917 -1.61567418467e-11 2.96047559232)
(-0.381681103 -1.71863146759e-11 2.93318846556)
(-0.344190932713 -1.39107523123e-11 2.90787162232)
(-0.288383001959 -9.44020391301e-12 2.87990411126)
(-0.259515586276 -6.77090028914e-12 2.84332113795)
(-0.186585223658 1.30373136322e-12 2.80914613608)
(-0.171437775881 -7.74304164811e-12 2.76015012057)
(-0.0614046714014 -2.72135858928e-13 2.73350345468)
(-0.0664376454481 1.06883905844e-12 2.64292814524)
(0.0773772491113 -5.87375054243e-12 2.59314445562)
(-0.15727139273 6.32300667812e-11 33.8852925054)
(-0.874926874534 1.26167802042e-10 24.9257983191)
(-1.33429966199 3.13853356738e-10 18.3552388143)
(-1.58665588922 1.93841818333e-10 13.6092689042)
(-1.3139216882 8.19197143061e-11 10.3758944962)
(-0.909520878089 1.66331556934e-11 6.0093729747)
(-0.727799814187 -2.60671206615e-11 4.16024207096)
(-0.611456988644 -1.6723221434e-11 3.45987639821)
(-0.519056880008 -1.83682990168e-11 3.21366572468)
(-0.448694522762 -1.57763280846e-11 3.09006633713)
(-0.406788316418 -2.4293425931e-11 3.04940825153)
(-0.3585696305 -1.79534647759e-11 3.02193263651)
(-0.333699950115 -1.4396619935e-11 2.99541776063)
(-0.287675292668 -1.03146784785e-11 2.96441919054)
(-0.263734907593 -1.51750216329e-11 2.92161559506)
(-0.195400561116 6.66053320256e-12 2.88246979796)
(-0.17920254206 -5.61174861967e-12 2.82657546115)
(-0.0737633636768 -4.95121662463e-13 2.79716302776)
(-0.0728773358233 1.30683194096e-12 2.70340297252)
(0.0592943226454 -4.72627543202e-12 2.65868868824)
(0.199229705859 1.17554016421e-10 35.1616697772)
(-0.373266263403 1.5179615826e-10 26.5321291116)
(-0.797177447062 3.12040541894e-10 19.739612808)
(-1.19453454155 2.41268258328e-10 14.6795380703)
(-1.07781601242 9.11014807416e-11 11.0295847791)
(-0.555255754088 2.1802917516e-11 6.50623985781)
(-0.450371942319 -1.16683664867e-11 4.34397248527)
(-0.425068165041 5.93843945502e-12 3.61137796171)
(-0.382783309207 -2.47645235454e-11 3.32357980938)
(-0.362069122547 -1.80703872624e-11 3.20832615148)
(-0.348845903438 -2.17806528749e-11 3.15936349007)
(-0.326887579181 -1.79805471231e-11 3.13332733494)
(-0.317389638666 -2.04178289501e-11 3.09762337431)
(-0.284302168947 -1.18520195126e-11 3.06172182462)
(-0.26634186328 -1.70815147142e-11 3.00927854055)
(-0.203288049209 2.9351233571e-12 2.96234862657)
(-0.186355214129 -4.51284256538e-12 2.89815560497)
(-0.0848325479733 -7.02557156842e-13 2.86418793152)
(-0.0775384481911 1.2056348393e-12 2.76765710416)
(0.0449627862332 2.97117329043e-13 2.72694816187)
(0.574595477724 9.6328194764e-11 35.6236211758)
(0.21042669969 1.35216661057e-10 27.6891087084)
(-0.0808603190675 2.20666555676e-10 21.0211657657)
(-0.633426510068 2.20876337475e-10 15.8426419619)
(-0.68107637515 7.89333878104e-11 11.7916221431)
(-0.180761219346 1.53398237475e-11 6.8705345575)
(-0.136528384255 -4.89045869384e-11 4.54067509835)
(-0.183955502247 -1.55991671115e-11 3.80633089914)
(-0.223495445748 -2.13160595113e-11 3.48269892405)
(-0.256870238274 -1.96536850841e-11 3.367599905)
(-0.283816558003 -3.82870720661e-11 3.30522545385)
(-0.289190412109 -2.19146828204e-11 3.26530675841)
(-0.301730443818 -1.88349078436e-11 3.21684246195)
(-0.279547665298 -7.69135754792e-12 3.1656226023)
(-0.270344632224 -1.3537140214e-11 3.10056665822)
(-0.21213320769 6.57442095299e-13 3.04400737631)
(-0.193916951707 -4.12112745667e-12 2.97065457808)
(-0.0953290618074 -9.3713166535e-13 2.93099877963)
(-0.0806416952488 1.04041559908e-12 2.8321233363)
(0.0346094604637 -6.23093293325e-13 2.79450872662)
(0.931309492798 2.55410777424e-11 35.3034531062)
(0.783524871827 9.14488877765e-11 28.1635798491)
(0.58728942818 1.7181995273e-10 21.9504379673)
(-0.095679109729 1.84019098843e-10 16.9684782141)
(-0.229384177064 5.68387036104e-11 12.4669982381)
(0.150148984294 2.35191424486e-12 6.98512014431)
(0.135295133127 -2.78102918963e-11 4.776844605)
(0.0686981357596 -1.9422687928e-11 4.03823358303)
(-0.0602200644723 -2.0852263752e-11 3.68776364464)
(-0.146402380659 -2.10569619503e-11 3.56390140567)
(-0.228709822334 -3.08202790166e-11 3.47967385219)
(-0.261383287007 -2.26883073092e-11 3.4184358501)
(-0.287931704292 -1.81138060761e-11 3.34933272619)
(-0.279084212945 -1.03216871635e-11 3.28468459032)
(-0.272567327512 -1.23862117211e-11 3.20296077249)
(-0.219197523583 -9.73242164273e-13 3.13468441569)
(-0.200092333297 -3.89115923536e-12 3.0505371086)
(-0.104591317477 -1.18157414338e-12 3.00347461928)
(-0.0822591183604 8.87639495426e-13 2.90147944792)
(0.0249906785473 -8.32292397439e-13 2.86508103669)
(1.25905646485 5.30271474525e-11 34.2209335417)
(1.2590776108 6.95584571476e-12 28.0344528745)
(1.02835247471 3.62940886795e-11 22.5311154443)
(0.242070216026 8.21621990033e-11 18.0611401099)
(0.252964410731 2.26285808161e-11 13.011740981)
(0.487844235052 -2.5242511695e-11 7.1073291379)
(0.332173920543 -2.95140271847e-11 5.16279472554)
(0.216499960444 -2.27510236841e-11 4.37080683487)
(0.0482451196054 -4.08491355801e-11 4.01412940562)
(-0.0619108616931 -2.75662125332e-11 3.83722169022)
(-0.192466967152 -2.95090605373e-11 3.72108732057)
(-0.240135479804 -3.10426493612e-11 3.62281965813)
(-0.279179408389 -1.34376292351e-11 3.51881673501)
(-0.274674718608 -1.11075853868e-11 3.42278527634)
(-0.277859706018 -1.21893440425e-11 3.31687363588)
(-0.228510905704 -2.62763483435e-12 3.22837243284)
(-0.207778113146 -3.79252559847e-12 3.12896406406)
(-0.115222019634 -1.44438496543e-12 3.07212748728)
(-0.0846662570849 5.85843553363e-13 2.96696792347)
(0.0173863197746 -8.4274868804e-13 2.93206024935)
(1.49609584933 -1.62556063517e-11 32.3794688471)
(1.5810417627 3.55047407253e-11 27.3149255181)
(1.31269095525 3.33298702277e-11 22.8125436723)
(0.624001565687 4.95275178181e-11 19.0113222418)
(0.682489057895 -1.89239120181e-14 13.5108718443)
(0.627810236278 -1.01457303788e-10 7.51091772831)
(0.497319924196 -4.44097844273e-11 5.63146443551)
(0.308444584356 -2.87914979297e-11 4.7928257841)
(0.11880437592 -3.58735776276e-11 4.42568187144)
(-0.0333922068661 -2.98158406648e-11 4.14845406187)
(-0.181642266074 -3.02526775962e-11 3.99637379271)
(-0.255155945728 -2.81514080387e-11 3.83255417276)
(-0.296319025513 -1.63833103105e-11 3.69871941802)
(-0.294841351852 -1.26089621876e-11 3.56308825612)
(-0.290912061726 -2.1657716237e-11 3.43457590039)
(-0.241893706467 -5.78028597818e-12 3.32737325623)
(-0.21652129965 -4.0737668004e-12 3.21597277068)
(-0.126008168042 -1.84388658397e-12 3.14768192469)
(-0.0863526721456 -5.07212923553e-12 3.0397074676)
(0.00882075861649 -5.86753315501e-12 3.00413351248)
(1.55163058955 -2.22150622176e-11 29.9122901699)
(1.63931205099 -1.78875749927e-11 26.1243678468)
(1.42249053807 8.77208961188e-11 22.7034988115)
(0.988862360925 4.9948401743e-11 19.4203225346)
(0.974474798403 -9.70657308574e-12 13.8938533086)
(0.761897995566 -6.68957241624e-11 8.41317505983)
(0.584486260968 -4.71579477237e-11 6.24393950621)
(0.348025384007 -3.41482557004e-11 5.34206194551)
(0.133693513534 -3.39811862357e-11 4.89324668983)
(-0.0383458581421 -3.19490533402e-11 4.54768018355)
(-0.197023919516 -3.18182472965e-11 4.32877887079)
(-0.28355079192 -2.78664386545e-11 4.11062709989)
(-0.312084636851 -1.05203032718e-11 3.9287831876)
(-0.310513162558 -1.24818566156e-11 3.7467980942)
(-0.301404384976 -1.72654180162e-11 3.58070692202)
(-0.252892889787 -7.820153602e-12 3.43782775431)
(-0.224055919332 -4.47390514413e-12 3.30272448811)
(-0.138654576435 -2.27747028623e-12 3.21794733157)
(-0.0915496132724 -3.72439183748e-12 3.10397236123)
(-0.000446733916856 -4.44020225057e-12 3.07064918208)
(1.35198602842 -1.05152624448e-11 27.3873139507)
(1.47637631756 1.1171927941e-11 24.8033790772)
(1.45831096215 1.3055068487e-10 22.2119650785)
(1.3442919935 4.40564334379e-11 19.3162165645)
(1.23029773693 -1.9682995026e-11 14.2861741481)
(0.957961908609 -5.80227786413e-11 9.28370246015)
(0.738278065301 -6.13757463517e-11 6.9520082385)
(0.451741917533 -4.04737949548e-11 5.94971193652)
(0.207010230755 -1.46436720878e-11 5.42058713294)
(-0.00209712304548 -3.36608095998e-11 5.00109794403)
(-0.193220106756 -3.57576199168e-11 4.71897447705)
(-0.321435315603 -3.76185573238e-11 4.44001030693)
(-0.360160308801 -1.64768878306e-11 4.19852776319)
(-0.361692096606 -1.39130082858e-11 3.95554907488)
(-0.341397156804 -1.62223729052e-11 3.73479067972)
(-0.285946005762 -1.78752072097e-11 3.55550404414)
(-0.241115823627 3.30323622569e-13 3.3946983577)
(-0.153686898588 -2.00780404069e-12 3.29278833284)
(-0.095940632775 -3.49726017858e-12 3.17682205547)
(-0.00987347934187 -4.21339432692e-12 3.1417386805)
(1.04759872257 -7.53469422019e-11 25.3457231462)
(1.23299031767 7.44677703407e-11 23.548944488)
(1.41610205417 3.95752783171e-11 21.4272866086)
(1.48788886512 1.01663297478e-11 18.8515161524)
(1.32607879404 -3.18027825941e-11 14.5801552669)
(1.0604252301 -6.80131032405e-11 10.0006534523)
(0.833710131628 -1.12625210993e-10 7.6235324713)
(0.551628344282 -5.63020962373e-11 6.5778475313)
(0.291644003358 -6.71482191793e-11 6.00555658495)
(0.0621078470133 -3.93585785096e-11 5.56892128224)
(-0.158139022493 -4.9644671062e-11 5.19566159685)
(-0.321300000795 -1.85920064145e-11 4.86273857077)
(-0.368932888806 -1.57046297139e-11 4.54188248586)
(-0.390270599215 -1.42171854326e-11 4.22603516704)
(-0.361356052283 -1.61293604103e-11 3.93760781317)
(-0.300375386542 -2.34429571039e-11 3.69451278986)
(-0.247777898598 1.10357407588e-12 3.49893566035)
(-0.160724164379 -1.76669715323e-12 3.36955129928)
(-0.102218700493 -3.36034558032e-12 3.2390517566)
(-0.0231917206785 -4.25525441825e-12 3.21009784408)
(0.758044796211 -3.4282387408e-11 23.668923311)
(1.00806895585 4.85332743888e-11 22.2356030755)
(1.29928946118 1.35619216016e-11 20.3786509264)
(1.49989331971 -1.75978070201e-13 18.1125591638)
(1.4050254865 -2.52186930666e-11 14.7648405442)
(1.15818403253 -4.96571655241e-11 10.6892759644)
(0.922404065869 -7.84351163382e-11 8.30395870329)
(0.648351417698 -5.54815273288e-11 7.25058105314)
(0.384153054602 -5.52426506143e-11 6.66570653545)
(0.166496119479 -3.86919547091e-11 6.26006322942)
(-0.0594505285258 -1.55396196134e-11 5.83173465257)
(-0.22212058041 -2.05423383172e-11 5.41948868489)
(-0.298324670566 -1.58285912244e-11 5.00973568968)
(-0.344072981346 -1.41304740767e-11 4.61681709775)
(-0.354460632101 -1.55595698735e-11 4.22593208133)
(-0.316119074316 -1.8306820521e-11 3.89661979428)
(-0.249102031599 -4.2833166885e-12 3.6301848043)
(-0.168124478135 -2.40660386681e-12 3.45700749745)
(-0.103143181957 1.68403522269e-12 3.31250731566)
(-0.0289134670641 -3.82131928373e-12 3.27907008947)
(0.541886933549 -2.27614348526e-11 22.2051747389)