/*--------------------------------*- C++ -*----------------------------------*\
  =========                 |
  \\      /  F ield         | OpenFOAM: The Open Source CFD Toolbox
   \\    /   O peration     | Website:  https://openfoam.org
    \\  /    A nd           | Version:  7
     \\/     M anipulation  |
\*---------------------------------------------------------------------------*/
FoamFile
{
    version     2.0;
    format      ascii;
    class       volScalarField;
    location    "0.05";
    object      alphat;
}
// * * * * * * * * * * * * * * * * * * * * * * * * * * * * * * * * * * * * * //

dimensions      [1 -1 -1 0 0 0 0];

internalField   nonuniform List<scalar> 
814
(
0.000199761807074
0.00012276470305
1.55387909693e-05
0.000164953590715
0.000102986886945
1.34073903893e-05
0.000152380907162
9.7310863224e-05
1.26426976767e-05
0.000125901056228
8.02959545811e-05
2.37374660149e-05
0.000107471583642
7.13230966677e-05
3.86362215711e-05
9.52723918918e-05
6.94031747105e-05
5.09246844287e-05
8.73511239677e-05
7.25835107835e-05
6.4895939811e-05
8.52401881945e-05
7.96181366422e-05
7.91230742201e-05
8.80117247845e-05
8.96285744494e-05
9.27748766868e-05
9.49032666568e-05
0.000101467902387
0.000105594518231
0.000104927048524
0.000113922109924
0.000117291472921
0.000116870371645
0.000125853574314
0.000127647116996
0.0001291364524
0.000136509589674
0.00013650641867
0.000140471209772
0.000145392039025
0.000143698008512
0.000149922427506
0.000152596618001
0.000149501107404
0.00015726015809
0.000158158163453
0.000154257547271
0.000163021928496
0.000162914864477
0.000158967452928
0.000168832495116
0.00016834692433
0.000165246301046
0.000177031554561
0.000176634803337
0.00017532415246
0.000188853168255
0.0001895686299
0.000190520606428
0.000207218811917
0.000208696748774
0.000211983316118
0.000230517691114
0.000233096093176
0.000237891058766
0.000257735381115
0.000260095940362
0.000265072916623
0.00027796821627
0.000280393756791
0.000284391982008
0.0002868587506
0.000287399003997
0.000289271307425
0.000272315500023
0.00027277582997
0.000272371251156
0.000243703759536
0.000242360807688
0.00024058657744
0.000205120811993
0.000204491865535
0.000202170409437
0.000173538573173
0.000172345356181
0.000170661384033
0.000152733322101
0.000152586530351
0.000151728765295
0.000150051485601
0.000149686760973
0.000149709021741
0.000159836397492
0.000160198333232
0.000160506636805
0.000111513849709
3.32913468029e-05
4.5156901173e-05
5.70091346968e-05
6.82269936447e-05
7.97018572729e-05
9.09061521628e-05
0.000101453246112
0.000111331987451
0.00012022231627
0.000128013486462
0.000134718002468
0.000141120693197
0.000148325925936
0.000157988499429
0.000171803315484
0.000191052010351
0.000215629549606
0.000243596317455
0.000270746558413
0.000288752633893
0.000290531339266
0.000271358642832
0.000237374390925
0.00019915898367
0.000168172542878
0.000150947749086
0.000149759974685
0.000161207554127
3.10025937721e-05
0.000180152688103
0.000243923937999
0.0002796043136
0.000306297823017
0.000333967031238
0.000362574806039
0.000390829916915
0.000417423111044
0.000438449788649
0.000453034208145
0.000459405038127
0.000458925950415
0.000452347535073
0.00044323781727
0.000431973459959
0.0004231744324
0.000413749917585
0.000389072703142
0.000114688465096
3.54231658255e-05
0.000145734438668
0.00021851823416
0.000279775434432
0.000321179943393
0.000360967142014
0.000395632897996
0.000426136513266
0.000451547189956
0.000469691943517
0.000480132770847
0.000482535624044
0.000478014834821
0.000468461385185
0.000456098737332
0.000443430495716
0.000431867030962
0.000421528424023
0.000384024916159
0.000116527807785
4.67955355237e-05
9.30352964237e-05
0.000153738408293
0.00024216718131
0.000299361774896
0.00035290103384
0.000396985426069
0.000435134772051
0.000465071414297
0.000484173315565
0.000493666526554
0.000494543200453
0.000488260401283
0.00047739602444
0.000463538308908
0.000450174270473
0.000437272135565
0.000426681011562
0.000381587250943
0.000118029485913
2.61756061197e-05
2.23185616493e-05
7.29342595153e-05
0.000150660138106
0.000214644773723
0.000287635925602
0.000351277426402
0.000409531845872
0.000458201179493
0.000488194097993
0.000501969498577
0.000503310049971
0.00049632138701
0.0004846950565
0.000470018805152
0.000456174745325
0.000442485240418
0.000431744850419
0.000382062745975
0.000131391435676
3.52513890052e-06
1.74571465435e-06
5.1512500057e-06
3.90647463364e-05
0.000116172504157
0.000183240080555
0.000256136033232
0.000337832636125
0.000419396758789
0.000476904482261
0.000505087769945
0.000510611316798
0.000504045301416
0.00049179072566
0.000476521519567
0.000462090745235
0.000447891288363
0.00043635228963
0.000379836518052
0.000137704521208
6.92960788988e-06
1.73200124015e-06
3.21716812095e-06
2.16223059095e-05
6.207847017e-05
0.000104132267709
0.000167061193324
0.000255526848432
0.0003607505085
0.00044971966382
0.0005010699497
0.000516628432983
0.00051253969739
0.000499979598896
0.000484034116458
0.000468849891908
0.000454083815007
0.000441367120898
0.000376791442875
0.000143529145675
1.08152167288e-05
1.97216058244e-06
3.29051545859e-06
1.41976878251e-05
3.33977172076e-05
5.81517669926e-05
0.000107115104855
0.000191054203591
0.000303605271362
0.00041269322002
0.000487422646033
0.000518786323112
0.000520613146575
0.000508877666983
0.0004923591048
0.000476424097314
0.000460988592324
0.000447005130507
0.000374076765092
0.000147935078314
1.61886536163e-05
2.86526041819e-06
3.70273624073e-06
1.0133487775e-05
1.8888328896e-05
3.39566890964e-05
7.18412025179e-05
0.00014667165048
0.000255570055915
0.000371636007109
0.000464211672403
0.00051457421341
0.000526548775575
0.000517672684176
0.000501088214485
0.000484551014304
0.000468401186108
0.000453016933323
0.000371450315418
0.000152441796866
2.34907442285e-05
4.39553485084e-06
4.28972210238e-06
8.0651707512e-06
1.19560073295e-05
2.17358843653e-05
5.12472112781e-05
0.000115469348225
0.000214812774367
0.000329504760154
0.00043373367842
0.000502989119158
0.000528901443328
0.000525572478588
0.000509877301573
0.000493010826664
0.000476158083075
0.000459165561833
0.000368433600727
0.000157151224917
3.2400256657e-05
6.75402678098e-06
5.34312584043e-06
7.52255406407e-06
9.00938514795e-06
1.54238670998e-05
3.77971777261e-05
9.06441157879e-05
0.000178264270168
0.000288131507516
0.000399200173752
0.000484806601324
0.000526866724474
0.000531940955388
0.000518488818293
0.000501704220382
0.000484201722263
0.00046540237281
0.000365091002854
0.000161447579235
4.26671266732e-05
1.03142460331e-05
7.46563295324e-06
8.23192104552e-06
8.24493219725e-06
1.1973232577e-05
2.77485551678e-05
6.89529285771e-05
0.000144740349102
0.000248814487309
0.000363388914566
0.000461847309778
0.000520319786895
0.000536252024912
0.000526653513585
0.000510517783846
0.000492444059327
0.000471637883287
0.000361933184529
0.000164881858413
5.41548051928e-05
1.55988325183e-05
1.11277120212e-05
1.00907480892e-05
8.84192522483e-06
1.02509468061e-05
2.02974991694e-05
5.06049982547e-05
0.000114843326573
0.000212424577915
0.000328034511272
0.000436075265459
0.000509700729303
0.000538071928539
0.000533948386308
0.000519147889459
0.000500609218258
0.000477542075406
0.000359200815365
0.000167559787213
6.63337616866e-05
2.31576454789e-05
1.67164988347e-05
1.32918917314e-05
1.05090624563e-05
1.00555493551e-05
1.55955744677e-05
3.6698770826e-05
8.95067981245e-05
0.000179415808918
0.000294044066019
0.000409072579404
0.000495842156683
0.000537099400923
0.000539752160767
0.000526994913238
0.000508102408893
0.000482453560822
0.000356357760705
0.000169659099536
7.91622777999e-05
3.36858177642e-05
2.48672100162e-05
1.85574016385e-05
1.32442741429e-05
1.148450623e-05
1.36876695311e-05
2.74029481073e-05
6.89149143798e-05
0.000149667938207
0.000261629650622
0.000381788511688
0.000479613713783
0.000533112973026
0.000543197634519
0.000533036455833
0.000513862052338
0.000485304130092
0.000352682600006
0.000171156760288
9.28745046171e-05
4.79018080189e-05
3.62676869569e-05
2.63421712281e-05
1.73039019381e-05
1.47213567126e-05
1.45601567893e-05
2.20770253871e-05
5.2564331579e-05
0.000122674486806
0.000230589935708
0.000354538222314
0.00046157925541
0.000525783688941
0.000543078512019
0.000535709260458
0.000516198557391
0.000484494453146
0.000346852290206
0.000171900065011
0.000107600027676
6.62466926003e-05
5.15575618468e-05
3.7090254641e-05
2.33923908529e-05
1.98808691401e-05
1.8365220353e-05
2.00630384435e-05
3.97934166124e-05
9.76295546984e-05
0.000200198477863
0.000327012845257
0.000441631344018
0.000514373112085
0.000537690217044
0.000532761558666
0.000512651938531
0.000477786045091
0.000337635385842
0.000171703920326
0.000123998169735
8.90798180864e-05
7.16021736398e-05
5.19724593298e-05
3.32446802138e-05
2.69419019689e-05
2.5235077574e-05
2.12285948238e-05
3.05904129318e-05
7.44389871102e-05
0.000169633186774
0.000298619804822
0.00041929851921
0.000497767624304
0.000524929148696
0.000521414766321
0.00050017335802
0.000462483478404
0.000323944862512
0.000170461112056
0.000143135775129
0.000116526474669
9.67954451301e-05
7.17159071693e-05
4.70017531018e-05
3.60176583407e-05
3.46887151313e-05
2.59702949373e-05
2.54895075188e-05
5.44781177457e-05
0.000138949329741
0.000268876695029
0.000393776078461
0.000474404107301
0.000502386152929
0.000498571102462
0.000475472730552
0.000435775081875
0.000304370222006
0.000168189557309
0.00016596673043
0.000148027152736
0.00012664279124
9.61834520037e-05
6.45711965378e-05
4.85980735181e-05
4.5324761157e-05
3.4643749227e-05
2.4657578827e-05
4.00247001268e-05
0.000110501392652
0.000238902237476
0.000364828115695
0.000443020041845
0.000468278896762
0.000462052099823
0.000436378689887
0.000395995137566
0.000278276365076
0.000165219951991
0.000192850714045
0.000182600741212
0.000160212322744
0.000124627450529
8.54651284561e-05
6.39510728835e-05
5.60072260042e-05
4.60261318364e-05
2.75242676983e-05
3.14036614367e-05
8.86257702328e-05
0.000211929705266
0.000332747968818
0.00040243948007
0.000421514818246
0.000411510752445
0.000383411959522
0.000344332749674
0.000246415006321
0.000162164181496
0.000222835518633
0.000218228141722
0.00019502873728
0.000154203846565
0.000106992766857
7.91975221735e-05
6.66145924632e-05
5.78515985546e-05
3.19805352966e-05
2.73146663967e-05
7.4324082586e-05
0.000189871699552
0.000297632145148
0.000352372213783
0.000363102732288
0.000349726213101
0.000321180944575
0.000286132739551
0.000212088657922
0.000159867110221
0.000253323492948
0.000251215748243
0.000226477629474
0.000180152535036
0.000125767992402
9.28792497649e-05
7.78851784762e-05
6.71935137088e-05
3.46138959351e-05
2.60455702656e-05
6.95351153555e-05
0.000173240718858
0.000257563966307
0.000293035955956
0.000295703942714
0.000281752610192
0.000256963151847
0.000229391700961
0.000180084163332
0.000159221432084
0.000279573196294
0.000275938850345
0.000247507692601
0.000195923515806
0.000137575104735
0.000103542846918
8.6464787389e-05
6.92025275148e-05
3.38824422875e-05
2.70253436284e-05
7.26302120898e-05
0.000157465853174
0.000210839898117
0.000227215728004
0.00022458984471
0.000214132027776
0.000197951512435
0.000181220799431
0.000154740274983
0.000160772058603
0.000294327849941
0.000285367922554
0.000251399445123
0.000196002315186
0.000138979350633
0.000108431748482
9.08634254122e-05
6.24040787614e-05
3.07890643059e-05
3.14300471586e-05
7.93558584744e-05
0.000135806554037
0.000159517237399
0.000162303567311
0.000158049935118
0.000153550249818
0.000148402371731
0.000144454036877
0.00013792543818
0.00016449561218
0.000290486248527
0.000274410950251
0.00023572329951
0.000181105343094
0.000133243234251
0.000108170497365
9.05597254812e-05
5.20442537273e-05
2.84607396836e-05
3.99206930169e-05
8.14361687671e-05
0.000108287043017
0.000113384551681
0.000110627432969
0.000107200542702
0.000107003787456
0.000110210409441
0.000117669943194
0.000128213550536
0.000169464282025
0.000266400763147
0.000245144027056
0.000206848664373
0.000161228725704
0.000128184695849
0.00010834448864
8.56082575272e-05
4.30588379018e-05
2.94403104524e-05
4.94056315359e-05
7.48627822781e-05
8.32851945529e-05
8.20381863554e-05
7.92672478721e-05
7.750307025e-05
7.85989743715e-05
8.42474009543e-05
9.78015922786e-05
0.000121871757974
0.000174168150665
0.000229563142786
0.000208282841219
0.000177493808527
0.000147321256696
0.000128998966737
0.000114781190587
8.00261871778e-05
3.90236146626e-05
3.39310863775e-05
5.30110781688e-05
6.48828826067e-05
6.73886849557e-05
6.66918898528e-05
6.58437283982e-05
6.57198439195e-05
6.69157601137e-05
7.10218251685e-05
8.38248859964e-05
0.000115394247428
0.000176824613821
0.000191763089874
0.00017561561136
0.00015675158397
0.000142803065601
0.000133673177914
0.000122502529929
7.6932951246e-05
3.92210650957e-05
3.86961845362e-05
5.19921950903e-05
5.84726445975e-05
6.11945301351e-05
6.27665494215e-05
6.39661020184e-05
6.54289234307e-05
6.72578065693e-05
6.93322018396e-05
7.68615358998e-05
0.000107015568357
0.000176500073619
0.000163277407288
0.000154880063501
0.000148086873948
0.000145360346695
0.000139200345086
0.000126291906315
7.74239080687e-05
4.3317075193e-05
4.28569496267e-05
5.18134050297e-05
5.80663461034e-05
6.2541978135e-05
6.60241206403e-05
6.87139004951e-05
7.14175840433e-05
7.45476375761e-05
7.65923287154e-05
7.88083194871e-05
0.000100267736496
0.000173934504382
0.000149371553022
0.000148286872699
0.000149764358441
0.000150667513355
0.000142575088271
0.000123514959518
7.91164354394e-05
5.14248922224e-05
5.05130376964e-05
5.73568737795e-05
6.40140699536e-05
6.93158130072e-05
7.33557851425e-05
7.64605826089e-05
7.97999202887e-05
8.44731463817e-05
8.8917187977e-05
8.94709371431e-05
9.92941691044e-05
0.00017196060681
0.000150695711836
0.000153764168218
0.000157345661779
0.000155844207951
0.000143492706561
0.000118744843414
8.45460046105e-05
6.51611383469e-05
6.40096322522e-05
6.91382673168e-05
7.4717542267e-05
7.88232992597e-05
8.13626043547e-05
8.33865163983e-05
8.67935540356e-05
9.3479962783e-05
0.000102307924285
0.000106101376858
0.000107989923477
0.000175592165656
0.000162797551424
0.000165538689378
0.000166271450344
0.000160607971902
0.000145806490947
0.000122998877657
9.82914749077e-05
8.60593539095e-05
8.42394550285e-05
8.59920151929e-05
8.73447114267e-05
8.66140730363e-05
8.50550935102e-05
0.000227425928181
0.000117243451739
0.000179435623863
0.000151421765326
0.000178509498405
0.000169839774461
0.000174491788674
0.000166895816348
0.00017161582218
0.000158303906009
0.00016898165706
0.000147715380731
0.000166396057514
0.00013669787477
0.000163588141441
0.000125991511081
0.000160530017708
0.000115855706819
0.000157163562528
0.000106442830049
0.000153489314556
9.78785001033e-05
0.000149590162789
9.02970975551e-05
0.000145600407961
8.38175674801e-05
0.000141735480841
7.8570115941e-05
0.000138218754471
7.46257528902e-05
0.000135325976586
7.20651975586e-05
0.000133279169214
7.08679049797e-05
0.000132236251406
7.10446714933e-05
0.000132320985964
7.25475520012e-05
0.00013356980212
7.53824403007e-05
0.000135996025076
7.9551219836e-05
0.000139472217864
8.50380130581e-05
0.000143655429973
9.18449911335e-05
0.000147894439401
9.98400286519e-05
0.00015185415141
0.00010881545823
0.000153972810466
0.000118474063456
0.000154098500257
0.000129730189696
0.000151033758589
0.00014520616576
)
;

boundaryField
{
    inletfuel
    {
        type            calculated;
        value           nonuniform List<scalar> 3(0.00083420045166 0.000834127100158 0.000834264207387);
    }
    inletair
    {
        type            calculated;
        value           nonuniform List<scalar> 
20
(
0.000397814412945
0.000397813530904
0.000397814073786
0.000397814213317
0.00039781519473
0.000397816108681
0.000397817668978
0.000397819358377
0.000397821479406
0.000397823808829
0.000397826392053
0.000397829102896
0.00039783184692
0.000397834307855
0.000397835853823
0.000397836252657
0.000397835170501
0.000397833807277
0.000397830992834
0.000397830016821
)
;
    }
    outlet
    {
        type            calculated;
        value           nonuniform 0();
    }
    axis
    {
        type            empty;
    }
    leftside
    {
        type            compressible::alphatWallFunction;
        Prt             0.85;
        value           nonuniform List<scalar> 
33
(
0
0
5.43118621926e-06
5.81030736854e-06
6.1163017642e-06
0
0
0
0
0
0
0
0
0
0
0
0
0
0
0
0
0
0
0
0
0
0
0
0
0
0
0
0
)
;
    }
    burnerwall
    {
        type            compressible::alphatWallFunction;
        Prt             0.85;
        value           nonuniform List<scalar> 7(0 0 0 0 0 0 1.27384056589e-06);
    }
    front
    {
        type            wedge;
    }
    back
    {
        type            wedge;
    }
    procBoundary0to1
    {
        type            processor;
        value           nonuniform List<scalar> 
27
(
0.000183986228974
0.000183097180495
0.00018307223418
0.000182816953586
8.51046392114e-05
8.89533975273e-05
9.9038038635e-05
0.000114611965592
0.000125070084279
0.000124085220732
0.000188445785964
0.000183062555471
0.000182998123327
0.000180355356506
0.000173078131186
0.000160491105031
0.000144419901737
0.000127930239188
0.00011593384932
0.00010704049781
9.90611437904e-05
9.23387090377e-05
8.62377323877e-05
8.51046392114e-05
8.24984864236e-05
0.000137259733352
0.000156781109757
)
;
    }
}


// ************************************************************************* //
