/*--------------------------------*- C++ -*----------------------------------*\
  =========                 |
  \\      /  F ield         | OpenFOAM: The Open Source CFD Toolbox
   \\    /   O peration     | Website:  https://openfoam.org
    \\  /    A nd           | Version:  7
     \\/     M anipulation  |
\*---------------------------------------------------------------------------*/
FoamFile
{
    version     2.0;
    format      ascii;
    class       volScalarField;
    location    "0.05";
    object      dQ;
}
// * * * * * * * * * * * * * * * * * * * * * * * * * * * * * * * * * * * * * //

dimensions      [1 2 -3 0 0 0 0];

internalField   nonuniform List<scalar> 
814
(
5.22939001865e-10
1.88354746893e-09
2.97521373389e-09
3.44899185013e-08
1.55023201261e-07
1.0131253738e-06
1.0870217912e-06
7.22537158995e-06
0.000109838430675
3.95901675911e-05
0.000532249458262
0.0261059778707
0.000281800086109
0.00368315726398
0.0840244153057
0.000367945129778
0.00368549445686
0.0399075400034
0.000390447187355
0.00300357131371
0.0183776790117
0.000358009093152
0.00214199552757
0.00852803879024
0.000291790327221
0.00139899271745
0.00407024131134
0.000216591443212
0.000868816451742
0.0020407291779
0.000149060619376
0.000524807038961
0.001096473998
9.70059897876e-05
0.000314751964493
0.000637780026941
6.08931105546e-05
0.000191655433336
0.000404388144043
3.78951221151e-05
0.000121523477002
0.000280143120263
2.42311819817e-05
8.26038294711e-05
0.000212137178028
1.67089070419e-05
6.1859446512e-05
0.000174438181868
1.30058749455e-05
5.17174258103e-05
0.000153081304894
1.15368198119e-05
4.73281509238e-05
0.000139462666123
1.11985286824e-05
4.54538493978e-05
0.000128230838691
1.10776054967e-05
4.34679564967e-05
0.000114789427954
1.06270501236e-05
3.98139257932e-05
9.77557768243e-05
9.60012667063e-06
3.44801692954e-05
7.90523937831e-05
8.60100547239e-06
2.98651595358e-05
6.52147942653e-05
9.05974069967e-06
3.11779310919e-05
6.73575337098e-05
1.40697962479e-05
4.83905447694e-05
0.000105580624607
2.72300366283e-05
9.3569461503e-05
0.000202883070245
5.27817233306e-05
0.000178240583934
0.000377965178254
9.25487352869e-05
0.000308755055354
0.000634590051967
0.000148794929202
0.000485302807713
0.0009634396422
0.000208422693231
0.000670328130474
0.00128364100714
0.000251311116093
0.000792642311117
0.00147172799345
0.000253854127677
0.000794347152757
0.0014412050825
0.0256122256742
0.431720668515
0.127889348414
0.0429226972651
0.0164214129708
0.00715525012919
0.00359143924233
0.00206103032909
0.00130949320693
0.000905681023626
0.000667945721091
0.00052287412186
0.00042953439099
0.000364134012196
0.00031283697568
0.000267853670407
0.000222506407264
0.000175949525236
0.000133550887924
0.000105734797877
0.000109533555923
0.000174965820398
0.000335622841411
0.000609125131241
0.00099009057877
0.00143924694399
0.00184075301355
0.00202680194471
0.00193352146537
2.63775685782e-05
1.09681926577e-05
1.02005947789e-05
7.87800523131e-06
5.21177607612e-06
2.99825177661e-06
1.16829355482e-06
3.91000806767e-07
1.20278687325e-07
3.34642157059e-08
8.33397911495e-09
1.82052841672e-09
3.42319058611e-10
5.44403213179e-11
7.1863181366e-12
7.7464016449e-13
6.72862272539e-14
4.60869784459e-15
2.52463732162e-16
1.90281729832e-17
0.00111153561636
0.000430392361197
0.000251928836844
0.000144067049832
7.47775708723e-05
2.47474527778e-05
7.91883042643e-06
2.32266959927e-06
6.35683111014e-07
1.58395096218e-07
3.60467036398e-08
7.28893075789e-09
1.27864057398e-09
1.9134663381e-10
2.38695956746e-11
2.46081284382e-12
2.03917590195e-13
1.34802610952e-14
7.1742633203e-16
4.9388914377e-17
0.0056571679985
0.00257384471912
0.00139861905523
0.000472849432551
0.000181377981974
6.18082445906e-05
2.03929364624e-05
5.81463094919e-06
1.52222081019e-06
3.58378122952e-07
7.87818691506e-08
1.54354544292e-08
2.61334709359e-09
3.76530433412e-10
4.51665141158e-11
4.50819721617e-12
3.6167865254e-13
2.34532017027e-14
1.21661717077e-15
7.78488331003e-17
0.134823012035
0.0368017428706
0.00496786768892
0.00171773136685
0.000824616704726
0.000291425529648
0.000100199207796
2.68083496909e-05
6.42144731396e-06
1.39894686212e-06
2.97979616488e-07
5.76696057855e-08
9.65802029357e-09
1.37562737657e-09
1.63281739007e-10
1.60819012158e-11
1.27245500719e-12
8.203421036e-14
4.1997576896e-15
4.05580223451e-16
1.71724084825
0.671445716229
0.0842817264292
0.0114382517141
0.00299481713118
0.00118285576883
0.000445136745318
0.000118522329474
2.53606507699e-05
4.81134752087e-06
9.68374211981e-07
1.87963504451e-07
3.19366106862e-08
4.60039235339e-09
5.51380269905e-10
5.47159033111e-11
4.36804412539e-12
2.86393044423e-13
1.53478204455e-14
2.3124381687e-15
0.580631102408
0.695489462971
0.085976381191
0.019770761361
0.00615113986863
0.00302497733421
0.00129759160375
0.000371752787073
7.66819726854e-05
1.36777714752e-05
2.6669605603e-06
5.31484616226e-07
9.41518508581e-08
1.40693541618e-08
1.73982397041e-09
1.7742562458e-10
1.45669247914e-11
9.89433125112e-13
5.80457657729e-14
1.12882336489e-14
0.191620520799
0.796053893965
0.0883845325559
0.0249212367112
0.00918134172031
0.00510028204932
0.00249056446344
0.000781599581135
0.000169606944517
3.16320419944e-05
6.38466062787e-06
1.31761764134e-06
2.46094373161e-07
3.88111342114e-08
5.0369629098e-09
5.36156969668e-10
4.5938621101e-11
3.27743645524e-12
2.14066973966e-13
4.82540771111e-14
0.0818125994884
0.470336513221
0.137394391098
0.0323800837875
0.0119870201814
0.00649690654036
0.00348444814199
0.00120186511386
0.00029324393884
6.26065301728e-05
1.3535162588e-05
2.86282443773e-06
5.67912970617e-07
9.56842021482e-08
1.31904599497e-08
1.48210493379e-09
1.34019525161e-10
1.01577637652e-11
7.43078880832e-13
1.80705598382e-13
0.0429269044035
0.304075988888
0.231222457247
0.0492053275083
0.0158143214443
0.00719748120404
0.00403497808098
0.00153570991147
0.000435491911331
0.000109911742611
2.55962142522e-05
5.53730567178e-06
1.1652538755e-06
2.10607336699e-07
3.10887765577e-08
3.71976388834e-09
3.58387854234e-10
2.91970520841e-11
2.40365199738e-12
5.99865681269e-13
0.0261872324372
0.199284320209
0.411554532444
0.0853643733873
0.0234035946533
0.00799499958058
0.00441050524184
0.00184887853161
0.000601598490682
0.000175101711126
4.38721994649e-05
9.74658437649e-06
2.16213242473e-06
4.18010475855e-07
6.63350080393e-08
8.50405353102e-09
8.80591427831e-10
7.8177200358e-11
7.30201878634e-12
1.81022228401e-12
0.0174110455924
0.130410207307
0.592135402479
0.154808810741
0.039161581007
0.00998245906541
0.0049962939913
0.00228739135169
0.000814596602525
0.000258920843653
6.94780230723e-05
1.59526081861e-05
3.70292547801e-06
7.59890675391e-07
1.29620145097e-07
1.78733456873e-08
2.00697869321e-09
1.97422506268e-10
2.11705293968e-11
5.12721365464e-12
0.0120555060659
0.0865779020738
0.383324354089
0.281927701332
0.0708551268078
0.0150133019904
0.00614685228516
0.00298572196192
0.00110762142795
0.000363776792005
0.000103431833272
2.46966255949e-05
5.95601271178e-06
1.28475651376e-06
2.34832579407e-07
3.49315569076e-08
4.30097680893e-09
4.77996717187e-10
5.95058638596e-11
1.39782507291e-11
0.00873262907301
0.0592729226722
0.256335219212
0.532018279612
0.130763153243
0.0266618380803
0.00848115093601
0.00406102910443
0.00151621734824
0.000493811443391
0.000146499890975
3.65856498657e-05
9.12219499996e-06
2.04764012463e-06
3.99171580834e-07
6.43237903974e-08
8.81655836909e-09
1.12954353621e-09
1.63992427317e-10
3.73180494321e-11
0.00652476510142
0.0416232159334
0.176895355542
0.700199279095
0.237520855384
0.0516287566724
0.0133561314431
0.00569088493262
0.00208194456924
0.00065590675957
0.00019938975506
5.2218870304e-05
1.34195877585e-05
3.11133764983e-06
6.42163972787e-07
1.13218739359e-07
1.76360149933e-08
2.64614600169e-09
4.4410559032e-10
9.79727754634e-11
0.00497327801927
0.0296696572391
0.124151222722
0.489672348561
0.437568270541
0.103557595016
0.0237407522649
0.00831097452118
0.00287701690712
0.00086418335771
0.000263506650127
7.20864274365e-05
1.90739206167e-05
4.54131587327e-06
9.90899901809e-07
1.94119255422e-07
3.51503922641e-08
6.20264882424e-09
1.17970126963e-09
2.53058595232e-10
0.003896261285
0.0215810045602
0.0881864780191
0.338388687752
0.873634123828
0.20912399773
0.0473136305042
0.0132958169668
0.00413979237283
0.00116636209375
0.000343617235437
9.68788491099e-05
2.64012070639e-05
6.43196304135e-06
1.49593842498e-06
3.31221187011e-07
7.09673302138e-08
1.45662025989e-08
3.06072902538e-09
6.38310996481e-10
0.00310002844895
0.0157836078846
0.0622244224875
0.2306193995
0.875677976177
0.420884930628
0.103700911055
0.0248118242542
0.006569330727
0.00170044967854
0.000455948514048
0.000127288710237
3.5370188702e-05
8.87611945779e-06
2.24533441479e-06
5.75797798964e-07
1.46329214182e-07
3.41642476032e-08
7.73929233438e-09
1.56933245757e-09
0.00248777788292
0.0115966490255
0.0436108846564
0.154543589917
0.55477624492
0.87808440641
0.229339059335
0.0510843003197
0.011474000447
0.0027391768633
0.000634807163
0.000164542189666
4.55598528418e-05
1.20216930828e-05
3.41567960508e-06
1.03589320643e-06
3.08409685507e-07
8.00348912789e-08
1.92350806973e-08
3.81347505509e-09
0.00199395405234
0.00847398688831
0.0300699631891
0.10088478635
0.339962411676
1.17232887661
0.460630734987
0.106410040302
0.0203895436095
0.00452855366456
0.000915246620142
0.00020829914255
5.67308997268e-05
1.632688752e-05
5.40202845841e-06
1.94546873389e-06
6.65171578924e-07
1.89264723257e-07
4.80017748841e-08
9.50557555245e-09
0.00154857377078
0.00600613717538
0.0199823127625
0.0631811174562
0.200751056708
0.664845370703
0.807218881168
0.198077777169
0.0350259659291
0.0069453222335
0.0012493546798
0.000250253421427
6.888663031e-05
2.29325872779e-05
9.09924553005e-06
3.84559790673e-06
1.48571012188e-06
4.64545596985e-07
1.26581595573e-07
2.60865599507e-08
0.00114659793259
0.00407866217889
0.0127888591847
0.0385769876339
0.119134936815
0.390925700081
1.2874809081
0.313191210597
0.0506778585661
0.00910461029473
0.0015216595328
0.000279826037639
8.32872781762e-05
3.41811811221e-05
1.65718768307e-05
8.05817286383e-06
3.50244345839e-06
1.22587158038e-06
3.6833492814e-07
8.33814614927e-08
0.000821324922984
0.00272271657714
0.00824281951865
0.0247278170812
0.0781361838333
0.263439933571
1.05567908872
0.401661825777
0.0594554209084
0.00971804410043
0.0014961633576
0.000291869313303
0.000107469779738
5.64701553208e-05
3.28272023368e-05
1.81876277905e-05
8.94213991216e-06
3.5574571592e-06
1.21106443012e-06
3.05143207833e-07
0.000631474469623
0.00207997204593
0.00661738462302
0.0218574471247
0.0764427051824
0.274092003535
1.13518738536
0.370915916457
0.0571893014046
0.00874413048367
0.0012346137698
0.000319772105083
0.000165333508135
0.000108673339653
7.2372357955e-05
4.44981004039e-05
2.44005408095e-05
1.09936751338e-05
4.22342362451e-06
1.15314644544e-06
0.000674900875796
0.00244218364886
0.00888138974774
0.0333399266881
0.12605029958
0.46885827434
1.27136989408
0.257671522911
0.0422438180447
0.00579103813791
0.00102562291274
0.000450738061878
0.000322248006243
0.0002467006656
0.000179748848438
0.000118124704093
6.96336141436e-05
3.44244747911e-05
1.44762510873e-05
4.1754279269e-06
0.00112491352768
0.00442133044674
0.0173234444186
0.0679426084279
0.247000038189
0.860812662657
0.782818316207
0.148388085801
0.0238068570769
0.00341929896357
0.00118874000159
0.000877573197275
0.000759649967086
0.000633453084966
0.000487368834036
0.000331155936107
0.000200462589624
0.00010325635533
4.54598954066e-05
1.36849084947e-05
0.00215933791849
0.00852655725592
0.0332923362186
0.125423419416
0.427625166933
1.51022397338
0.425914653635
0.0739022516443
0.0112635882426
0.00284233033
0.00210175973043
0.00206464231816
0.00195281439999
0.00170669614005
0.00135786827651
0.000945313396317
0.000573921521943
0.000296036410342
0.000130894574085
4.0891426433e-05
0.00379061027675
0.0141909088955
0.0513911275128
0.175829528501
0.580232945353
1.19913579258
0.247287741886
0.0412694657533
0.00797670587532
0.0043907488288
0.00474934642651
0.00516770824478
0.00502554417776
0.0044696217511
0.00361699529034
0.00258341227963
0.00158103647532
0.000806798463683
0.000345516165453
0.000109940691172
0.00585631516164
0.0201227205385
0.0655270815226
0.200540859528
0.666144940643
0.847711526376
0.184283511122
0.0353267910615
0.0111836928173
0.00991249945672
0.0118761128537
0.0128833324151
0.0124730797139
0.0110377884644
0.00897975513462
0.00655388715686
0.00409854780123
0.0021115612959
0.000873529888641
0.000272838060925
0.00798167913586
0.0246196971775
0.071511959283
0.202421141101
0.673512374216
0.763602957501
0.206774861488
0.0551692716885
0.0262642755559
0.0265071270189
0.0303547546728
0.0314410226661
0.0296610489426
0.0257376650558
0.020722603985
0.0152083103289
0.00979576711904
0.00516831716738
0.00206171368299
0.000605864884008
0.00951640797624
0.0262456333827
0.0692241719097
0.186623209414
0.598643257728
0.839785426601
0.29305686866
0.114771651375
0.0748516009432
0.0742866128939
0.0766844865018
0.0742385089554
0.0669955685183
0.0561274238536
0.0436648808369
0.0315259019621
0.0205429289957
0.0112415738815
0.00459331537589
0.00124166184157
0.00983413624289
0.0247482741858
0.0610966295791
0.157224929582
0.457590795374
1.12592221302
0.545275687356
0.321236752942
0.25379040638
0.226121065374
0.201290148417
0.173829385434
0.142906478315
0.110225293375
0.079492520532
0.0536667265809
0.0342699442657
0.0193732632323
0.00825698543985
0.00208369831468
0.00896589721045
0.0212324746854
0.0499344196778
0.120830632227
0.309679907067
0.816999169708
1.27466022413
0.975936600977
0.813099364975
0.639266267897
0.476080051508
0.34405004128
0.244615988073
5.12454202575e-16
1.21495434041e-15
1.43844333008e-15
1.93141000495e-15
3.93551036113e-15
3.68284119153e-15
1.26134272313e-14
8.48522717879e-15
3.73746163493e-14
2.01069376915e-14
1.00861084959e-13
4.7722804166e-14
2.55127349021e-13
1.1217039369e-13
6.22425474482e-13
2.62127883323e-13
1.49050930904e-12
6.10456389032e-13
3.54210689579e-12
1.42666620814e-12
8.40221054471e-12
3.37070224178e-12
1.99973999948e-11
8.14625675943e-12
4.78727724747e-11
2.05571303555e-11
1.17594052949e-10
5.65030646908e-11
3.05291287168e-10
1.76715761845e-10
8.91632327283e-10
6.34381150994e-10
2.98023118921e-09
2.45442103316e-09
1.10741304854e-08
9.50649365296e-09
4.1945060888e-08
3.48950192489e-08
1.52356117089e-07
1.18692197737e-07
5.1138574042e-07
3.70567329519e-07
1.56352293973e-06
1.05591875183e-06
4.41953308766e-06
2.77242258989e-06
1.12145095995e-05
6.60215873346e-06
2.6165359012e-05
1.44145519961e-05
5.35701253724e-05
2.74738964067e-05
9.87066305659e-05
4.56540536259e-05
0.000145130257188
5.70959200156e-05
)
;

boundaryField
{
    inletfuel
    {
        type            zeroGradient;
    }
    inletair
    {
        type            zeroGradient;
    }
    outlet
    {
        type            zeroGradient;
    }
    axis
    {
        type            empty;
    }
    leftside
    {
        type            zeroGradient;
    }
    burnerwall
    {
        type            zeroGradient;
    }
    front
    {
        type            wedge;
    }
    back
    {
        type            wedge;
    }
    procBoundary0to1
    {
        type            processor;
        value           nonuniform List<scalar> 
27
(
0.000240937452318
0.000742674483597
0.00132321231354
0.00173211211177
0.170617167469
0.115561995474
0.075086036812
0.0462403602976
0.0261199339252
0.0112921752157
0.00284523756785
0.00774053954959
0.017369799225
0.0385747107543
0.0861093208433
0.193729980536
0.42650193371
0.772440790497
1.07937461153
1.32711602934
1.20255692436
0.751293858689
0.486851314892
0.170617167469
0.319913509475
0.000185708861425
5.21503333301e-05
)
;
    }
}


// ************************************************************************* //
