/*--------------------------------*- C++ -*----------------------------------*\
  =========                 |
  \\      /  F ield         | OpenFOAM: The Open Source CFD Toolbox
   \\    /   O peration     | Website:  https://openfoam.org
    \\  /    A nd           | Version:  7
     \\/     M anipulation  |
\*---------------------------------------------------------------------------*/
FoamFile
{
    version     2.0;
    format      ascii;
    class       volScalarField;
    location    "0.05";
    object      ed::R_H2O;
}
// * * * * * * * * * * * * * * * * * * * * * * * * * * * * * * * * * * * * * //

dimensions      [1 -3 -1 0 0 0 0];

internalField   nonuniform List<scalar> 
814
(
4.65225138942e-07
5.58556894396e-07
5.29370940446e-07
4.8515291229e-05
7.26878591719e-05
0.000285022797193
0.00241767104713
0.00535670512507
0.0488588025361
0.0818433612823
0.366760461733
10.7906876344
0.560240550395
2.44055263376
33.3687113696
0.703465964175
2.34823163197
15.2303581979
0.717850383188
1.84005962163
6.74025190999
0.632934348403
1.26162938224
3.00595666866
0.496027133812
0.792177482339
1.37888471
0.354008939007
0.472932712004
0.664505747245
0.234226454109
0.274604916809
0.34319510796
0.146530515423
0.158303358752
0.191890339236
0.0884110842186
0.0926463582688
0.116951785566
0.05287837694
0.0564568213245
0.0778719469693
0.0324909310099
0.0368765967239
0.0566695670347
0.0215252359549
0.0265322059562
0.0447734744621
0.0160935967303
0.0213070959211
0.0377443662519
0.0137089772749
0.0187251758188
0.0330259559304
0.0127757084839
0.0172667450839
0.0291610222804
0.0121317631456
0.0158529451673
0.0250686677495
0.0111730388974
0.0139419212398
0.0205054134141
0.00969217663084
0.0115962483481
0.0159315796321
0.00834069393357
0.00964913866904
0.0126298754589
0.00843991567877
0.00967804035209
0.012535638053
0.0125891259111
0.0144281951199
0.0188756888277
0.0233888013722
0.0267821694527
0.0348207590677
0.043488901899
0.0489391226006
0.0622276610309
0.0731042038229
0.081272642408
0.100164668345
0.112654943439
0.122446816804
0.145773955185
0.151301157952
0.162172472486
0.186251180633
0.175041857775
0.184001968493
0.20492107513
0.169786687477
0.177077059493
0.192721366632
8.80634628006
141.236904135
40.2841912445
13.0078206212
4.78831949901
2.00763469469
0.969499139386
0.535196065592
0.327063029337
0.217535009025
0.154255980327
0.116074512508
0.0916370932876
0.0746413400748
0.0616066635569
0.0506735380127
0.0404428648935
0.0307325532947
0.022422123068
0.0170653885557
0.0169924223704
0.0260776217918
0.0480229913751
0.0836067709833
0.130289970816
0.181571509834
0.22272567203
0.235371890262
0.215669613568
0.00105243949634
0.000273955445919
0.000173809612451
9.63328625601e-05
4.7286969675e-05
2.06659423001e-05
6.22532945171e-06
1.63248630306e-06
3.97682984383e-07
8.83757445807e-08
1.77040600629e-08
3.12925221075e-09
4.78467291044e-10
6.21379417405e-11
6.7225888635e-12
5.95787199375e-13
4.26647917304e-14
2.41500332713e-15
1.09560372321e-16
6.85139854268e-18
0.0701048360137
0.016995443279
0.00678689923523
0.00278534187101
0.00107272148136
0.000269699162613
6.67166127531e-05
1.53328217743e-05
3.32316313368e-06
6.61388588609e-07
1.21073309256e-07
1.98093033894e-08
2.82573759416e-09
3.45317905794e-10
3.53050798527e-11
2.99248306137e-12
2.0443727151e-13
1.11686244378e-14
4.92259062798e-16
2.81172735918e-17
0.563292591395
0.160603879899
0.059550778102
0.0144524305216
0.00411375917811
0.00106500252919
0.00027165269935
6.06904814733e-05
1.25820995694e-05
2.36603439601e-06
4.18382681571e-07
6.63268391787e-08
9.1315581417e-09
1.07439196787e-09
1.0562654237e-10
8.66802884868e-12
5.73314022803e-13
3.07232963763e-14
1.31988055646e-15
7.00744610371e-17
12.4009066688
2.12722093297
0.196220008274
0.0487567429752
0.0173765489976
0.00466660670839
0.00124053702944
0.000260073871106
4.93335024387e-05
8.58451350744e-06
1.47085265116e-06
2.30330849983e-07
3.13668686321e-08
3.64836888992e-09
3.54919101174e-10
2.87402214443e-11
1.87476737309e-12
9.98840060866e-14
4.23487005758e-15
3.39323692947e-16
147.656591183
36.4853572614
3.16805542449
0.311004830768
0.0605972480049
0.0182033581455
0.00529869275222
0.00110571134793
0.00018737526073
2.83942668456e-05
4.59702154076e-06
7.21987421967e-07
9.97522990802e-08
1.1733940396e-08
1.15264101927e-09
9.40410369726e-11
6.18932211677e-12
3.35362539575e-13
1.48837915259e-14
1.86060490672e-15
47.9872674326
35.9348148748
3.07985178827
0.514158355698
0.119363372193
0.0447030843751
0.014845378616
0.00333471302104
0.000544847463218
7.7629495438e-05
1.21758961359e-05
1.96335362488e-06
2.82823069174e-07
3.45123932972e-08
3.49784113544e-09
2.93273015737e-10
1.9850702473e-11
1.1142700588e-12
5.41363883712e-14
8.73492919811e-15
15.2534179467
39.4000335054
3.0245979476
0.619322935651
0.170677329
0.07233072407
0.027378280817
0.00674059641559
0.00115887270896
0.000172655469536
2.80331225097e-05
4.68110433797e-06
7.10950078126e-07
9.15606270697e-08
9.7390150083e-09
8.5231321098e-10
6.02056793111e-11
3.54968473665e-12
1.92008216628e-13
3.59101893475e-14
6.27618567161
22.3802364606
4.49649733126
0.769026795428
0.21336383802
0.0884042940169
0.0368005641345
0.00996421507244
0.0019266763488
0.000328627728446
5.71535562898e-05
9.78145920331e-06
1.57786571136e-06
2.17091910206e-07
2.45277218533e-08
2.26588153314e-09
1.68919022233e-10
1.05804605503e-11
6.40996840722e-13
1.29331738564e-13
3.17391878113
13.9211866906
7.24702962199
1.1176730246
0.269581784937
0.0939854605767
0.0409412266957
0.0122386341191
0.00275117406184
0.000554811315321
0.000103943451156
1.81951770088e-05
3.11357431682e-06
4.59544586601e-07
5.55970454322e-08
5.46920788233e-09
4.34424762065e-10
2.92480056472e-11
1.99408274474e-12
4.12892266785e-13
1.86577094982
8.78036552038
12.3727508689
1.85634747949
0.382228087433
0.100190829043
0.0429869460575
0.0141613850753
0.00365395516951
0.000849941903096
0.000171335016549
3.08004896184e-05
5.55611325764e-06
8.77186756569e-07
1.14088460777e-07
1.20250228372e-08
1.02656536181e-09
7.53161676439e-11
5.82592887509e-12
1.19829442178e-12
1.19509472739
5.5306120365
17.1025799557
3.22625699387
0.612839098369
0.12001238025
0.0467596994414
0.0168352005055
0.00475628974115
0.00120848310373
0.000260934023622
4.84821672225e-05
9.15131284693e-06
1.53358100658e-06
2.14398801789e-07
2.43061808478e-08
2.25012092177e-09
1.82917677823e-10
1.62444361537e-11
3.26408679959e-12
0.797043161088
3.53476359258
10.646858556
5.63570382288
1.06228809063
0.173058412423
0.055215693712
0.0211106247472
0.00621632090343
0.00163251449992
0.000373553069913
7.21821302715e-05
1.41560741657e-05
2.49360105851e-06
3.73558913193e-07
4.5685646331e-08
4.63747046785e-09
4.25926692873e-10
4.39120128285e-11
8.55817948106e-12
0.55593828698
2.32997547193
6.84943481009
10.2102141845
1.87812897528
0.294511504819
0.0730930940766
0.0275778145564
0.00817839157877
0.00213060873048
0.00050878706066
0.000102834719307
2.08513427192e-05
3.82216996096e-06
6.10676466943e-07
8.09066796662e-08
9.14248100084e-09
9.67974232448e-10
1.1638524464e-10
2.1973296938e-11
0.399870217679
1.57551908922
4.54859647633
12.9148578188
3.26927744155
0.546320699095
0.110398962971
0.0371089146034
0.0107916062319
0.00272067044849
0.000665865465785
0.000141152003802
2.94998229309e-05
5.58538627278e-06
9.44817980054e-07
1.36956259738e-07
1.75879925559e-08
2.1808480089e-09
3.03117306449e-10
5.5479003523e-11
0.293337440257
1.0815414232
3.07276578132
8.68588298372
5.77547623959
1.049494312
0.188135721746
0.0520248206934
0.0143287192332
0.00344588009037
0.000846142923402
0.000187385505679
4.03239541956e-05
7.84037220785e-06
1.40211073028e-06
2.25830607304e-07
3.37129405374e-08
4.91631108457e-09
7.74366512761e-10
1.37812999378e-10
0.221115569694
0.757668362699
2.10134962052
5.77476416062
11.0686554018
2.02951939233
0.359252976949
0.0798663120983
0.0198064178398
0.00447045536855
0.00106091261384
0.000242172760654
5.36767201379e-05
1.06793805804e-05
2.03570998602e-06
3.70580413678e-07
6.54598739528e-08
1.11034679232e-08
1.93218536593e-09
3.34307091618e-10
0.169239566681
0.53373809491
1.42788786499
3.78780369255
10.6632899649
3.91219310231
0.753790839575
0.142922255128
0.030184351948
0.00626409528557
0.00135349152724
0.000305978006486
6.91566148441e-05
1.41732999875e-05
2.93853986051e-06
6.19560302488e-07
1.29806707627e-07
2.50457141333e-08
4.69865292335e-09
7.90441440475e-10
0.130640242238
0.377745006395
0.964006613827
2.44384593195
6.49783273075
7.82478173771
1.59469361291
0.281903804998
0.050608020701
0.00969671755874
0.00181173644996
0.00038033894004
8.56656453554e-05
1.84609864955e-05
4.29905962933e-06
1.07195336791e-06
2.63112705749e-07
5.64271976825e-08
1.12308372595e-08
1.8471950022e-09
0.100716260804
0.265891526071
0.640420552337
1.53649286668
3.83193551414
10.0329721913
3.06458789683
0.561962519435
0.0862819721471
0.015402970733
0.00251120670239
0.000462980040364
0.000102579980034
2.41116414753e-05
6.53873716928e-06
1.93610406675e-06
5.45747765048e-07
1.28328517526e-07
2.69536451232e-08
4.42792627309e-09
0.075244367483
0.181537880395
0.410101891449
0.927040471723
2.17849086036
5.47071436086
5.14543426191
1.00094513516
0.142141882276
0.0226950625649
0.00329542393373
0.00053483876312
0.000119778884404
3.25683987789e-05
1.05918762908e-05
3.68047925232e-06
1.17227823063e-06
3.02914792014e-07
6.83543350905e-08
1.16857973884e-08
0.0536001003397
0.118748705974
0.252921664517
0.545349179039
1.2448290815
3.09445008967
7.87759027253
1.51632666226
0.197311779383
0.0285860436775
0.00385848914567
0.000575009437566
0.000139250908872
4.66793724633e-05
1.85502637398e-05
7.41649825264e-06
2.65763231042e-06
7.6871593221e-07
1.91277102874e-07
3.59182880161e-08
0.0369409075409
0.0763429270942
0.15704429235
0.336702148411
0.785983477554
2.00623025347
6.20795391814
1.86711907297
0.222418267115
0.02933000716
0.00364719984501
0.000576598736656
0.000172753764879
7.41490899834e-05
3.53335315162e-05
1.609656989e-05
6.52487802259e-06
2.14522747392e-06
6.04778232476e-07
1.26396377099e-07
0.0273226314282
0.0561393324572
0.121375327989
0.286441975962
0.739763106621
2.00762536365
6.42062442907
1.66010946896
0.205897820658
0.0253753471223
0.00289298732391
0.000607198393799
0.00025546254933
0.000137174805513
7.48915606735e-05
3.78654632198e-05
1.71199222316e-05
6.37475678831e-06
2.0280578668e-06
4.59278402406e-07
0.0280802059264
0.0634010844731
0.156665353124
0.420022344064
1.17239530714
3.30191885932
6.92643805736
1.11345309677
0.146519969484
0.0161598530122
0.00230931785558
0.000822314227632
0.000478414988722
0.00029924602981
0.00017877370207
9.66252618171e-05
4.69706458906e-05
1.91925343213e-05
6.68387925895e-06
1.59891667835e-06
0.0449739998739
0.1102899324
0.29352581586
0.821892106625
2.20679161007
5.82941102426
4.11579491938
0.619457466583
0.0795066041675
0.00916866741589
0.00257004139728
0.00153705967304
0.00108282230889
0.000737891127065
0.000465620614425
0.00026028531998
0.000129964116904
5.53416122432e-05
2.01796816615e-05
5.03812446968e-06
0.0828799812469
0.204155447028
0.541298196545
1.45611249008
3.67030382201
9.84010183192
2.1631278052
0.29754972604
0.0361672372527
0.00731474687505
0.00435790508764
0.00346745272605
0.00266929427183
0.00190701567352
0.00124490717633
0.000713385400693
0.000357433353413
0.00015248048645
5.58537242645e-05
1.44719304884e-05
0.139561217464
0.325903669747
0.801548923569
1.95957943767
4.78563974575
7.52377409742
1.21110303733
0.159808278349
0.0245763659702
0.0108272466871
0.00942894876173
0.00830710766466
0.00657513601981
0.00478190792121
0.00317699185601
0.00186933187591
0.000944983353801
0.000399138740949
0.000141685885133
3.74002590013e-05
0.206734075657
0.443196397875
0.980722735405
2.14666136092
5.28094991445
5.11993820848
0.867920664945
0.131249347607
0.0330022717962
0.0233833966767
0.0225362577079
0.0197849972978
0.0155869732812
0.0112813477375
0.00753914041637
0.00453749722246
0.00234718288448
0.00100234630603
0.00034408065613
8.92031126765e-05
0.270181419698
0.520229235987
1.02766648859
2.0821800369
5.13325116781
4.43442071245
0.934405658062
0.196304403426
0.0741290748007
0.0597459857069
0.0549958468565
0.0460777792807
0.0353617354803
0.0250932393666
0.0165989441809
0.0100520183396
0.0053630873451
0.00235030038039
0.000779504711482
0.000190335529852
0.309055381657
0.532411677405
0.955723519469
1.84539472778
4.38726697578
4.68535441464
1.26955250898
0.390797175767
0.201950452116
0.159958692028
0.132694365614
0.103902960228
0.076272162517
0.0522447210838
0.0333839299014
0.0198845549264
0.01073662085
0.00488854374498
0.00166517687014
0.000374717360984
0.306624818519
0.482270194784
0.810770965742
1.49497995145
3.22522944681
6.03376838823
2.26444986017
1.0469190357
0.654999558058
0.465794744683
0.333335131561
0.232900838272
0.155777181991
0.0982336087552
0.0581723930267
0.032381551826
0.0171222145073
0.00805470751599
0.00286825250685
0.000604011704462
0.268578593165
0.397682719814
0.637163885888
1.10508246033
2.09967753789
4.20854949892
5.07975261312
3.04874805605
2.01110738305
1.26244538205
0.756268182934
0.4424681813
0.256087738435
1.87872207836e-15
4.36457904251e-15
5.07348758684e-15
6.67456721015e-15
1.33520563184e-14
1.22424964289e-14
4.11598490984e-14
2.71291583919e-14
1.17297058598e-13
6.18276650625e-14
3.04432266576e-13
1.41128650214e-13
7.40581291016e-13
3.19015154278e-13
1.73758413335e-12
7.16940376268e-13
4.00156992544e-12
1.60566065844e-12
9.14510200477e-12
3.60862820315e-12
2.08614398675e-11
8.19879715331e-12
4.77462025499e-11
1.90539291817e-11
1.09914894973e-10
4.62348176308e-11
2.59621852209e-10
1.22190941361e-10
6.48096792885e-10
3.67433867107e-10
1.81995157276e-09
1.26813225836e-09
5.84853590572e-09
4.71676117072e-09
2.0893102699e-08
1.75616019058e-08
7.60745744661e-08
6.19616751561e-08
2.65615632625e-07
2.02565867917e-07
8.56941579387e-07
6.07813887625e-07
2.51826780004e-06
1.66448273692e-06
6.84183130736e-06
4.20008166861e-06
1.66867832674e-05
9.61270698242e-06
3.7420819884e-05
2.0171497177e-05
7.36341696164e-05
3.69521415027e-05
0.000130391898234
5.90177510075e-05
0.000184241479156
7.09405773641e-05
)
;

boundaryField
{
    inletfuel
    {
        type            calculated;
        value           uniform 0;
    }
    inletair
    {
        type            calculated;
        value           uniform 0;
    }
    outlet
    {
        type            calculated;
        value           nonuniform 0();
    }
    axis
    {
        type            empty;
    }
    leftside
    {
        type            calculated;
        value           uniform 0;
    }
    burnerwall
    {
        type            calculated;
        value           uniform 0;
    }
    front
    {
        type            wedge;
    }
    back
    {
        type            wedge;
    }
    procBoundary0to1
    {
        type            processor;
        value           uniform 0;
    }
}


// ************************************************************************* //
