/*--------------------------------*- C++ -*----------------------------------*\
  =========                 |
  \\      /  F ield         | OpenFOAM: The Open Source CFD Toolbox
   \\    /   O peration     | Website:  https://openfoam.org
    \\  /    A nd           | Version:  7
     \\/     M anipulation  |
\*---------------------------------------------------------------------------*/
FoamFile
{
    version     2.0;
    format      ascii;
    class       volScalarField;
    location    "0.05";
    object      ed::R_O2;
}
// * * * * * * * * * * * * * * * * * * * * * * * * * * * * * * * * * * * * * //

dimensions      [1 -3 -1 0 0 0 0];

internalField   nonuniform List<scalar> 
814
(
-4.13163306328e-07
-4.96050608497e-07
-4.70130759756e-07
-4.30861027355e-05
-6.45535971973e-05
-0.000253126822714
-0.00214711734133
-0.00475725367191
-0.0433911728092
-0.0726845368357
-0.325717490986
-9.58313686728
-0.497545852028
-2.167438324
-29.6345273789
-0.624743375451
-2.08544866534
-13.5259783337
-0.637518080903
-1.63414453234
-5.98597223474
-0.562104723465
-1.12044454028
-2.66956983177
-0.440518350104
-0.703527476063
-1.22457820556
-0.314392949706
-0.420008349949
-0.590143069718
-0.20801493322
-0.24387477345
-0.304789259331
-0.130132761888
-0.140588144599
-0.170416515305
-0.0785172872533
-0.0822786055555
-0.103864091514
-0.0469609297113
-0.05013892202
-0.0691575505854
-0.0288549765652
-0.0327498566891
-0.0503278600495
-0.0191164167887
-0.0235630730574
-0.0397630205164
-0.0142926146487
-0.0189226880968
-0.0335205169508
-0.012174850203
-0.016629702278
-0.0293301285865
-0.0113460204878
-0.0153344797846
-0.0258977070943
-0.0107741369785
-0.0140788936196
-0.0222633146527
-0.0099227004436
-0.0123817261661
-0.0182107192725
-0.0086075566583
-0.0102985499008
-0.0141487283572
-0.00740731399532
-0.00856933493486
-0.0112165071624
-0.00749543215763
-0.00859500232454
-0.0111328155582
-0.0111803177641
-0.0128135827174
-0.0167633718655
-0.0207714366595
-0.0237850639517
-0.0309240811405
-0.0386222002921
-0.0434625045164
-0.0552639658188
-0.0649233500721
-0.0721776852549
-0.0889555659966
-0.100048095017
-0.108744191673
-0.129460865846
-0.134369537323
-0.144024278396
-0.165408416606
-0.155453492621
-0.163410906483
-0.181989023915
-0.150786411345
-0.157260941533
-0.171154545127
-7.82085670178
-125.431541427
-35.7761183868
-11.5521577106
-4.25247423314
-1.78296682385
-0.861005643034
-0.475304014087
-0.290462469172
-0.193191373482
-0.136993695134
-0.103084991231
-0.0813822841367
-0.0662884704041
-0.0547124621529
-0.0450028271392
-0.0359170353836
-0.0272933731827
-0.0199129361812
-0.0151556564107
-0.015090855634
-0.0231593599287
-0.0426488945576
-0.0742506090908
-0.115709643821
-0.16125243255
-0.197801166268
-0.209032187337
-0.191534728365
-0.000934664414318
-0.000243297982735
-0.000154359143865
-8.55525651382e-05
-4.19952386528e-05
-1.83532838928e-05
-5.52867307449e-06
-1.44980006893e-06
-3.53179574671e-07
-7.84859023593e-08
-1.57228562662e-08
-2.77906777064e-09
-4.24923572245e-10
-5.51842867225e-11
-5.97028580235e-12
-5.29114591101e-13
-3.78903136128e-14
-2.1447481572e-15
-9.72998272912e-17
-6.08468080916e-18
-0.0622596317619
-0.0150935384825
-0.00602739940948
-0.00247364331879
-0.000952676708347
-0.000239518006255
-5.92505735496e-05
-1.36169755444e-05
-2.95127875269e-06
-5.8737474217e-07
-1.07524388888e-07
-1.75925086572e-08
-2.50951848791e-09
-3.06674501761e-10
-3.13542031612e-11
-2.65760401206e-12
-1.81559361185e-13
-9.91877999182e-15
-4.37171951665e-16
-2.49707609278e-17
-0.500256349043
-0.142631221904
-0.0528866441546
-0.0128351060141
-0.00365340176442
-0.000945821559011
-0.000241252929047
-5.38988070273e-05
-1.11740777174e-05
-2.10125917994e-06
-3.71562836052e-07
-5.89044182686e-08
-8.10967516141e-09
-9.54160256141e-10
-9.38062194592e-11
-7.6980179244e-12
-5.09156314647e-13
-2.7285152176e-14
-1.17217701499e-15
-6.22326559502e-17
-11.0131615251
-1.88917055504
-0.174261665159
-0.0433005344018
-0.0154319958993
-0.00414438192517
-0.0011017125641
-0.000230969849824
-4.38127505891e-05
-7.62384851346e-06
-1.30625431346e-06
-2.04555273485e-07
-2.78567043532e-08
-3.24009179016e-09
-3.15201258585e-10
-2.55239967116e-11
-1.6649682522e-12
-8.87063117393e-14
-3.76095951916e-15
-3.01351081784e-16
-131.13282217
-32.4023995627
-2.8135286429
-0.276201291392
-0.0538160070132
-0.0161662795239
-0.00470573327507
-0.000981974786211
-0.000166406704554
-2.52167567671e-05
-4.08258380739e-06
-6.41192157124e-07
-8.85893436357e-08
-1.04208332793e-08
-1.02365271063e-09
-8.35172103004e-11
-5.49669520332e-12
-2.97833208206e-13
-1.3218194811e-14
-1.65239066139e-15
-42.6171683653
-31.9134665845
-2.73519558881
-0.456620565903
-0.106005805322
-0.0397005075552
-0.013184080565
-0.0029615361297
-0.000483875355187
-6.89422310166e-05
-1.08133311894e-05
-1.74364110458e-06
-2.51173259105e-07
-3.06502235807e-08
-3.10640910724e-09
-2.60453786126e-10
-1.7629274904e-11
-9.89575719577e-13
-4.80781611736e-14
-7.75743167326e-15
-13.5464575409
-34.9909038654
-2.6861250258
-0.550016519657
-0.151577384071
-0.0642364279234
-0.0243144664315
-0.00598627818784
-0.00102918703219
-0.000153334157331
-2.48960269196e-05
-4.15725717216e-06
-6.31389966544e-07
-8.13143750047e-08
-8.64915350522e-09
-7.56933610844e-10
-5.34682574988e-11
-3.15245105961e-12
-1.70521201422e-13
-3.189159682e-14
-5.57383814018
-19.8757369678
-3.99330893533
-0.68296750725
-0.189486984662
-0.0785112569209
-0.0326823326596
-0.00884915216243
-0.00171106826321
-0.000291852067892
-5.07576876407e-05
-8.68684790838e-06
-1.40129189005e-06
-1.92797860411e-07
-2.17829042528e-08
-2.0123140983e-09
-1.50015843696e-10
-9.39643561255e-12
-5.69264968484e-13
-1.14858644225e-13
-2.81873585036
-12.3633119529
-6.43603810078
-0.992597870543
-0.239413763933
-0.0834678532782
-0.036359627137
-0.0108690483689
-0.00244329911805
-0.000492724184998
-9.23114775101e-05
-1.61590139115e-05
-2.76514433884e-06
-4.08118446128e-07
-4.93753608522e-08
-4.8571666114e-09
-3.85809699478e-10
-2.59749564354e-11
-1.77093142856e-12
-3.66686835733e-13
-1.6569785894
-7.79778336445
-10.9881565493
-1.648609669
-0.339454184987
-0.0889787991358
-0.0381764166967
-0.0125766305174
-0.00324505292736
-0.000754827668315
-0.000152161471945
-2.73537069733e-05
-4.93434668874e-06
-7.79023638823e-07
-1.01321192091e-07
-1.06793416309e-08
-9.1168577006e-10
-6.68877802141e-11
-5.17396811774e-12
-1.0641971893e-12
-1.06135556231
-4.91169922633
-15.188685842
-2.8652170639
-0.544258267523
-0.106582184998
-0.0415269735166
-0.0149512279568
-0.00422402882134
-0.00107324568899
-0.000231733745468
-4.30566855289e-05
-8.12721918182e-06
-1.36196294259e-06
-1.90406129e-07
-2.15861551809e-08
-1.9983172057e-09
-1.62447955256e-10
-1.44265741227e-11
-2.89881345906e-12
-0.707848652524
-3.13919969225
-9.45540323338
-5.00503053261
-0.943410884447
-0.15369200819
-0.0490366849631
-0.0187482033731
-0.00552067264356
-0.00144982511037
-0.00033174996047
-6.41044627738e-05
-1.25719139344e-05
-2.21455027202e-06
-3.31755149849e-07
-4.05731141974e-08
-4.11850622657e-09
-3.78262621579e-10
-3.89979622532e-11
-7.60046144234e-12
-0.493725040923
-2.0692354928
-6.0829368315
-9.06762231371
-1.66795366841
-0.261553679921
-0.0649134835814
-0.0244916709989
-0.00726317436931
-0.00189217923515
-0.000451850355028
-9.13268202373e-05
-1.85179367538e-05
-3.39444334845e-06
-5.42337649148e-07
-7.18526762136e-08
-8.1193756789e-09
-8.59651383472e-10
-1.03360950341e-10
-1.95143367241e-11
-0.355122041801
-1.39920787076
-4.03957783447
-11.4695980731
-2.90342323315
-0.485183726027
-0.098044573988
-0.0329561766302
-0.00958395266755
-0.00241620906489
-0.000591350626578
-0.000125356142014
-2.61985936657e-05
-4.96034385593e-06
-8.39086471991e-07
-1.21629930026e-07
-1.56197774965e-08
-1.93679639928e-09
-2.69196434274e-10
-4.92705286292e-11
-0.260511001108
-0.960509639172
-2.72890255386
-7.71387406125
-5.12916147263
-0.932048815988
-0.16708206485
-0.0462028921689
-0.0127252388537
-0.00306026285377
-0.000751453820086
-0.000166415803024
-3.58114315953e-05
-6.96298164711e-06
-1.24520507743e-06
-2.00558638331e-07
-2.99402349798e-08
-4.36614269653e-09
-6.87709674179e-10
-1.22390794718e-10
-0.196371245249
-0.672880159796
-1.86619441704
-5.12852908011
-9.8299981656
-1.80240247614
-0.319050144413
-0.0709287327975
-0.0175899460201
-0.00397018124398
-0.000942189332793
-0.000215071994437
-4.76699329177e-05
-9.48428582375e-06
-1.80790030062e-06
-3.29109964529e-07
-5.81344723022e-08
-9.86091493097e-09
-1.71596078415e-09
-2.96895871998e-10
-0.150300517058
-0.474009200164
-1.26809757681
-3.3639228974
-9.46999585671
-3.47439229276
-0.669436557677
-0.126928290269
-0.0268065192662
-0.00556310074993
-0.00120202669132
-0.00027173700267
-6.14175229403e-05
-1.25872120705e-05
-2.60969741942e-06
-5.50227323543e-07
-1.15280461044e-07
-2.2242929701e-08
-4.17284195241e-09
-7.01985709e-10
-0.116020717507
-0.335472790971
-0.856127768151
-2.17036307989
-5.77068139762
-6.9491358558
-1.41623663585
-0.250356866793
-0.0449446416568
-0.00861158942572
-0.00160899091472
-0.000337776445936
-7.60790815264e-05
-1.63950775228e-05
-3.81796584464e-06
-9.51994551979e-07
-2.33668618363e-07
-5.01126134635e-08
-9.97403077898e-09
-1.64048141568e-09
-0.0894454315372
-0.236136469938
-0.568753170659
-1.36454894589
-3.40311607033
-8.91021489565
-2.72163982983
-0.499075121112
-0.0766264371908
-0.0136792743612
-0.00223018572554
-0.000411169449431
-9.11005880082e-05
-2.1413386077e-05
-5.80700835343e-06
-1.71944095591e-06
-4.84674907165e-07
-1.13967690391e-07
-2.39373503375e-08
-3.93241144132e-09
-0.0668240149758
-0.161222566472
-0.364208722227
-0.823298386814
-1.93470303156
-4.85850450482
-4.56962544409
-0.88893261967
-0.126235246406
-0.0201553319065
-0.00292664375641
-0.000474986696173
-0.000106374818913
-2.89237751681e-05
-9.40657385467e-06
-3.26860878631e-06
-1.04109238552e-06
-2.6901658257e-07
-6.07050237053e-08
-1.03780777991e-08
-0.0476018873919
-0.105459924401
-0.224618023418
-0.484320925621
-1.10552430656
-2.74816024177
-6.99603475919
-1.34663947583
-0.175231259713
-0.0253870724773
-0.00342669817129
-0.000510662001057
-0.000123667792436
-4.14556356694e-05
-1.64743640411e-05
-6.58654204801e-06
-2.36022531988e-06
-6.82691431724e-07
-1.69871904231e-07
-3.18987891929e-08
-0.0328069706917
-0.0677996383528
-0.139469976224
-0.299022905773
-0.698026622214
-1.78171954909
-5.51324198039
-1.65817584847
-0.197528162037
-0.0260477814255
-0.00323905356926
-0.000512073446853
-0.000153421452762
-6.58513064199e-05
-3.13794708915e-05
-1.42952550918e-05
-5.79470013879e-06
-1.90516204254e-06
-5.37099466922e-07
-1.12251769517e-07
-0.0242650445849
-0.0498569622995
-0.107792609687
-0.254387185801
-0.656978622706
-1.78295853702
-5.70211322594
-1.47433201615
-0.182856465027
-0.022535674534
-0.00256924251907
-0.00053924879586
-0.000226874566074
-0.000121824019054
-6.65106896292e-05
-3.36280623508e-05
-1.52040874002e-05
-5.66137848371e-06
-1.80110450518e-06
-4.07882049742e-07
-0.0249378413843
-0.0563060752589
-0.139133442855
-0.373019009247
-1.04119636037
-2.932411856
-6.15132289574
-0.988850181112
-0.13012339611
-0.0143514564055
-0.00205088960313
-0.000730291716181
-0.000424877122905
-0.000265758379615
-0.000158767718356
-8.58122429452e-05
-4.17143136345e-05
-1.70447602102e-05
-5.93590806378e-06
-1.41998711177e-06
-0.0399411057815
-0.0979477446741
-0.260678296209
-0.729916833363
-1.95983673639
-5.17706059093
-3.6552096925
-0.55013599567
-0.0706092786117
-0.00814263165739
-0.00228243642103
-0.0013650523228
-0.000961647185109
-0.000655316130295
-0.000413514525435
-0.000231157636141
-0.000115420255161
-4.91485123609e-05
-1.79214391012e-05
-4.47432434179e-06
-0.0736051520307
-0.181309074765
-0.480723275406
-1.29316367588
-3.25957205532
-8.7389280311
-1.92105920595
-0.264251903684
-0.0321198793299
-0.00649617733624
-0.00387022609905
-0.00307942136594
-0.0023705822291
-0.00169360775018
-0.00110559366206
-0.000633552760081
-0.00031743414903
-0.000135416891003
-4.9603315591e-05
-1.28524238031e-05
-0.123943375402
-0.289432849744
-0.711850189777
-1.74028927439
-4.25009436236
-6.68181300181
-1.07557243434
-0.141924653537
-0.0218261047648
-0.00961560471523
-0.00837378576413
-0.00737748625655
-0.00583933392695
-0.00424678015417
-0.00282146502742
-0.00166014102383
-0.0008392333393
-0.000354472422253
-0.00012583027842
-3.32149176238e-05
-0.183599137448
-0.393599730046
-0.870973242916
-1.90643546791
-4.68997598059
-4.5469825711
-0.770794485384
-0.116561659875
-0.0293090948667
-0.020766636786
-0.0200142983847
-0.0175709225813
-0.0138426857825
-0.0100188887936
-0.00669545972596
-0.00402972066201
-0.00208451727977
-0.000890176990063
-0.000305575708684
-7.92206823817e-05
-0.239946295517
-0.462012073718
-0.91266367332
-1.8491700392
-4.55880572044
-3.93817910908
-0.829839359097
-0.174336615924
-0.0658335310712
-0.0530600067111
-0.0488414404543
-0.0409213648237
-0.0314045186417
-0.02228513654
-0.0147414103092
-0.00892712965148
-0.00476292167844
-0.00208728590685
-0.000692272873788
-0.000169035699584
-0.274469998793
-0.472831217729
-0.84877160795
-1.63888260411
-3.89630219377
-4.16103163657
-1.12748101566
-0.347064334508
-0.179350833664
-0.142058234911
-0.117844970615
-0.0922755177908
-0.0677367928094
-0.0463981842216
-0.0296480428543
-0.0176593390394
-0.00953512052093
-0.00434148270962
-0.00147883234094
-0.000332783959514
-0.272311432072
-0.428300905392
-0.720040223196
-1.32768160603
-2.86430450629
-5.35854898676
-2.0110426392
-0.929761730483
-0.581700687253
-0.413669169342
-0.29603268083
-0.20683766274
-0.138344664065
-0.087240605007
-0.0516625096712
-0.0287578376501
-0.0152061231548
-0.00715333138784
-0.00254727569496
-0.000536418718566
-0.23852283609
-0.353179339709
-0.565860947163
-0.981416275384
-1.86470945175
-3.73758440864
-4.51129401506
-2.70757257413
-1.78605089495
-1.1211692242
-0.671636669595
-0.392953005821
-0.227429792299
-1.66848039925e-15
-3.87615319333e-15
-4.5057300875e-15
-5.92763809609e-15
-1.18578711101e-14
-1.08724784601e-14
-3.65537842175e-14
-2.4093222487e-14
-1.04170726163e-13
-5.49087320986e-14
-2.70364241488e-13
-1.2533540185e-13
-6.57705246745e-13
-2.83315205644e-13
-1.54313674276e-12
-6.36709909898e-13
-3.55376724623e-12
-1.42597639497e-12
-8.12170337481e-12
-3.20479835442e-12
-1.85269039631e-11
-7.28129642236e-12
-4.24030802698e-11
-1.6921665921e-11
-9.76146764661e-11
-4.10608295227e-11
-2.30568414891e-10
-1.08516950419e-10
-5.75570388086e-10
-3.26315537754e-10
-1.61628670985e-09
-1.12621970068e-09
-5.19404526908e-09
-4.1889237647e-09
-1.85550235101e-08
-1.55963401383e-08
-6.75613161949e-08
-5.50277455584e-08
-2.3589145083e-07
-1.79897380283e-07
-7.61044033592e-07
-5.39795411774e-07
-2.23645663871e-06
-1.47821588592e-06
-6.07618421203e-06
-3.73006418568e-06
-1.48194196091e-05
-8.53698019983e-06
-3.3233177605e-05
-1.79141705158e-05
-6.53940091169e-05
-3.28169474973e-05
-0.000115800164873
-5.24132663891e-05
-0.000163623614287
-6.30018480153e-05
)
;

boundaryField
{
    inletfuel
    {
        type            calculated;
        value           uniform 0;
    }
    inletair
    {
        type            calculated;
        value           uniform 0;
    }
    outlet
    {
        type            calculated;
        value           nonuniform 0();
    }
    axis
    {
        type            empty;
    }
    leftside
    {
        type            calculated;
        value           uniform 0;
    }
    burnerwall
    {
        type            calculated;
        value           uniform 0;
    }
    front
    {
        type            wedge;
    }
    back
    {
        type            wedge;
    }
    procBoundary0to1
    {
        type            processor;
        value           uniform 0;
    }
}


// ************************************************************************* //
