/*--------------------------------*- C++ -*----------------------------------*\
  =========                 |
  \\      /  F ield         | OpenFOAM: The Open Source CFD Toolbox
   \\    /   O peration     | Website:  https://openfoam.org
    \\  /    A nd           | Version:  7
     \\/     M anipulation  |
\*---------------------------------------------------------------------------*/
FoamFile
{
    version     2.0;
    format      ascii;
    class       volScalarField;
    location    "0.05";
    object      ed::R_H2;
}
// * * * * * * * * * * * * * * * * * * * * * * * * * * * * * * * * * * * * * //

dimensions      [1 -3 -1 0 0 0 0];

internalField   nonuniform List<scalar> 
814
(
-5.20618326148e-08
-6.25062858985e-08
-5.92401806904e-08
-5.42918849348e-06
-8.13426197462e-06
-3.18959744794e-05
-0.000270553705803
-0.000599451453167
-0.00546762972693
-0.00915882444659
-0.0410429707472
-1.20755076714
-0.062694698367
-0.273114309763
-3.73418399067
-0.0787225887242
-0.262782966635
-1.70437986427
-0.0803323022848
-0.205915089284
-0.75427967525
-0.0708296249374
-0.141184841966
-0.336386836892
-0.0555087837077
-0.0886500062755
-0.154306504438
-0.0396159893006
-0.0529243620549
-0.0743626775271
-0.0262115208897
-0.0307301433595
-0.0384058486295
-0.0163977535356
-0.017715214153
-0.0214738239305
-0.00989379696538
-0.0103677527133
-0.0130876940528
-0.00591744722879
-0.0063178993045
-0.00871439638392
-0.00363595444474
-0.00412674003474
-0.00634170698519
-0.00240881916619
-0.00296913289883
-0.00501045394565
-0.0018009820816
-0.0023844078243
-0.00422384930106
-0.00153412707196
-0.00209547354078
-0.00369582734394
-0.00142968799609
-0.00193226529935
-0.00326331518604
-0.00135762616707
-0.00177405154766
-0.00280535309682
-0.00125033845376
-0.00156019507365
-0.00229469414161
-0.00108461997255
-0.00129769844732
-0.00178285127494
-0.000933379938256
-0.00107980373418
-0.00141336829643
-0.00094448352114
-0.00108303802756
-0.00140282249476
-0.00140880814704
-0.00161461240245
-0.00211231696222
-0.00261736471264
-0.00299710550096
-0.00389667792722
-0.00486670160692
-0.00547661808418
-0.00696369521211
-0.00818085375077
-0.00909495715307
-0.011209102348
-0.0126068484215
-0.0137026251315
-0.0163130893393
-0.0169316206292
-0.0181481940905
-0.0208427640271
-0.0195883651532
-0.0205910620098
-0.0229320512148
-0.0190002761324
-0.01981611796
-0.0215668215043
-0.985489578278
-15.8053627086
-4.50807285773
-1.45566291066
-0.535845265865
-0.224667870838
-0.108493496353
-0.059892051505
-0.0366005601643
-0.0243436355427
-0.0172622851936
-0.0129895212773
-0.0102548091509
-0.0083528696707
-0.00689420140397
-0.00567071087348
-0.00452582950985
-0.00343918011201
-0.00250918688678
-0.00190973214498
-0.00190156673644
-0.00291826186307
-0.00537409681755
-0.00935616189248
-0.0145803269948
-0.0203190772839
-0.0249245057622
-0.0263397029251
-0.0241348852024
-0.000117775082017
-3.06574631839e-05
-1.94504685857e-05
-1.07802974218e-05
-5.29173102228e-06
-2.31265840729e-06
-6.9665637722e-07
-1.8268623413e-07
-4.4503409712e-08
-9.88984222141e-09
-1.98120379671e-09
-3.5018444011e-10
-5.35437187995e-11
-6.95365501804e-12
-7.52303061149e-13
-6.6672608274e-14
-4.77447811755e-15
-2.70255169931e-16
-1.22605450298e-17
-7.6671773352e-19
-0.00784520425171
-0.0019019047965
-0.000759499825743
-0.000311698552217
-0.000120044773014
-3.01811563585e-05
-7.46603920346e-06
-1.71584622994e-06
-3.71884380992e-07
-7.40138464397e-08
-1.35489203677e-08
-2.21679473215e-09
-3.16219106248e-10
-3.86434040328e-11
-3.95087669149e-12
-3.34879049309e-13
-2.28779103249e-14
-1.24984444594e-15
-5.50871111324e-17
-3.14651266406e-18
-0.0630362423515
-0.0179726579943
-0.00666413394745
-0.00161732450744
-0.000460357413693
-0.000119180970175
-3.03997703028e-05
-6.79167444597e-06
-1.40802185199e-06
-2.64775216073e-07
-4.68198455191e-08
-7.4224209101e-09
-1.02188298028e-09
-1.20231711728e-10
-1.18203229109e-11
-9.70010924273e-13
-6.41577081555e-14
-3.43814420037e-15
-1.47703541469e-16
-7.84180508685e-18
-1.38774514363
-0.238050377929
-0.0219583431146
-0.00545620857331
-0.0019445530983
-0.000522224783218
-0.000138824465346
-2.91040212827e-05
-5.52075184953e-06
-9.60664993986e-07
-1.64598337699e-07
-2.57755764986e-08
-3.51016427893e-09
-4.08277099763e-10
-3.97178425894e-11
-3.21622473271e-12
-2.09799120898e-13
-1.11776943473e-14
-4.73910538422e-16
-3.79726111633e-17
-16.5237690124
-4.08295769861
-0.354526781591
-0.0348035393759
-0.00678124099166
-0.00203707862166
-0.000592959477148
-0.000123736561715
-2.09685561757e-05
-3.17751007845e-06
-5.14437733364e-07
-8.0795264843e-08
-1.11629554445e-08
-1.31310711669e-09
-1.28988308643e-10
-1.05238266722e-11
-6.92626913445e-13
-3.75293313692e-14
-1.66559671487e-15
-2.08214245336e-16
-5.3700990673
-4.02134829022
-0.344656199456
-0.0575377897952
-0.0133575668709
-0.00500257681989
-0.00166129805102
-0.000373176891331
-6.09721080318e-05
-8.68726442139e-06
-1.36256494652e-06
-2.19712520296e-07
-3.16498100692e-08
-3.8621697165e-09
-3.91432028202e-10
-3.2819229611e-11
-2.22142756899e-12
-1.2469433922e-13
-6.05822719761e-15
-9.77497524851e-16
-1.70696040578
-4.40912963999
-0.338472921806
-0.0693064159939
-0.0190999449293
-0.0080942961466
-0.00306381438547
-0.000754318227752
-0.000129685676774
-1.93213122048e-05
-3.13709559008e-06
-5.23847165804e-07
-7.95601115818e-08
-1.02462520651e-08
-1.08986150307e-09
-9.53796001358e-11
-6.73742181234e-12
-3.97233677043e-13
-2.14870152062e-14
-4.01859252754e-15
-0.702347531429
-2.50449949274
-0.503188395935
-0.086059288178
-0.0238768533582
-0.00989303709599
-0.00411823147488
-0.00111506291001
-0.000215608085587
-3.6775660554e-05
-6.39586864902e-06
-1.09461129493e-06
-1.76573821312e-07
-2.42940497946e-08
-2.74481760047e-09
-2.53567434837e-10
-1.89031785361e-11
-1.18402493771e-12
-7.17318722375e-14
-1.44730943393e-14
-0.355182930767
-1.55787473767
-0.810991521208
-0.125075154058
-0.0301680210045
-0.0105176072985
-0.0045815995587
-0.00136958575023
-0.00030787494379
-6.2087130323e-05
-1.16319736457e-05
-2.03616309725e-06
-3.48429977977e-07
-5.14261404727e-08
-6.22168457996e-09
-6.12041270927e-10
-4.86150625862e-11
-3.2730492118e-12
-2.23151316184e-13
-4.62054310526e-14
-0.208792360421
-0.98258215594
-1.38459431961
-0.207737810498
-0.0427739024462
-0.0112120299067
-0.00481052936081
-0.00158475455789
-0.000408902242148
-9.51142347808e-05
-1.91735446045e-05
-3.44678264509e-06
-6.21766568905e-07
-9.81631177461e-08
-1.27672686858e-08
-1.34568120622e-09
-1.14879591753e-10
-8.42838742975e-12
-6.51960757345e-13
-1.34097232475e-13
-0.133739165079
-0.618912810164
-1.91389411363
-0.361039929978
-0.068580830846
-0.0134301952523
-0.00523272592486
-0.00188397254875
-0.000532260919808
-0.000135237414743
-2.92002781539e-05
-5.42548169362e-06
-1.02409366511e-06
-1.71618063992e-07
-2.39926727883e-08
-2.72002566688e-09
-2.51803716064e-10
-2.04697225665e-11
-1.81786203102e-12
-3.65273340531e-13
-0.0891945085635
-0.395563900326
-1.19145532264
-0.630673290271
-0.118877206182
-0.0193664042331
-0.00617900874893
-0.00236242137405
-0.000695648259873
-0.000182689389549
-4.18031094424e-05
-8.07766749777e-06
-1.58416023126e-06
-2.79050786489e-07
-4.18037633449e-08
-5.11253213356e-09
-5.18964241275e-10
-4.76640712945e-11
-4.91405057528e-12
-9.57718038719e-13
-0.0622132460571
-0.260739979125
-0.766497978592
-1.14259187077
-0.210175306869
-0.0329578248971
-0.00817961049518
-0.00308614355746
-0.000915217209458
-0.000238429495333
-5.69367056322e-05
-1.15078990695e-05
-2.33340596536e-06
-4.27726612507e-07
-6.83388177949e-08
-9.05400345256e-09
-1.02310532193e-09
-1.08322848975e-10
-1.30242942999e-11
-2.45896021394e-12
-0.0447481758785
-0.176311218459
-0.509018641859
-1.44525974571
-0.365854208395
-0.0611369730685
-0.0123543889827
-0.00415273797326
-0.0012076535644
-0.000304461383604
-7.45148392078e-05
-1.57958617883e-05
-3.30122926523e-06
-6.25042416847e-07
-1.05731508063e-07
-1.53263297127e-08
-1.9682150594e-09
-2.44051609627e-10
-3.39208721758e-11
-6.20847489372e-12
-0.0328264391496
-0.121031784027
-0.343863227459
-0.972008922473
-0.646314766953
-0.117445496015
-0.0210536568954
-0.00582192852458
-0.00160348037941
-0.0003856172366
-9.46891033157e-05
-2.09697026547e-05
-4.51252260029e-06
-8.77390560731e-07
-1.56905652848e-07
-2.52719689729e-08
-3.77270555758e-09
-5.50168388039e-10
-8.66568385826e-11
-1.542220466e-11
-0.024744324445
-0.0847882029034
-0.235155203473
-0.646235080511
-1.23865723617
-0.227116916193
-0.0402028325357
-0.0089375793008
-0.00221647181969
-0.000500274124563
-0.000118723281047
-2.71007662177e-05
-6.00678722024e-06
-1.19509475664e-06
-2.27809685404e-07
-4.14704491488e-08
-7.32540165063e-09
-1.24255299225e-09
-2.16224581781e-10
-3.74112196202e-11
-0.0189390496231
-0.0597288947466
-0.159790288179
-0.423880795151
-1.19329410818
-0.437800809544
-0.0843542818984
-0.0159939648582
-0.00337783268178
-0.000700994535639
-0.000151464835923
-3.42410038153e-05
-7.73909190377e-06
-1.58608791697e-06
-3.28842441098e-07
-6.93329789449e-08
-1.45262465827e-08
-2.80278443226e-09
-5.25810970935e-10
-8.84557314753e-11
-0.0146195247308
-0.0422722154239
-0.107878845676
-0.273482852055
-0.727151333129
-0.87564588191
-0.178456977059
-0.0315469382042
-0.00566337904416
-0.00108512813302
-0.000202745535235
-4.2562494104e-05
-9.58656382901e-06
-2.06590897263e-06
-4.81093784682e-07
-1.19958815936e-07
-2.94440873868e-08
-6.31458421905e-09
-1.25680648053e-09
-2.06713586523e-10
-0.0112708292666
-0.0297550561337
-0.0716673816782
-0.171943920788
-0.428819443811
-1.12275729562
-0.342948066995
-0.0628873983233
-0.00965553495628
-0.00172369637182
-0.000281020976851
-5.18105909329e-05
-1.14793920258e-05
-2.69825539825e-06
-7.31728815844e-07
-2.16663110849e-07
-6.10728578821e-08
-1.43608271349e-08
-3.01629478569e-09
-4.95514831775e-10
-0.00842035250721
-0.0203153139227
-0.0458931692217
-0.103742084909
-0.243787828798
-0.612209856041
-0.575808817819
-0.112012515493
-0.0159066358698
-0.00253973065842
-0.000368780177319
-5.98520669471e-05
-1.34040654914e-05
-3.64462361087e-06
-1.18530243611e-06
-4.11870466012e-07
-1.31185845116e-07
-3.38982094438e-08
-7.64931138517e-09
-1.30771958924e-09
-0.00599821294775
-0.013288781573
-0.0283036410988
-0.0610282534179
-0.139304774936
-0.346289847899
-0.881555513335
-0.169687186422
-0.0220805196695
-0.00319897120014
-0.000431790974376
-6.4347436509e-05
-1.55831164362e-05
-5.22373679392e-06
-2.07589969875e-06
-8.29956204635e-07
-2.97406990541e-07
-8.60245004861e-08
-2.14051986432e-08
-4.01949882321e-09
-0.00413393684917
-0.00854328874131
-0.0175743161258
-0.0376792426382
-0.0879568553399
-0.224510704388
-0.694711937755
-0.2089432245
-0.0248901050776
-0.00328222573446
-0.000408146275749
-6.45252898026e-05
-1.9332312117e-05
-8.29778356353e-06
-3.95406062464e-06
-1.80131479823e-06
-7.30177883802e-07
-2.40065431378e-07
-6.76787655539e-08
-1.41446075821e-08
-0.00305758684332
-0.00628237015768
-0.0135827183022
-0.0320547901609
-0.0827844839148
-0.224666826632
-0.718511203132
-0.185777452809
-0.023041355631
-0.00283967258826
-0.000323744804842
-6.79495979383e-05
-2.85879832565e-05
-1.53507864598e-05
-8.38087104431e-06
-4.23740086899e-06
-1.91583483134e-06
-7.13378304594e-07
-2.26953361623e-07
-5.1396352665e-08
-0.00314236454216
-0.00709500921412
-0.0175319102692
-0.0470033348174
-0.131198946767
-0.369507003324
-0.775115161616
-0.124602915655
-0.0163965733738
-0.00180839660667
-0.000258428252448
-9.20225114514e-05
-5.35378658167e-05
-3.34876501946e-05
-2.00059837142e-05
-1.08130188719e-05
-5.25633225609e-06
-2.14777411118e-06
-7.47971195168e-07
-1.78929566581e-07
-0.00503289409248
-0.0123421877261
-0.0328475196508
-0.0919752732619
-0.246954873678
-0.652350433337
-0.460585226879
-0.0693214709132
-0.00889732555587
-0.0010260357585
-0.000287604976254
-0.000172007350245
-0.00012117512378
-8.25749967694e-05
-5.21060889902e-05
-2.91276838386e-05
-1.45438617431e-05
-6.19309988233e-06
-2.2582425603e-06
-5.63800127889e-07
-0.00927482921625
-0.0228463722635
-0.0605749211388
-0.162948814201
-0.410731766692
-1.10117380082
-0.242068599249
-0.0332978223552
-0.00404735792282
-0.000818569538814
-0.000487678988585
-0.000388031360115
-0.000298712042723
-0.000213407923343
-0.000139313514275
-7.98326406117e-05
-3.99992043823e-05
-1.70635954468e-05
-6.25040867349e-06
-1.61950668533e-06
-0.0156178420617
-0.0364708200023
-0.0896987337923
-0.219290163277
-0.535545383391
-0.841961095616
-0.135530602994
-0.0178836248118
-0.00275026120542
-0.00121164197185
-0.0010551629976
-0.000929621408109
-0.000735802092856
-0.000535127767041
-0.000355526828585
-0.000209190852082
-0.000105750014501
-4.4666318696e-05
-1.58556067121e-05
-4.18534137752e-06
-0.0231349382088
-0.0495966678286
-0.109749492489
-0.240225893009
-0.590973933864
-0.572955637381
-0.0971261795612
-0.0146876877322
-0.00369317692949
-0.00261675989074
-0.00252195932322
-0.00221407471647
-0.00174428749869
-0.00126245894388
-0.000843680690405
-0.000507776560447
-0.000262665604714
-0.000112169315969
-3.85049474458e-05
-9.98243029481e-06
-0.0302351241808
-0.0582171622687
-0.11500281527
-0.2330099977
-0.574445447372
-0.496241603367
-0.104566298964
-0.0219677875017
-0.00829554372952
-0.00668597899578
-0.00615440640216
-0.00515641445694
-0.00395721683856
-0.0028081028266
-0.00185753387165
-0.00112488868815
-0.000600165666658
-0.000263014473544
-8.72318376946e-05
-2.12998302678e-05
-0.0345853828646
-0.0595804596765
-0.106951911519
-0.206512123666
-0.490964782017
-0.524322778065
-0.142071493317
-0.0437328412591
-0.0225996184524
-0.0179004571176
-0.0148493949988
-0.0116274424376
-0.00853536970758
-0.00584653686226
-0.00373588704708
-0.00222521588698
-0.0012015003291
-0.000547061035351
-0.000186344529198
-4.19334014705e-05
-0.0343133864468
-0.0539692893919
-0.0907307425462
-0.167298345425
-0.360924940527
-0.675219401468
-0.25340722097
-0.117157305218
-0.0732988708046
-0.0521255753412
-0.0373024507304
-0.0260631755316
-0.0174325179255
-0.0109930037482
-0.0065098833555
-0.00362371417591
-0.00191609135245
-0.000901376128152
-0.000320976811889
-6.75929858963e-05
-0.0300557570751
-0.044503380105
-0.0713029387249
-0.123666184949
-0.234968086143
-0.470965090283
-0.568458598068
-0.341175481918
-0.225056488101
-0.141276157852
-0.0846315133385
-0.0495151754796
-0.0286579461364
-2.10241679105e-16
-4.88425849175e-16
-5.67757499348e-16
-7.46929114066e-16
-1.49418520824e-15
-1.37001796875e-15
-4.60606488094e-15
-3.03593590491e-15
-1.31263324351e-14
-6.91893296387e-15
-3.40680250879e-14
-1.57932483643e-14
-8.287604427e-14
-3.56999486343e-14
-1.94447390591e-13
-8.02304663693e-14
-4.47802679211e-13
-1.79684263464e-13
-1.02339862996e-12
-4.03829848723e-13
-2.33453590439e-12
-9.17500730956e-13
-5.3431222801e-12
-2.13226326068e-12
-1.23002185071e-11
-5.17398810809e-12
-2.90534373177e-11
-1.36739909427e-11
-7.25264047985e-11
-4.11183293531e-11
-2.03664862917e-10
-1.41912557689e-10
-6.54490636635e-10
-5.27837406019e-10
-2.33807918891e-09
-1.96526176756e-09
-8.51325827126e-09
-6.93392959771e-09
-2.97241817951e-08
-2.26684876337e-08
-9.5897545795e-08
-6.80184758512e-08
-2.81811161329e-07
-1.86266851007e-07
-7.65647095323e-07
-4.70017482927e-07
-1.86736365821e-06
-1.07572678259e-06
-4.18764227905e-06
-2.25732666126e-06
-8.24016049953e-06
-4.1351940053e-06
-1.45917333608e-05
-6.60448461844e-06
-2.06178648694e-05
-7.93872934882e-06
)
;

boundaryField
{
    inletfuel
    {
        type            calculated;
        value           uniform 0;
    }
    inletair
    {
        type            calculated;
        value           uniform 0;
    }
    outlet
    {
        type            calculated;
        value           nonuniform 0();
    }
    axis
    {
        type            empty;
    }
    leftside
    {
        type            calculated;
        value           uniform 0;
    }
    burnerwall
    {
        type            calculated;
        value           uniform 0;
    }
    front
    {
        type            wedge;
    }
    back
    {
        type            wedge;
    }
    procBoundary0to1
    {
        type            processor;
        value           uniform 0;
    }
}


// ************************************************************************* //
