/*--------------------------------*- C++ -*----------------------------------*\
  =========                 |
  \\      /  F ield         | OpenFOAM: The Open Source CFD Toolbox
   \\    /   O peration     | Website:  https://openfoam.org
    \\  /    A nd           | Version:  7
     \\/     M anipulation  |
\*---------------------------------------------------------------------------*/
FoamFile
{
    version     2.0;
    format      ascii;
    class       volScalarField;
    location    "0.05";
    object      epsilon;
}
// * * * * * * * * * * * * * * * * * * * * * * * * * * * * * * * * * * * * * //

dimensions      [0 2 -3 0 0 0 0];

internalField   nonuniform List<scalar> 
814
(
16975.6103158
21373.189961
54981.5231474
21578.4031951
25621.5321722
47271.7577235
23177.7942377
28810.9467156
44541.7827978
26905.6697008
45691.6028793
178129.005058
33352.9725884
69900.9309039
302655.751561
40604.6522046
93362.2150763
325707.022884
49918.9723982
117332.143293
335480.807251
60305.960306
138873.846593
329155.863732
71240.6743761
155168.626041
309928.221933
82107.2256615
165132.120454
283241.198549
91409.7763555
167375.103382
252989.73849
97623.3825664
161928.99103
221683.659272
99620.6915802
150421.287641
191208.429985
97156.605779
134981.971562
162405.478607
90826.0212935
117639.976394
135969.504663
81830.3352164
100058.751073
112263.889492
71643.0689304
83591.1384225
91631.8109833
61675.6921079
69262.0135642
74530.6434865
52784.300929
57586.1849216
61118.1049251
45581.1078477
48651.7996012
51169.3784768
40128.2632105
42153.088739
44078.6045231
36184.9855662
37573.263311
39120.9533318
33082.666995
34071.0043567
35344.3063613
30100.3392359
30784.4202079
31759.0683945
26416.4497375
26852.1973236
27480.2028065
21792.1491236
22003.1333673
22286.3246382
16640.8461307
16697.5300825
16712.2711271
11779.1864732
11747.4911229
11626.5021853
7812.93637803
7757.38921153
7611.4938729
4997.34486659
4947.71306989
4832.59705667
3215.58635475
3183.86287244
3113.21925091
2219.27364473
2200.72083294
2162.69261936
3016.86451928
97319.9281477
169035.030247
201373.131405
211442.323655
211318.940483
203964.267482
191271.601696
175470.498228
157541.863053
138352.650348
118588.906552
99756.8144687
82809.5551421
68568.0441077
57389.9022028
49105.851513
43182.7082466
38980.2456614
35613.0889612
32117.8752882
27700.4743299
22257.2515877
16489.7111841
11331.4089307
7353.87401129
4653.72961863
3010.32543558
2111.0459085
0.83933114892
0.428758330982
0.450491415048
0.450298009927
0.412495728137
0.369192426735
0.319145282998
0.268753693636
0.225443309506
0.187858341847
0.157122561953
0.131941260076
0.112041942822
0.0965164169216
0.0848802151622
0.0760190073872
0.0702626200876
0.065899809625
0.0674083939562
0.227600455987
1.07031329966
1.20187104054
1.08849105815
1.0499553141
0.824808134659
0.655850359864
0.506712767085
0.387265882141
0.298689387911
0.233715701192
0.186118026063
0.151006113829
0.124705991514
0.105482466372
0.0910338624103
0.0809403985878
0.0736330869762
0.0691071957714
0.0725166932664
0.239927889289
2.59496653351
1.79752577132
1.93488898871
1.69861370994
1.32860660171
0.974525381249
0.697711955714
0.490418783062
0.355064913832
0.264204388123
0.203628593356
0.16181691034
0.131724501396
0.110424985485
0.0945267618067
0.0837419220838
0.0756806930128
0.0712065432616
0.0756198073952
0.250218904237
140.264245927
6.10573477578
4.00909016105
2.67052769242
2.28219689882
1.51087211238
1.05381246351
0.659772591196
0.439615014536
0.303269320499
0.223327770446
0.172551005777
0.138204400769
0.114742925052
0.0976112384718
0.0861607584306
0.0775656766113
0.073179580735
0.076905098028
0.348556926969
2604.71374594
230.078278981
38.9844346993
9.06445814377
4.46042467237
2.66637687706
1.7217646924
0.978348814947
0.581848125492
0.363117399676
0.250877671383
0.186125186232
0.145809834603
0.119446469783
0.100882493031
0.088577604276
0.0794928067447
0.0749229641923
0.0797268873405
0.469172501535
9066.37653608
532.030564642
62.5428790033
16.3079646251
7.27784461224
4.37196718042
2.64708616926
1.46625065556
0.790904897895
0.45150822621
0.290460191883
0.205072470505
0.156040187691
0.125581721613
0.105007479445
0.091557332425
0.0818284078494
0.0769452705095
0.0841589673519
0.589611103614
12897.2396515
682.815437449
76.1709340944
22.647718052
10.0893429506
6.04624662014
3.56226650346
1.98351221951
1.03352502355
0.564094050995
0.342110728076
0.229940405041
0.169074274188
0.133214302563
0.109985435979
0.0951275772635
0.0845817171171
0.0793721263459
0.0899838259814
0.682338029504
17634.4536708
990.146635861
102.107958663
30.1555224028
12.8853998784
7.25805104301
4.24192438051
2.41047741921
1.27472957793
0.693734930095
0.405759588889
0.261206871924
0.185085831966
0.142323277451
0.115755499852
0.0992091049477
0.0876852948931
0.0821033943485
0.0967600481051
0.76002270692
23341.8077987
1452.45904817
151.969998503
42.1557380423
15.9976591856
8.07185213246
4.71233849314
2.74852704764
1.50746703578
0.836912021157
0.481993618764
0.299618829559
0.20450766827
0.15305352201
0.12236505463
0.103788472365
0.0911128884526
0.0851016495713
0.10384898035
0.822028507182
29244.2840287
2076.49661955
240.233788187
63.8109270124
20.8614051949
9.07537241925
5.18122497809
3.06438694996
1.73973218738
0.990501599569
0.570471254053
0.345776953072
0.227913230282
0.165710112309
0.129984174216
0.108962896629
0.0949215078673
0.0884620160909
0.110874651406
0.864737191757
34782.8526276
2893.21599686
387.207486259
103.52184849
30.0485343232
10.9881919272
5.83995571122
3.41564160705
1.97671140308
1.14858379765
0.668341615678
0.399454224872
0.255715059646
0.180614597152
0.138817890953
0.114869301217
0.0991997185582
0.092289000302
0.117847019853
0.886216075683
39659.0746592
3955.21281445
619.251039862
173.932096824
47.4228033718
14.6553496988
6.83856591411
3.83985586475
2.21822283372
1.30554316645
0.770818819123
0.459306761584
0.287880481244
0.197971871578
0.149028813281
0.121621583595
0.104021333851
0.0966208033266
0.124890389382
0.890505907708
43250.9260132
5257.69220814
965.04823761
292.957618948
79.0383929453
21.5316730116
8.45357779522
4.3833164311
2.46993840037
1.45816769049
0.872990656346
0.523027454109
0.323797643819
0.217786000922
0.160703737629
0.129292651838
0.109434019314
0.101439391637
0.132150095953
0.882586779929
45429.8072352
6826.56712631
1476.78620606
488.099565675
134.387426259
34.3168724196
11.3311282656
5.16468060273
2.76059321848
1.61030303873
0.971682971841
0.587773852408
0.362261473175
0.239798209974
0.173827531648
0.137904071144
0.115453597962
0.106688710825
0.139533802517
0.865611557947
46293.5773628
8699.60567747
2225.34467593
791.096666468
229.282351216
58.3534971471
16.9707212582
6.49440166698
3.15791985901
1.77555441006
1.06707554424
0.650527113892
0.401652833748
0.263466490323
0.188271880908
0.147428283536
0.12206990745
0.112301057341
0.147053506958
0.841325325802
45649.294707
10833.8535104
3275.9749743
1238.23534622
388.553202869
103.793950052
28.6815479096
9.10096635381
3.81888781692
1.98945041291
1.16314335878
0.709697208409
0.440249173787
0.287981247204
0.203760347586
0.157764562138
0.129242217113
0.118206866045
0.154530022451
0.811247135676
43917.4498994
13215.430705
4731.88018757
1916.91059405
659.388539156
189.351698309
53.6553321039
14.7751040145
5.08039999573
2.32276498494
1.27204704429
0.764884546219
0.476829403989
0.312689009431
0.22006732317
0.168859797736
0.137006974956
0.124445125772
0.161726961305
0.777596704087
41786.3911972
15874.5413183
6663.69099249
2917.03268019
1072.75454598
337.968684529
104.396116731
27.2216738041
7.57487323754
2.89055201161
1.41471792309
0.817844712626
0.510467515029
0.33702750997
0.236992753295
0.180668387251
0.145486900129
0.131233551763
0.168849011078
0.7431027157
39703.2427493
18664.0841356
9037.71731758
4274.94795118
1653.54023326
569.734997704
195.763304979
54.4414671985
12.4443619813
3.80392105221
1.60693018874
0.870761225071
0.54185802624
0.36150260131
0.255125883447
0.19375940105
0.155318008989
0.139290558902
0.176757392698
0.712251137947
37984.7664608
21479.0777243
11795.2524922
5991.4122099
2419.65349111
877.133736296
334.051252161
103.552656236
21.1665205822
5.06853397498
1.81564093269
0.919340979761
0.572099488166
0.387079810447
0.275266130718
0.209186194427
0.167665823356
0.149929023816
0.187324104238
0.690532371526
36620.3126437
24128.6961071
14699.4901687
7877.06949378
3252.30362958
1185.28544446
490.601182435
169.878092818
31.9803283701
6.35219737061
2.00059428298
0.962676269757
0.605248326133
0.416789669135
0.299708072248
0.228968379491
0.184636846339
0.165327667503
0.203385498503
0.684337866664
35403.4602305
26189.4503132
17247.5105666
9535.72873192
3970.51652716
1452.0110596
647.861482688
224.753594041
37.7579526354
6.86804318971
2.04508106741
1.00049187715
0.650022558574
0.45686163838
0.333346142951
0.256847923539
0.209416158101
0.188386657001
0.228684687214
0.700554853574
33834.3658832
26949.2260393
18564.3765355
10345.074041
4272.13681956
1584.35711103
716.383921851
212.847216209
34.6874386222
6.54943937174
1.98163112545
1.06169271048
0.727581816643
0.52391001215
0.388805934605
0.301374162518
0.247684346935
0.223500767654
0.267884125558
0.744829204294
31188.472579
25714.7145758
17838.9864876
9684.20429945
3837.91613534
1450.02749451
612.172954105
146.394567614
25.6068380748
5.32362774309
1.92422897088
1.1976852338
0.876605121678
0.652521911197
0.49382400083
0.382238103106
0.311626941221
0.277927406656
0.326046164251
0.822902113245
26947.366054
22223.0329635
15045.801937
7714.43499125
2971.75203438
1183.96929028
437.173555953
88.6546791677
16.966817877
4.19482316267
2.05612725984
1.51676740882
1.1944161262
0.925103313411
0.71343982978
0.54510369823
0.428980405053
0.366672097246
0.411531318077
0.94200782036
21371.2585946
17220.5978362
11184.8090304
5455.29756359
2196.11437011
961.305236081
297.119037504
54.5108160366
11.0959574081
3.76311139839
2.59970784879
2.23486656496
1.9015028156
1.53508653085
1.201757809
0.902871267122
0.668364387645
0.524071329453
0.537388737863
1.1090212602
15507.6739781
12116.3791195
7628.89099667
3743.17412851
1774.57570954
869.982846403
229.11438955
40.5925092549
9.21402321346
4.51345268973
4.02457557777
3.88765958947
3.53936206352
2.9625684687
2.33883353497
1.73060094248
1.1979345571
0.831729689687
0.736562337312
1.33959170181
10433.8706993
7968.30689388
5019.21985619
2705.60152531
1628.3064404
879.992770966
214.532387281
38.7421283434
10.5883443991
7.18272794736
7.51155317917
7.76820843934
7.40356851487
6.37088880031
5.07931218098
3.74202206519
2.46172895636
1.5043162431
1.08562858889
1.65560626677
6676.70022244
5098.72388043
3373.23585741
2132.06114476
1601.83115739
917.192870749
237.745072208
49.0362718462
17.2647444846
14.5175591192
16.1738627578
17.0948800987
16.5054726831
14.344990664
11.4873202037
8.47270981481
5.52806305809
3.0793519665
1.75598391836
2.1220570954
4219.77958401
3324.03037122
2415.67221859
1807.11183454
1542.0318421
899.618897022
266.714523796
71.2823694769
35.4819801422
34.1716558156
37.6545188879
38.6667157931
36.1390648352
30.6552030662
24.1079223711
17.8384057334
12.0119760132
6.63550155625
3.15704385505
2.84891358432
2772.03688633
2320.81143692
1887.10327122
1597.30946155
1401.54354546
840.996857426
311.757371828
122.099928946
82.8432828355
81.5340528146
83.9899498663
79.7578904346
68.3631253286
53.8299681026
40.3400103484
29.5456808598
21.0662387645
12.6736539715
5.63115407943
3.94273002657
1995.0030681
1789.08774172
1591.09010895
1430.06605842
1234.06087415
793.304074383
398.984825814
237.740494325
191.334008959
175.731790878
155.696746341
123.85879757
90.50740165
1.71887165364
3.60124186153
7.89123232041
4.55242476784
8.68953238514
5.02254791911
8.15646719898
4.90273140414
7.32510165507
4.63868132827
6.4281564765
4.32740305343
5.61258548465
4.01034217391
4.90883325874
3.70662981906
4.31915503133
3.42293052835
3.82837118223
3.16342763048
3.42090560903
2.93197671764
3.08421765018
2.73303607089
2.80901681755
2.57098051753
2.58965361107
2.4508928708
2.42460665405
2.37670338833
2.31323143838
2.35329618359
2.26002563742
2.38354564338
2.264146616
2.47203513921
2.33284640604
2.62266124845
2.47003825106
2.84159169936
2.68237071606
3.13409441687
2.9673110088
3.50346627813
3.31468493176
3.94927620493
3.74711765553
4.46869887892
4.27698510335
5.05512147891
4.96850746143
5.70562765619
5.91714898483
6.47326767904
7.49538550907
7.50326692669
)
;

boundaryField
{
    inletfuel
    {
        type            turbulentMixingLengthDissipationRateInlet;
        mixingLength    0.005;
        phi             phi;
        k               k;
        value           uniform 1630.0935556;
    }
    inletair
    {
        type            turbulentMixingLengthDissipationRateInlet;
        mixingLength    0.005;
        phi             phi;
        k               k;
        value           uniform 0.0603738353925;
    }
    outlet
    {
        type            inletOutlet;
        inletValue      nonuniform 0();
        value           nonuniform 0();
    }
    axis
    {
        type            empty;
    }
    leftside
    {
        type            epsilonWallFunction;
        value           nonuniform List<scalar> 
33
(
1.71887165364
3.60124186153
0.227600455987
0.239927889289
0.250218904237
3.60124186153
4.55242476784
5.02254791911
4.90273140414
4.63868132827
4.32740305343
4.01034217391
3.70662981906
3.42293052835
3.16342763048
2.93197671764
2.73303607089
2.57098051753
2.4508928708
2.37670338833
2.35329618359
2.38354564338
2.47203513921
2.62266124845
2.84159169936
3.13409441687
3.50346627813
3.94927620493
4.46869887892
5.05512147891
5.70562765619
6.47326767904
7.50326692669
)
;
    }
    burnerwall
    {
        type            epsilonWallFunction;
        value           nonuniform List<scalar> 7(54981.5231474 47271.7577235 44541.7827978 0.83933114892 1.07031329966 2.59496653351 3016.86451928);
    }
    front
    {
        type            wedge;
    }
    back
    {
        type            wedge;
    }
    procBoundary0to1
    {
        type            processor;
        value           nonuniform List<scalar> 
27
(
1799.39435986
1789.89651432
1771.31904304
1748.37586085
64.4913415041
46.86554747
35.7872947848
28.3574579657
19.5297230516
8.73544069775
5.5398319141
1698.8028951
1614.09668767
1524.08510866
1418.984596
1246.2155014
937.156638573
649.49220047
474.122354557
362.98482875
272.655458349
190.740272201
126.248473404
64.4913415041
82.4468773797
10.2655723426
8.34830389308
)
;
    }
}


// ************************************************************************* //
