/*--------------------------------*- C++ -*----------------------------------*\
  =========                 |
  \\      /  F ield         | OpenFOAM: The Open Source CFD Toolbox
   \\    /   O peration     | Website:  https://openfoam.org
    \\  /    A nd           | Version:  7
     \\/     M anipulation  |
\*---------------------------------------------------------------------------*/
FoamFile
{
    version     2.0;
    format      ascii;
    class       volScalarField;
    location    "0.05";
    object      H2;
}
// * * * * * * * * * * * * * * * * * * * * * * * * * * * * * * * * * * * * * //

dimensions      [0 0 0 0 0 0 0];

internalField   nonuniform List<scalar> 
814
(
0.999999975119
0.999999980575
0.999999992487
0.999997417673
0.999997312412
0.999997852154
0.99986488305
0.999773304962
0.999432266236
0.995583219423
0.986415236112
0.885600370157
0.987137365242
0.966360781921
0.822408041872
0.974829326976
0.940912982683
0.772692340722
0.957066994069
0.908762836627
0.725413903733
0.933349719439
0.871634663764
0.684985344029
0.903770244124
0.832450243061
0.651935925797
0.868259846329
0.79212817949
0.625139906571
0.827954066238
0.75217206671
0.602507978532
0.784483526001
0.713524026855
0.582169666961
0.739487577584
0.676072810183
0.562087279132
0.694005432742
0.639174756842
0.54093582861
0.648199359708
0.601672912672
0.517281088868
0.601772901023
0.562632141974
0.490352013135
0.554738404499
0.52205663207
0.460700448879
0.507962085081
0.481066067156
0.429942454927
0.463022292499
0.441433129147
0.399951903966
0.422533346727
0.405694903437
0.373148831051
0.388663965716
0.376015393682
0.351396594334
0.362277471052
0.353070488805
0.334966485225
0.341661894384
0.334995953169
0.3216678331
0.323032388894
0.317985751681
0.307692520002
0.301156572903
0.297025489239
0.288394949049
0.272393605163
0.268703420436
0.260902590093
0.236534529859
0.233199189955
0.22601944377
0.197315745159
0.194343405873
0.187949018737
0.159618332979
0.157160112947
0.151833700402
0.127812653849
0.125875427593
0.121701958383
0.103868693276
0.102435994163
0.0993346337299
0.0882540933409
0.0872001730194
0.0849261299352
0.221177243747
0.282896984335
0.369497436716
0.397859765311
0.413908166278
0.426936752229
0.435157876785
0.439494157745
0.441282791323
0.439493178953
0.434021734915
0.423544821802
0.408584797563
0.390436485102
0.371033783013
0.352002242343
0.335399591737
0.322620728097
0.313456302682
0.305405485023
0.294715523857
0.277163385664
0.25051114927
0.216347624496
0.179284064345
0.144603013719
0.116027438165
0.0950981561862
0.0818136269552
3.30794815335e-06
2.28642477704e-06
9.71896569642e-07
3.83606017884e-07
1.40877216324e-07
4.7347825992e-08
1.50085058522e-08
4.45300283428e-09
1.22410631125e-09
3.05430791505e-10
6.80110516727e-11
1.32108315785e-11
2.19096638774e-12
3.04375769478e-13
3.47606916162e-14
3.21374267563e-15
2.36945104319e-16
1.36946887008e-17
5.95756163183e-19
1.10071212395e-20
0.000247786671002
7.96434598763e-05
1.76968897232e-05
4.91183795669e-06
1.51617973482e-06
4.52992463753e-07
1.3347521534e-07
3.64218451717e-08
9.2546822101e-09
2.12407485222e-09
4.40618128828e-10
8.02471148784e-11
1.25388971248e-11
1.64954722313e-12
1.79147206178e-13
1.58799810983e-14
1.12262094731e-15
6.25516738214e-17
2.56925688655e-18
4.44466222784e-20
0.00141066205037
0.000167018880397
4.01504758616e-05
1.26034808723e-05
4.45939882785e-06
1.45580588555e-06
4.64700951002e-07
1.29596825162e-07
3.26502300307e-08
7.2644417196e-09
1.47786043972e-09
2.63113958345e-10
3.99017560432e-11
5.07106432002e-12
5.31052240748e-13
4.56345792392e-14
3.12957278594e-15
1.70815087196e-16
6.73495897356e-18
1.09346890848e-19
0.0148928574389
0.000457704817616
7.90870405692e-05
2.96876218466e-05
1.28021530053e-05
4.71331521577e-06
1.63541479677e-06
4.65461020417e-07
1.14287808257e-07
2.47155396275e-08
5.00500254162e-09
8.93078609051e-10
1.34981457374e-10
1.70308207729e-11
1.76917578598e-12
1.50243635239e-13
1.017454146e-14
5.51350959199e-16
2.14536863592e-17
4.74377217122e-19
0.0230565337989
0.00178109235849
0.000258208657257
7.82798180933e-05
2.81075615462e-05
1.20234626359e-05
4.82804536355e-06
1.49022180993e-06
3.61604574056e-07
7.38522084458e-08
1.48035728854e-08
2.7145533296e-09
4.21109548259e-10
5.40711336314e-11
5.69005006635e-12
4.87941470034e-13
3.33788675253e-14
1.83901505381e-15
7.38259600649e-17
2.29815784307e-18
0.0576874138553
0.0027210446059
0.000280199128115
0.000111431618373
4.17954079325e-05
2.05683034261e-05
9.50319068764e-06
3.27518897328e-06
8.41531361664e-07
1.75998124043e-07
3.62941575385e-08
7.07218202722e-09
1.1634813551e-09
1.56339362142e-10
1.70520503455e-11
1.50712239042e-12
1.06206461573e-13
6.06184395816e-15
2.60203181439e-16
9.82932924843e-18
0.0855451658348
0.0044937989766
0.000385062910575
0.000141806883068
5.14754612928e-05
2.61721191073e-05
1.34211898592e-05
5.1248688279e-06
1.45395346349e-06
3.36425670765e-07
7.59765324285e-08
1.59566788894e-08
2.8313624876e-09
4.06206402122e-10
4.67799136339e-11
4.33079226829e-12
3.1916757693e-13
1.91305374906e-14
8.89087783394e-16
3.81369093555e-17
0.113484703429
0.012117220715
0.000781945263659
0.000190848800428
5.86884444537e-05
2.73587633888e-05
1.50778614657e-05
6.32612355493e-06
2.03474262375e-06
5.51153181606e-07
1.39006951671e-07
3.11675791473e-08
6.04062425014e-09
9.39839515891e-10
1.15856695663e-10
1.13699535747e-11
8.86535088948e-13
5.64401610671e-14
2.85223772551e-15
1.32131962159e-16
0.140835694065
0.0220186317274
0.00161683982083
0.000297696088853
6.96444994987e-05
2.61916912142e-05
1.49090151254e-05
6.83648537291e-06
2.51568343379e-06
8.05841000785e-07
2.24851603725e-07
5.35606137919e-08
1.13679986077e-08
1.93332480812e-09
2.57680887769e-10
2.7067397079e-11
2.2553149094e-12
1.54292928834e-13
8.53086977737e-15
4.11995649456e-16
0.165777163674
0.0330955252175
0.00336638276961
0.000532889158697
9.52896309423e-05
2.59261608816e-05
1.43326090435e-05
7.12059389984e-06
2.93975500585e-06
1.07777444281e-06
3.28388646421e-07
8.29579735042e-08
1.91863839792e-08
3.56870148634e-09
5.17425995733e-10
5.85984019319e-11
5.26576582888e-12
3.92359333244e-13
2.40140903661e-14
1.18223686777e-15
0.188459545268
0.0455393518464
0.00746813969263
0.00101620561811
0.00015346710983
2.9463131979e-05
1.43814742136e-05
7.64025405841e-06
3.3968269885e-06
1.35166768583e-06
4.4406353091e-07
1.18799172027e-07
2.96637121537e-08
6.00157036557e-09
9.48416045459e-10
1.16379869133e-10
1.13868865803e-11
9.39208349312e-13
6.46715137489e-14
3.21662837415e-15
0.209033656052
0.0593430257283
0.0139530230117
0.001985402336
0.000280712565253
4.15012993805e-05
1.57221841334e-05
8.61451524999e-06
3.96652484509e-06
1.62869885065e-06
5.68429808238e-07
1.60732183668e-07
4.28366133478e-08
9.33917438273e-09
1.60609003486e-09
2.14398716572e-10
2.31085971776e-11
2.15076750499e-12
1.69193370237e-13
8.48778466239e-15
0.22614821804
0.0738264508689
0.0220377334515
0.004021421832
0.000548295688643
7.2276565639e-05
1.95655239206e-05
1.0125564872e-05
4.68676805496e-06
1.91577031776e-06
6.98900656453e-07
2.0871705613e-07
5.87477876975e-08
1.36408069906e-08
2.54251812739e-09
3.71065331437e-10
4.47501993811e-11
4.79498279791e-12
4.3427479895e-13
2.20491237749e-14
0.240022988095
0.0890380624036
0.0319328658255
0.00835056484733
0.00109013808641
0.000145073580858
2.88595856177e-05
1.23766971474e-05
5.56154392933e-06
2.2186518041e-06
8.33392563761e-07
2.62668239627e-07
7.7414309458e-08
1.89355306057e-08
3.79519915376e-09
6.11755327388e-10
8.42935821046e-11
1.05654880328e-11
1.09523043175e-12
5.65312612915e-14
0.250716588685
0.104977513345
0.0438465867284
0.0150622117897
0.0022437839464
0.000316240015535
5.08293105869e-05
1.60365009785e-05
6.5974741164e-06
2.54488347047e-06
9.71014540443e-07
3.22062469418e-07
9.88353882175e-08
2.52022881154e-08
5.41283956813e-09
9.78212805244e-10
1.57506329314e-10
2.31980489836e-11
2.70367947113e-12
1.42972136339e-13
0.257360707708
0.121268504557
0.057824442087
0.0241469943452
0.00497758580981
0.000718498487923
0.000105998592291
2.33342683104e-05
7.99650117691e-06
2.94392672812e-06
1.11647595271e-06
3.86887496064e-07
1.23364400483e-07
3.25132339882e-08
7.52026094451e-09
1.54786997393e-09
2.96252474684e-10
5.07243594869e-11
6.49619814259e-12
3.5372363108e-13
0.261046253199
0.138114423151
0.0743796647224
0.0364734211103
0.0112788768087
0.00167519799651
0.000254463557996
4.11475872877e-05
1.04627901584e-05
3.55887814071e-06
1.29354947168e-06
4.56100010055e-07
1.49569467805e-07
4.08101913072e-08
1.03294252079e-08
2.47580648434e-09
5.6383287333e-10
1.09768338248e-10
1.51386197777e-11
8.53601733097e-13
0.263088987286
0.155409634058
0.0932104369854
0.0521453241836
0.0213055068223
0.00411536281018
0.000644692441742
8.50088244175e-05
1.52126913671e-05
4.56516653648e-06
1.54062593454e-06
5.28922444028e-07
1.74732243185e-07
5.01322902168e-08
1.42682579843e-08
4.05369753538e-09
1.08233603293e-09
2.34004629688e-10
3.43784720651e-11
2.03530673472e-12
0.264313137968
0.172646598384
0.113725709823
0.0707789091536
0.0350219957725
0.0101368142649
0.00153709170882
0.000188681496468
2.37934509474e-05
5.92335628662e-06
1.86158283381e-06
5.99865918333e-07
1.97366689647e-07
6.14038944457e-08
2.02545730715e-08
6.8206649059e-09
2.08548256423e-09
4.93376928995e-10
7.7309163875e-11
4.96937813859e-12
0.266242433204
0.189875228231
0.135258353963
0.0913971273274
0.0514674903114
0.0195494596588
0.00321337719726
0.00038893281526
3.86729892699e-05
7.36157253309e-06
2.14810837115e-06
6.50120278926e-07
2.17261403113e-07
7.70907133745e-08
3.01466171911e-08
1.18275917957e-08
4.05634788266e-09
1.05050041442e-09
1.8002773684e-10
1.33148860317e-11
0.269395085805
0.206561122049
0.156099226106
0.11140003387
0.0674013167795
0.0293026319814
0.0057832642127
0.000670685447983
5.53191541625e-05
8.36221619947e-06
2.29220901356e-06
6.65845716479e-07
2.37423135463e-07
1.01272966285e-07
4.75109914607e-08
2.11801167034e-08
8.07631857478e-09
2.32911683188e-09
4.51956046063e-10
4.13602408168e-11
0.272852411316
0.220815438837
0.173522805615
0.12722779598
0.0791988957944
0.0364547482671
0.00833707399773
0.000880755308164
6.36449400934e-05
8.40302444832e-06
2.16083234652e-06
6.5172044939e-07
2.74059161448e-07
1.44227778694e-07
7.91467132297e-08
3.95917807564e-08
1.68655461509e-08
5.51243873833e-09
1.25681408608e-09
1.46274117399e-10
0.273779595688
0.228881455756
0.182894999892
0.13380594336
0.0817242783749
0.0364975187802
0.00770172993945
0.0007557857451
5.83310773589e-05
7.72944760955e-06
1.87260123059e-06
6.76450354317e-07
3.68120404414e-07
2.30940543504e-07
1.40949061961e-07
7.72583779262e-08
3.65367630799e-08
1.36146900639e-08
3.6769749608e-09
5.31223760939e-10
0.268572377974
0.227183689374
0.180191543261
0.12717171955
0.0718214512915
0.0280789390399
0.00475293933725
0.00044585520736
4.14168706983e-05
5.98742945432e-06
1.72251228852e-06
8.87498694126e-07
6.0480061797e-07
4.17526456319e-07
2.69605070219e-07
1.56766497795e-07
8.06077152315e-08
3.38261684882e-08
1.06510386264e-08
1.83819531157e-09
0.253780392075
0.213196729976
0.163998199845
0.107636141188
0.0538423430427
0.0171166536918
0.00227706816311
0.000218583439112
2.46194135899e-05
4.61479418808e-06
2.16445772185e-06
1.55512583995e-06
1.16854440905e-06
8.31493927876e-07
5.47554254066e-07
3.26343508985e-07
1.76117327757e-07
8.05653954382e-08
2.86711676037e-08
5.71848016647e-09
0.228438914609
0.187921976604
0.137645714936
0.082483948754
0.0360614886572
0.00869485457625
0.000976302251276
0.000101875713676
1.4336903791e-05
5.03157290375e-06
3.91208275734e-06
3.26187383064e-06
2.51002368455e-06
1.79791288511e-06
1.18685485918e-06
7.0727274461e-07
3.846704111e-07
1.83986944182e-07
7.15584670733e-08
1.60992798372e-08
0.195560763957
0.156675429664
0.109312132736
0.0605667159581
0.0234878124246
0.00441871726051
0.000494644357986
6.00230318217e-05
1.32677629424e-05
9.04935707097e-06
8.67450668996e-06
7.55398888271e-06
5.85354196717e-06
4.19270831279e-06
2.7548329225e-06
1.6210514277e-06
8.57032697621e-07
4.05856963164e-07
1.6385940386e-07
4.0402387474e-08
0.160622141236
0.125861903684
0.0848850902637
0.0452127279365
0.0159925299818
0.0027270436557
0.0003588494656
5.82811490813e-05
2.28808193994e-05
2.15132598342e-05
2.14090659979e-05
1.86856344395e-05
1.46163442704e-05
1.04351633832e-05
6.82343051904e-06
3.96213002957e-06
2.00811828001e-06
9.01543351749e-07
3.57794853764e-07
9.29044542718e-08
0.128958338867
0.100152513821
0.0670177627771
0.0357868226868
0.0125516453471
0.00237953191119
0.000430501715475
0.000105481352803
5.95304672983e-05
5.790970241e-05
5.58316796712e-05
4.80974511221e-05
3.7614378179e-05
2.66745702971e-05
1.72828893426e-05
9.94192511322e-06
4.92054940003e-06
2.05412465207e-06
7.40193413146e-07
1.89687042242e-07
0.103721508994
0.0812011816987
0.0554014412507
0.0308672845511
0.0118767494229
0.00280798716252
0.000713031232746
0.000265805243987
0.000183436044856
0.000166267040097
0.000148637323135
0.000122901695722
9.3598867954e-05
6.49805235476e-05
4.11508720287e-05
2.3460071584e-05
1.15318049727e-05
4.61484940536e-06
1.50661559176e-06
3.56478555972e-07
0.0858494431421
0.0688325765976
0.0489996421248
0.0295279455474
0.013614508207
0.00434575756318
0.00164746114759
0.000903615273137
0.000672913649426
0.000532392670772
0.000411807818449
0.000304804923912
0.000212488973085
0.00013722433103
8.18588199569e-05
4.46257059171e-05
2.17695535531e-05
8.71317711746e-06
2.65325035044e-06
5.50789257904e-07
0.0749721528564
0.0621697951012
0.046825173532
0.0312175139852
0.0178706274666
0.0089350796859
0.00472441735997
0.00315970119792
0.00230560627213
0.00157087684567
0.000997079082457
0.000605422937544
0.000359286690062
1.75201680347e-18
2.03710003212e-18
1.87980220554e-18
3.0514403193e-18
4.59428924276e-18
5.50894982206e-18
1.42760763922e-17
1.21288403586e-17
4.23419185276e-17
2.75729851022e-17
1.16204246347e-16
6.29163704296e-17
3.00370272592e-16
1.42391006877e-16
7.48865027946e-16
3.20808725236e-16
1.82830750125e-15
7.21279408485e-16
4.41595124055e-15
1.62989450436e-15
1.06123388489e-14
3.73041522991e-15
2.55135097014e-14
8.75351222677e-15
6.15435689664e-14
2.15060839307e-14
1.52002325067e-13
5.77322370398e-14
3.95918016907e-13
1.76983346686e-13
1.15744898349e-12
6.25219893838e-13
3.86117484753e-12
2.39061162345e-12
1.42802835499e-11
9.18921360197e-12
5.36602636934e-11
3.36081274264e-11
1.92709163649e-10
1.1427941783e-10
6.36940754495e-10
3.57403804562e-10
1.90921675444e-09
1.02053540301e-09
5.26309549623e-09
2.6797776124e-09
1.29285264988e-08
6.36472411479e-09
2.89908244568e-08
1.38184991782e-08
5.63776481436e-08
2.61537823165e-08
9.70805870704e-08
4.31154610662e-08
1.28343510449e-07
5.34562919204e-08
)
;

boundaryField
{
    inletfuel
    {
        type            fixedValue;
        value           uniform 1;
    }
    inletair
    {
        type            fixedValue;
        value           uniform 0;
    }
    outlet
    {
        type            zeroGradient;
    }
    axis
    {
        type            empty;
    }
    leftside
    {
        type            zeroGradient;
    }
    burnerwall
    {
        type            zeroGradient;
    }
    front
    {
        type            wedge;
    }
    back
    {
        type            wedge;
    }
    procBoundary0to1
    {
        type            processor;
        value           nonuniform List<scalar> 
27
(
0.0797658899951
0.0790097764081
0.0773635036011
0.075098618333
0.000209215660053
0.000119048272025
6.47628026724e-05
3.16229093535e-05
1.26778572777e-05
3.6688594636e-06
6.90943064622e-07
0.0700785793226
0.0604990619806
0.0487083097299
0.0363580770615
0.0253725662757
0.0172130000629
0.0119939756723
0.00851696948942
0.00551610001797
0.0029061023755
0.00149496305989
0.000783050643548
0.000209215660053
0.000418073248225
1.35382162681e-07
4.81991827481e-08
)
;
    }
}


// ************************************************************************* //
