/*--------------------------------*- C++ -*----------------------------------*\
  =========                 |
  \\      /  F ield         | OpenFOAM: The Open Source CFD Toolbox
   \\    /   O peration     | Website:  https://openfoam.org
    \\  /    A nd           | Version:  7
     \\/     M anipulation  |
\*---------------------------------------------------------------------------*/
FoamFile
{
    version     2.0;
    format      ascii;
    class       volScalarField;
    location    "0.05";
    object      H2O;
}
// * * * * * * * * * * * * * * * * * * * * * * * * * * * * * * * * * * * * * //

dimensions      [0 0 0 0 0 0 0];

internalField   nonuniform List<scalar> 
814
(
3.4552694183e-09
2.90327273333e-09
1.60527105089e-09
2.97796007069e-07
3.24478275293e-07
3.82724329032e-07
1.31701136897e-05
2.14483855603e-05
5.73358152613e-05
0.000391731572292
0.00107799362878
0.00763040512271
0.00218292785684
0.00599025448178
0.0337425023508
0.00526815616084
0.0129413717724
0.0519934636389
0.00992033609503
0.0217157100139
0.0669063022419
0.0161569901286
0.0316483785935
0.0785790274653
0.0238803605998
0.0419506898432
0.0876434754627
0.0330717413593
0.0524141975472
0.094771189064
0.0434333614376
0.0626957782536
0.100676528843
0.0545562880159
0.0725883273452
0.105921349233
0.0660339571922
0.0821421004156
0.11106239145
0.0776119394746
0.091534138155
0.116454244895
0.0892565131174
0.101066353301
0.122469691157
0.101048342681
0.110981047544
0.129309233498
0.112988213329
0.121280334461
0.136835666132
0.124859322113
0.131682446597
0.144641025662
0.136263511093
0.141739477326
0.15225163159
0.146539114004
0.150809302596
0.159055342084
0.155137042454
0.158344111971
0.16458077623
0.161838608181
0.164172737252
0.16875891984
0.167077146811
0.16876677385
0.17214300009
0.171809184628
0.173087509098
0.17569325347
0.177354875089
0.178398860415
0.180577816897
0.184627553939
0.18555503552
0.187511784146
0.193669090814
0.194498803599
0.196278668242
0.20351717159
0.204243819066
0.205798142738
0.212913468091
0.213496641847
0.214750076849
0.22074258672
0.221181260466
0.22211571558
0.226552269349
0.226856902081
0.227508093996
0.230336085068
0.230548026991
0.230999441998
0.0247343427345
0.124693361716
0.141554098573
0.146259432053
0.146124238854
0.144253763932
0.142737792489
0.141888419536
0.141560784459
0.142083977314
0.143513254372
0.146195822746
0.15000604417
0.154619750549
0.159549280364
0.164384476347
0.168606070382
0.171861490462
0.174202473281
0.176259048387
0.178975179858
0.183408480863
0.190109568635
0.198662235281
0.207884734674
0.216427779183
0.223361820727
0.228377448489
0.23160340767
8.18576337068e-06
7.18345542054e-06
5.17315194176e-06
3.07020153567e-06
1.64794384629e-06
7.94862887902e-07
3.49327352267e-07
1.3778304291e-07
4.87274611331e-08
1.50667871829e-08
4.03885743993e-09
9.3644798669e-10
2.0464917236e-10
6.18948198374e-11
3.8585900183e-11
3.50979408267e-11
3.71582408486e-11
7.01088468848e-11
3.65959594557e-10
9.51167378344e-10
0.000534407930997
0.000242679727751
0.000123722189324
5.83124027967e-05
2.75331567295e-05
1.15684493818e-05
4.58867082879e-06
1.60851010967e-06
5.09725975432e-07
1.40557354885e-07
3.42701329765e-08
7.16683224549e-09
1.32312068521e-09
2.78114745171e-10
1.2321348434e-10
1.05108075265e-10
1.28118406863e-10
4.95442183196e-10
5.88931538716e-09
4.81638697761e-08
0.00387345787461
0.00161350515415
0.0010487157004
0.000424181630132
0.000192863702921
7.64012493314e-05
2.9467328115e-05
9.58851693487e-06
2.7627907227e-06
6.8950581936e-07
1.5768856633e-07
3.10544499828e-08
5.22861597554e-09
8.6989170801e-10
2.6361748023e-10
2.00538259281e-10
3.09553133146e-10
2.5488613838e-09
5.73910882583e-08
1.26422639288e-06
0.019599921064
0.00858948980875
0.00504706802415
0.00232404360682
0.00110869860568
0.000426226880919
0.000161222257946
5.01192537916e-05
1.33467478756e-05
3.10645811087e-06
6.84995172304e-07
1.32168938579e-07
2.15200184757e-08
3.1746712888e-09
6.74014762246e-10
4.2091569614e-10
8.57208715653e-10
1.11097466724e-08
3.31831263033e-07
2.22030216121e-05
0.154624512851
0.0684142580588
0.0260034551845
0.00978872614337
0.00416601608037
0.00179000848105
0.000709020257739
0.000220300170671
5.50544851169e-05
1.17485285725e-05
2.50233345887e-06
4.868491468e-07
7.97781124961e-08
1.13095600598e-08
1.90511586436e-09
9.30156505657e-10
2.06482448523e-09
2.70397339491e-08
7.64819043978e-07
3.92692082832e-05
0.208823366803
0.143282052186
0.0503206515185
0.020235207823
0.00948787720939
0.00462623779152
0.00190655775893
0.000623177461978
0.000160834364751
3.48418523849e-05
7.51898557401e-06
1.52360277142e-06
2.599524181e-07
3.72721192982e-08
5.58706654248e-09
2.14085497449e-09
4.50967937209e-09
5.21750185503e-08
1.26054510016e-06
4.9607730282e-05
0.220250204901
0.205890647906
0.0757995495376
0.0341367191709
0.0172048186888
0.00877105249695
0.00365856665683
0.0012619592675
0.000353281175228
8.41925734106e-05
1.95035134495e-05
4.1376299304e-06
7.45823235509e-07
1.11381534404e-07
1.60949147259e-08
5.08825799886e-09
9.35269314294e-09
9.18899181198e-08
1.83724987766e-06
5.52299255159e-05
0.219473024344
0.223702056105
0.105487240819
0.0517589477656
0.0270234790172
0.0135406382959
0.00565755647609
0.00207061071155
0.000647166417114
0.0001784153161
4.46134669602e-05
9.75891605564e-06
1.87989095408e-06
2.98436379517e-07
4.37605553482e-08
1.22575034642e-08
1.88501706662e-08
1.53462046889e-07
2.56829447623e-06
6.07160524263e-05
0.214983311684
0.229212342143
0.140504547215
0.0730948990139
0.0381960918681
0.0183478927253
0.00777535796346
0.00305290826897
0.00107301287853
0.000339354490214
9.04500850888e-05
2.03564577295e-05
4.19535165845e-06
7.15618358261e-07
1.10155941054e-07
2.93866713847e-08
3.77047930859e-08
2.46508939522e-07
3.49526967911e-06
6.80754364029e-05
0.209770837291
0.232016839825
0.178103064046
0.0974189371837
0.0502648569999
0.0233985505965
0.0102529172567
0.00432392102063
0.00167996079355
0.000587844162527
0.000166401514611
3.86365326716e-05
8.46168802188e-06
1.55322356034e-06
2.56619470727e-07
6.93055362199e-08
7.6217952069e-08
3.87541901787e-07
4.64055547267e-06
7.72761089375e-05
0.204624002137
0.232872736019
0.204587444172
0.124024284867
0.0637015629672
0.0295328806361
0.0134832172517
0.00602617067686
0.00251448268408
0.000942943741692
0.000284242895531
6.8479444501e-05
1.5785529854e-05
3.10302439293e-06
5.58408792955e-07
1.60013874534e-07
1.5719584213e-07
6.08288028318e-07
6.05499516291e-06
8.8184990225e-05
0.199789091226
0.232121245667
0.218117050151
0.153164043657
0.079672161249
0.037578751539
0.0177291101844
0.00823856667305
0.00359736668382
0.0014204494657
0.000457125149634
0.000115196651121
2.77251534558e-05
5.79681616267e-06
1.14888752474e-06
3.61504078116e-07
3.30839296902e-07
9.70715142792e-07
7.85132465506e-06
0.000101253582038
0.195690932033
0.230274060349
0.226070661317
0.18262379688
0.0992974099228
0.0480516764046
0.023091741961
0.0109707381017
0.00492995519385
0.00202944096195
0.000696277891622
0.000185326755954
4.6450026752e-05
1.02734654321e-05
2.2643285812e-06
8.00698298371e-07
7.06274564912e-07
1.59879212161e-06
1.02547589627e-05
0.000117326083526
0.192335069435
0.227672002454
0.230203513775
0.20302751187
0.123306906046
0.0613098913412
0.0296808846436
0.0142414896271
0.00652619192674
0.00277716532263
0.00100956096227
0.000285874127061
7.47790664581e-05
1.74985232188e-05
4.32146881067e-06
1.74263428752e-06
1.516268784e-06
2.74333666119e-06
1.36556355535e-05
0.000137589605249
0.189738895572
0.224541097027
0.231790503761
0.215573774991
0.15240398504
0.0780985493085
0.0379449753548
0.0181896495667
0.00843278672277
0.00367346488974
0.00140075956367
0.00042323427095
0.000116387055317
2.89532990133e-05
8.10689769655e-06
3.73533624521e-06
3.24535215981e-06
4.91099970258e-06
1.88095236307e-05
0.00016380244231
0.188133368063
0.221064311036
0.231467126972
0.22382557574
0.183243551738
0.0998689359768
0.0489618131051
0.0231992070476
0.0107716313787
0.00474683227152
0.00186965385042
0.000604135480652
0.000176911986623
4.72408014773e-05
1.51818285816e-05
7.89246011521e-06
6.87396577516e-06
9.10404528503e-06
2.7085009537e-05
0.000198894352205
0.187257024597
0.217287483961
0.229612471763
0.228379169659
0.20406446715
0.12917772438
0.0648765899731
0.0301778826467
0.0137774348119
0.00605546994793
0.00242494611433
0.000832393199374
0.000261019591604
7.64289673582e-05
2.85154228474e-05
1.64411973074e-05
1.43293115507e-05
1.72488385574e-05
4.09477647848e-05
0.000247766171258
0.186784432936
0.213277302779
0.226515522626
0.229903952183
0.217588614245
0.166142600463
0.0882492782838
0.0404663315156
0.0178153842721
0.00769245102808
0.00308737288718
0.00111265891553
0.000374088317649
0.000123869605472
5.38790908884e-05
3.37433448227e-05
2.9310274354e-05
3.29522914558e-05
6.49343171007e-05
0.00031843533755
0.186512433338
0.209195113137
0.222513896525
0.229044361679
0.225635488983
0.196585619249
0.120519717253
0.0558066446162
0.0233041009656
0.00969541804657
0.00386198798102
0.00144882006157
0.000530054497773
0.000204674017682
0.000102695251662
6.82835884997e-05
5.87698354045e-05
6.27182534459e-05
0.000106640005079
0.000422734559236
0.186062225703
0.205059224657
0.217925655438
0.226498742777
0.229363957359
0.215739628443
0.159504794604
0.0758970102121
0.0302982935555
0.0119849191863
0.00469050947069
0.00184280572593
0.000756923030202
0.000348758911662
0.000197632295506
0.000136642174964
0.000115576915953
0.000117850172448
0.000178816677548
0.000576767567397
0.185303132928
0.20101214828
0.213243270726
0.223138774458
0.230091416577
0.226358022275
0.192109962321
0.0958210243578
0.0369901589813
0.0140633567141
0.00554736607189
0.00233653886893
0.00110636443886
0.00060562810224
0.000380994560703
0.00026942874977
0.000222541900206
0.000216654170834
0.00029880956276
0.000799944637246
0.184463695432
0.197528651679
0.209195988518
0.220072106655
0.229548406202
0.231224370648
0.208879901288
0.107521977764
0.0401597580212
0.0152310013879
0.00633756451318
0.0030152107769
0.00168155437224
0.00106459993294
0.000726228155643
0.000523480530171
0.000419521547128
0.000386959062332
0.000489295983821
0.00111270527647
0.184254776931
0.195550968731
0.20696539741
0.218653125937
0.229194183757
0.231289537282
0.208638344115
0.101827153174
0.0385815609704
0.0156745688744
0.00726551448304
0.0040805975092
0.00267221811529
0.00189273069395
0.00137167217645
0.00100324439296
0.000777543630152
0.000672850623411
0.000778567691113
0.00153319500131
0.18557799957
0.195965898144
0.207534564556
0.219769447628
0.229342331881
0.225261883944
0.180444795241
0.0817883031118
0.0339629295281
0.0157714557368
0.00879985162052
0.0059033640748
0.00441311093845
0.0033961729925
0.00257806150574
0.00190574526402
0.00142937802465
0.00115041965069
0.00120256191066
0.00207436815162
0.189286728099
0.199365085992
0.21112435705
0.222874405077
0.228015460699
0.213230187424
0.138755553995
0.0631560163731
0.0304893280519
0.0171066755275
0.0117005514696
0.00911365102781
0.0074878097269
0.00610158584555
0.00479833817982
0.00358120248412
0.00261381626546
0.00195577983437
0.00182054336679
0.00275166800659
0.19560003945
0.205441900929
0.216767466278
0.226000613854
0.223790406715
0.195240545344
0.10622806435
0.0528348067796
0.0303308094167
0.0209351559998
0.0169146365995
0.0146493316518
0.0128475128241
0.0109040837098
0.00882047825881
0.00666128238496
0.0047716672589
0.00334609408986
0.00274009705821
0.00358307570381
0.203741093129
0.212865174954
0.222644997841
0.22830606126
0.219804811711
0.171779381241
0.0915343647566
0.0518924841849
0.0352433488791
0.0285741267333
0.0258091673853
0.0240278909053
0.0220508018949
0.0192996906417
0.0159729350044
0.0122269362525
0.00865784859273
0.00576626613588
0.00416105901095
0.00461548182235
0.212317439475
0.220067884194
0.22756187617
0.230040816381
0.218324165314
0.159719158055
0.0917193858305
0.0590605251679
0.0459569818258
0.0415459238247
0.0403785432763
0.0394563169825
0.0374967226422
0.0336710420301
0.0284800124112
0.0221586184445
0.0156235002626
0.0100136597595
0.00643550628521
0.00592946053511
0.219985055802
0.225958943877
0.231134989855
0.231589052477
0.219597474194
0.162705602623
0.104364348316
0.0750850015316
0.0644179374989
0.0624565934
0.0635562166419
0.0639809169867
0.0621580290305
0.0569387465818
0.0490696857256
0.0389175048828
0.027741120776
0.0173698087845
0.0100424383663
0.00764047459214
0.225991129038
0.230251805735
0.233654127752
0.233319612494
0.223168576073
0.177267823893
0.127150416963
0.101160516308
0.0933565253586
0.0945893359404
0.098302011405
0.0997077480148
0.0970380038559
0.0894546784594
0.0779955060847
0.0633189175302
0.0463801241928
0.0291584817164
0.0156978868
0.00984602019299
0.230216094253
0.233162907376
0.235504332139
0.235290226035
0.228430576904
0.200910845211
0.161260009554
0.13991616747
0.135267048776
0.13871514827
0.142716216339
0.142081331915
0.135378760238
0.123115513334
0.107197227665
0.0883989524105
0.0671950069377
0.0438757688022
0.0229663395961
0.0122922843479
0.232891879104
0.235011777527
0.236848122627
0.237133531454
0.233438040216
0.220005925626
0.200172959266
0.187641633424
0.185744417173
0.187359319835
0.183925532006
0.172208877616
0.154884478865
0.00132579938767
0.00147664463075
0.000879938538027
0.00113510706764
0.00063514526817
0.000863433430534
0.000508293030975
0.000753350158315
0.000455768529519
0.000714702458251
0.000445700497384
0.000715390428298
0.000462853651765
0.00074487756305
0.000501049625005
0.000798982949157
0.000559704595864
0.000879207251878
0.000641311186222
0.000989991474736
0.000750894525212
0.00113840506144
0.000895545845981
0.00133370787591
0.00108489715563
0.00158706896244
0.00132897889679
0.00191013079504
0.00164046271213
0.00231514962051
0.00202891749054
0.00281284352856
0.0025105745603
0.00341537996645
0.0030936500033
0.00413177403141
0.00379541225701
0.00497272759682
0.00462317124088
0.00594439578144
0.00557651058671
0.00704143719395
0.00663107268568
0.00824940428877
0.00774877593982
0.00953311988912
0.00896308190598
0.0108928946751
0.010297108582
0.0123430630372
0.0118470384405
0.0139495544966
0.0136332334981
0.0157606597723
0.0156732727452
0.0178068814818
)
;

boundaryField
{
    inletfuel
    {
        type            fixedValue;
        value           uniform 0;
    }
    inletair
    {
        type            fixedValue;
        value           uniform 0;
    }
    outlet
    {
        type            zeroGradient;
    }
    axis
    {
        type            empty;
    }
    leftside
    {
        type            zeroGradient;
    }
    burnerwall
    {
        type            zeroGradient;
    }
    front
    {
        type            wedge;
    }
    back
    {
        type            wedge;
    }
    procBoundary0to1
    {
        type            processor;
        value           nonuniform List<scalar> 
27
(
0.232429779163
0.232577845589
0.232897972725
0.233330545387
0.136106598944
0.118405784326
0.101282130731
0.0816436231579
0.056459962888
0.0294533612523
0.0144800362391
0.23426842226
0.235893359188
0.237496013499
0.238305034168
0.237067363058
0.231900181849
0.224876990108
0.221144274528
0.220156959024
0.214013451926
0.193812270719
0.167498973175
0.136106598944
0.142020836656
0.017681845592
0.0199932615613
)
;
    }
}


// ************************************************************************* //
