/*--------------------------------*- C++ -*----------------------------------*\
  =========                 |
  \\      /  F ield         | OpenFOAM: The Open Source CFD Toolbox
   \\    /   O peration     | Website:  https://openfoam.org
    \\  /    A nd           | Version:  7
     \\/     M anipulation  |
\*---------------------------------------------------------------------------*/
FoamFile
{
    version     2.0;
    format      ascii;
    class       volScalarField;
    location    "0.05";
    object      HE;
}
// * * * * * * * * * * * * * * * * * * * * * * * * * * * * * * * * * * * * * //

dimensions      [0 0 0 0 0 0 0];

internalField   nonuniform List<scalar> 
814
(
2.7881261189e-19
2.1726730304e-19
8.56892944249e-20
2.69796871134e-17
2.75844258646e-17
2.15246084813e-17
1.34423515644e-15
2.19370660302e-15
5.30974064072e-15
4.26753844809e-14
1.26849919793e-13
1.02810418596e-12
1.32825723621e-13
3.38238038507e-13
1.73941185789e-12
3.12607720579e-13
7.45375059916e-13
3.02028799628e-12
9.60521147122e-13
2.43675447065e-12
9.97652113359e-12
3.8418357733e-12
1.00426791709e-11
3.86924969149e-11
1.53294684087e-11
3.78287110445e-11
1.29362082825e-10
5.61921195566e-11
1.26133892531e-10
3.76915110512e-10
1.84926420416e-10
3.73621980109e-10
9.80172326363e-10
5.55001070891e-10
1.0101466918e-09
2.35135892149e-09
1.5477139798e-09
2.56313461793e-09
5.37110357348e-09
4.05500138758e-09
6.18127491509e-09
1.18020253635e-08
1.0109407469e-08
1.43722086984e-08
2.52664697643e-08
2.41488081415e-08
3.24219723954e-08
5.29614190585e-08
5.52334909508e-08
7.07301049006e-08
1.08205643403e-07
1.20942462008e-07
1.48870923839e-07
2.14892610476e-07
2.55436452524e-07
3.03944801415e-07
4.16795570511e-07
5.21613689952e-07
6.03170310623e-07
7.89183903716e-07
1.04095547267e-06
1.17272092468e-06
1.46825556997e-06
2.05249560938e-06
2.25903926396e-06
2.71622581675e-06
4.05265015529e-06
4.37063209682e-06
5.06929669128e-06
7.90548689677e-06
8.38898189069e-06
9.44632143203e-06
1.494286136e-05
1.56465423182e-05
1.71963547567e-05
2.6461613734e-05
2.74450450539e-05
2.95951083473e-05
4.32047187701e-05
4.44471174676e-05
4.71942526048e-05
6.47579735038e-05
6.62242280731e-05
6.94379782575e-05
9.00980501007e-05
9.16587270133e-05
9.50923907663e-05
0.000117642479411
0.000119220029903
0.000122659851825
0.000145964906612
0.000147458370025
0.000150730486949
0.000172790618794
0.000174195192692
0.000177255609655
6.72979165572e-12
7.01540997612e-12
1.01479093906e-11
3.82296399048e-11
1.36817587776e-10
3.97756344449e-10
1.02669347431e-09
2.40691463115e-09
5.25740997398e-09
1.10516495391e-08
2.24904399518e-08
4.5016934889e-08
8.86399593052e-08
1.70705022056e-07
3.21060139482e-07
5.92460645155e-07
1.07018720939e-06
1.90329087077e-06
3.37687560612e-06
6.06858744471e-06
1.09503821766e-05
1.93917176378e-05
3.26354602035e-05
5.10574987775e-05
7.39421404594e-05
9.98854929987e-05
0.000127451734181
0.000155302146864
0.000181527817938
1.7446095548e-13
2.02199394112e-13
2.16553227876e-13
2.18573708471e-13
2.10726658591e-13
1.93220102965e-13
1.68588060603e-13
1.38820291076e-13
1.07151616222e-13
7.64737357592e-14
4.96969905155e-14
2.88013003022e-14
1.45027590766e-14
6.15602581622e-15
2.12366216955e-15
5.75081777381e-16
1.17247047434e-16
1.72802197118e-17
1.68902721571e-18
6.29301281156e-20
9.79238234082e-13
8.38647049852e-13
8.07359321851e-13
7.36157513547e-13
6.79179031945e-13
5.97969599935e-13
5.16606778087e-13
4.2222890569e-13
3.28062593434e-13
2.36397646253e-13
1.56695894169e-13
9.32605598573e-14
4.85230975402e-14
2.13498889169e-14
7.62746496608e-15
2.14832652455e-15
4.52995417037e-16
6.95576936933e-17
6.79759642963e-18
3.10394514255e-19
2.67026478994e-12
1.85197720638e-12
2.37554665868e-12
1.69000308193e-12
1.35729668697e-12
1.12035897297e-12
9.59752014532e-13
7.85539398989e-13
6.21897853154e-13
4.5822662977e-13
3.15547206989e-13
1.96792046258e-13
1.07913859886e-13
5.00263901863e-14
1.87295435216e-14
5.54238401643e-15
1.2197834437e-15
1.97632845418e-16
1.93093000603e-17
2.79163008239e-18
7.09562472629e-12
7.20685721882e-12
1.19959764523e-11
6.21845241323e-12
3.40596355824e-12
2.29775246038e-12
1.870649257e-12
1.51491497125e-12
1.22766289158e-12
9.50485897e-13
7.0121734378e-13
4.74374435222e-13
2.83647534081e-13
1.42942129959e-13
5.7692842949e-14
1.8216894737e-14
4.24572475545e-15
7.29809216294e-16
7.27463474252e-17
4.39740139005e-17
9.87019875084e-12
1.63713899742e-11
3.87845511575e-11
3.51246158722e-11
1.22921299823e-11
5.41204067452e-12
3.80972496793e-12
3.00655315216e-12
2.48755298046e-12
2.05390818604e-12
1.67044714493e-12
1.26010812421e-12
8.35312244793e-13
4.59510196744e-13
1.99320378899e-13
6.68331030234e-14
1.6444046431e-14
2.98345517279e-15
3.10907742957e-16
8.88854698341e-17
2.61045122301e-11
6.83556671124e-11
1.44978854541e-10
1.31527242396e-10
4.20848321666e-11
1.50352872388e-11
8.37372293349e-12
6.24254198245e-12
5.21946600126e-12
4.64256273089e-12
4.23332402111e-12
3.60171246648e-12
2.64689804052e-12
1.57743333063e-12
7.28608007977e-13
2.57312181284e-13
6.6488530369e-14
1.26396171872e-14
1.40190954408e-15
1.88727833895e-16
1.2872544503e-10
3.16887827761e-10
4.97729758877e-10
4.17745255279e-10
1.49776446049e-10
4.86283117444e-11
2.06767270543e-11
1.37885691975e-11
1.15185889704e-11
1.11226273031e-11
1.13885706715e-11
1.083072862e-11
8.70899788425e-12
5.55506199588e-12
2.70716078478e-12
9.99671816694e-13
2.70066212648e-13
5.34550228871e-14
6.31220036722e-15
6.16795850662e-16
4.50568777885e-10
1.11327269682e-09
1.48991176079e-09
1.28248835894e-09
5.70833813496e-10
1.77663488853e-10
5.84506483039e-11
3.31541944886e-11
2.7190228743e-11
2.8341072722e-11
3.22085380903e-11
3.35106452127e-11
2.89295855552e-11
1.95093020647e-11
9.95620064935e-12
3.82446548941e-12
1.07658984852e-12
2.20831365122e-13
2.75714937173e-14
2.55749623845e-15
1.26568397272e-09
3.15205497368e-09
4.12459383383e-09
3.84964092948e-09
2.15675353854e-09
6.93250530252e-10
1.93010118333e-10
9.02065116972e-11
6.99758255474e-11
7.67141963086e-11
9.45702383272e-11
1.04990219865e-10
9.54331053089e-11
6.72834424285e-11
3.57468516803e-11
1.42325498876e-11
4.16337531923e-12
8.81846058207e-13
1.15463105622e-13
1.06724070489e-14
3.12885814257e-09
7.8222840892e-09
1.0686689042e-08
1.07774801971e-08
7.23866888206e-09
2.61428354519e-09
7.02613617569e-10
2.78624894253e-10
1.97995714403e-10
2.19600154313e-10
2.84435832958e-10
3.29271490896e-10
3.09707170908e-10
2.25922359632e-10
1.24338106714e-10
5.11719364986e-11
1.55182137746e-11
3.38454583266e-12
4.61634732022e-13
4.19882156535e-14
6.97247052159e-09
1.76049672408e-08
2.56677170304e-08
2.75981311829e-08
2.11710833729e-08
9.11004043605e-09
2.58614972347e-09
9.3201005066e-10
6.05263693265e-10
6.57018942136e-10
8.65744097985e-10
1.02431742507e-09
9.82716473162e-10
7.34493997061e-10
4.16671594882e-10
1.76822490221e-10
5.54679552862e-11
1.24309719587e-11
1.7585438598e-12
1.55001391344e-13
1.4457177008e-08
3.68849365514e-08
5.71888033281e-08
6.58938753452e-08
5.6219304609e-08
2.92022330897e-08
9.1349868499e-09
3.16889332137e-09
1.92391381513e-09
2.01886195784e-09
2.63789593829e-09
3.13700235667e-09
3.03438129432e-09
2.30306336296e-09
1.33963506054e-09
5.84750926733e-10
1.89374072704e-10
4.35562766862e-11
6.37463051357e-12
5.40726560101e-13
2.87768727092e-08
7.35494779662e-08
1.20344493895e-07
1.49301032697e-07
1.39590174793e-07
8.65229390354e-08
3.08328683352e-08
1.06649912621e-08
6.16658753753e-09
6.2705482417e-09
7.97113367999e-09
9.39356635913e-09
9.07858294442e-09
6.94409302652e-09
4.11988876149e-09
1.84590242162e-09
6.16262698559e-10
1.4542244438e-10
2.19908590814e-11
1.80463549855e-12
5.5161427065e-08
1.40162077126e-07
2.40543924623e-07
3.21219248767e-07
3.27120400379e-07
2.35940216358e-07
9.86041967018e-08
3.51596671139e-08
1.95800939817e-08
1.93229207776e-08
2.36656695046e-08
2.73356125173e-08
2.62106726944e-08
2.00895254601e-08
1.20911450971e-08
5.55520834455e-09
1.91065778931e-09
4.62948160966e-10
7.22873533439e-11
5.82534255187e-12
1.02766516731e-07
2.57132059182e-07
4.58871928365e-07
6.54345565986e-07
7.25845929755e-07
5.89754482665e-07
2.93920024849e-07
1.11520753493e-07
6.05078969277e-08
5.79531253987e-08
6.83285344734e-08
7.68164923472e-08
7.27306791483e-08
5.55980496559e-08
3.38529071954e-08
1.5934291277e-08
5.6484006121e-09
1.40805680824e-09
2.27238188502e-10
1.83878434262e-11
1.88173697003e-07
4.56562773797e-07
8.36847303461e-07
1.26194776101e-06
1.52124892582e-06
1.35331498336e-06
8.00036283827e-07
3.32888628271e-07
1.79169226012e-07
1.66410906823e-07
1.89741483524e-07
2.07124944499e-07
1.93213143687e-07
1.46854124362e-07
9.04778695708e-08
4.3577059347e-08
1.59549574824e-08
4.10578667847e-09
6.87367486933e-10
5.70817576207e-11
3.37044935152e-07
7.82204018765e-07
1.45129142626e-06
2.29096591693e-06
2.9867158066e-06
2.88458367726e-06
1.9689147419e-06
9.17092914459e-07
4.99422123112e-07
4.51390352059e-07
5.01061871365e-07
5.32757767401e-07
4.89092393909e-07
3.69872545866e-07
2.30744749025e-07
1.14012107283e-07
4.32198436658e-08
1.15398561717e-08
2.01841234928e-09
1.75993858834e-10
5.92695624804e-07
1.30886773084e-06
2.43148097347e-06
3.96122805327e-06
5.50654847711e-06
5.79569737001e-06
4.37021402702e-06
2.29430902062e-06
1.28367206306e-06
1.14565909316e-06
1.24848810608e-06
1.29959071941e-06
1.17504756626e-06
8.87990559185e-07
5.62232988946e-07
2.86164597055e-07
1.12917499632e-07
3.15180936999e-08
5.82988200405e-09
5.48122121453e-10
1.02892034023e-06
2.14746110968e-06
3.95054955376e-06
6.5587738274e-06
9.56021482186e-06
1.08960097065e-05
8.80987815595e-06
5.20832954775e-06
3.0277862742e-06
2.71606861223e-06
2.92088998274e-06
2.98854229644e-06
2.67233046184e-06
2.03184181679e-06
1.31192051388e-06
6.91786743196e-07
2.86170364494e-07
8.43669170201e-08
1.66991454564e-08
1.73888676075e-09
1.74930166614e-06
3.44025526106e-06
6.21657588254e-06
1.04187138634e-05
1.56989903876e-05
1.89760489857e-05
1.63907732966e-05
1.06901969843e-05
6.61397770612e-06
6.02387945521e-06
6.42649372304e-06
6.44802654255e-06
5.73580666008e-06
4.43634256044e-06
2.94031846841e-06
1.61739499097e-06
7.06494693136e-07
2.22706487962e-07
4.80834189491e-08
5.62534308331e-09
2.93038951197e-06
5.41862006446e-06
9.57510645762e-06
1.60537045588e-05
2.46303896957e-05
3.07224797148e-05
2.81558377039e-05
1.99490829871e-05
1.34752294369e-05
1.26427051515e-05
1.32762425479e-05
1.30685183916e-05
1.15814801026e-05
9.12780856922e-06
6.28359758021e-06
3.61400554858e-06
1.68203423848e-06
5.74971707851e-07
1.36383426328e-07
1.82359075045e-08
4.9112650583e-06
8.53129879188e-06
1.46123820011e-05
2.42069781141e-05
3.7018216601e-05
4.66534559819e-05
4.48947810831e-05
3.43356018673e-05
2.60296693244e-05
2.52543218497e-05
2.57510585739e-05
2.47856552819e-05
2.19191185196e-05
1.75906315122e-05
1.25659134513e-05
7.64502103273e-06
3.82716131632e-06
1.43102038232e-06
3.78140380988e-07
5.81282117965e-08
8.36494900615e-06
1.37147066587e-05
2.25983648227e-05
3.64359574386e-05
5.4362513516e-05
6.76758195582e-05
6.72589935297e-05
5.52136664875e-05
4.73920077241e-05
4.66829964445e-05
4.61346123706e-05
4.36259098754e-05
3.86591278008e-05
3.16314967395e-05
2.34323369842e-05
1.51022019626e-05
8.15294721917e-06
3.35822138125e-06
9.97367257206e-07
1.76263362781e-07
1.43867972365e-05
2.22935173921e-05
3.51699777739e-05
5.45495960891e-05
7.81277636325e-05
9.42853069946e-05
9.60928328365e-05
8.50601233517e-05
7.96071378772e-05
7.79744937583e-05
7.5781142539e-05
7.10462843264e-05
6.33679732662e-05
5.30172346033e-05
4.07717143393e-05
2.77922998063e-05
1.61884432723e-05
7.37921601895e-06
2.47363651889e-06
5.01254668585e-07
2.43948630716e-05
3.5754196638e-05
5.371574888e-05
7.94344060587e-05
0.000107218275168
0.000125141386295
0.000131222739795
0.000124418369802
0.000121057337802
0.000118880309637
0.000114971463746
0.000107726956535
9.70759279952e-05
8.31016274444e-05
6.62715743525e-05
4.75909520179e-05
2.9779919257e-05
1.49506918705e-05
5.62352136519e-06
1.30055861652e-06
3.95142311477e-05
5.48560115828e-05
7.82012450818e-05
0.000108937517574
0.000138477210061
0.000158893246523
0.000171449181013
0.000171404019275
0.00017038126629
0.00016882382594
0.000163438347912
0.000153802261081
0.000140452838685
0.000123097819932
0.000101700749571
7.67140694377e-05
5.12536413252e-05
2.81521568062e-05
1.17965391901e-05
3.09976082313e-06
5.97621214854e-05
7.86521951214e-05
0.000105793914464
0.000138736334141
0.00016882108122
0.000194429447895
0.000214540445166
0.000223292384193
0.000227182135257
0.000227017045835
0.000220895293572
0.000209788058589
0.000194566096825
0.000174639661283
0.000149221338137
0.000117751699954
8.32245804451e-05
4.93090740757e-05
2.25949697954e-05
6.67484768317e-06
8.40102727172e-05
0.000105162136971
0.000133937995591
0.000166841959247
0.000198324441416
0.000230449936916
0.000259662893701
0.000279029025218
0.000289813032859
0.00029187167009
0.000286200143753
0.000275066597819
0.000259984359191
0.000239228594525
0.000211536113964
0.000174451576501
0.000129615184081
8.17431984527e-05
4.03439770184e-05
1.31336754597e-05
0.000110589554663
0.000132443492119
0.000161209297916
0.000193833432787
0.0002276790259
0.000265793602488
0.000303888503818
0.000334005903085
0.000352688462178
0.000358598439517
0.0003553560256
0.000346331494826
0.000333655242646
0.000314742666459
0.000287819738873
0.000248250491347
0.000194384328322
0.000129498028389
6.69190734191e-05
2.3075122768e-05
0.000138137333844
0.000159614566882
0.000187793007409
0.000220768720009
0.000257682518712
0.000300547054231
0.000344946697835
0.000382465600658
0.000407127529546
0.000417101662144
0.000416862387557
0.000410500838752
0.000400998012461
0.000386713438576
0.000365643372623
0.000331135738105
0.000275203900684
0.000194513775887
0.000105021581826
3.69860114464e-05
0.000165543988915
0.000186125069153
0.000213634630508
0.000247138751292
0.000286252024132
0.000330808052314
0.000376008592866
0.000414148721997
0.00043906415975
0.000449055229666
0.000448500775496
0.000442419653979
0.000435050678634
0.00042743756465
0.00041802833887
0.000398053097707
0.000352478122608
0.000266585518916
0.000150038800574
5.17629939772e-05
0.000191146970226
0.000210649823311
0.000237249587224
0.000270293066582
0.000308694642265
0.000349982720849
0.000388282568563
0.000417197941701
0.000433044024012
0.000435769783964
0.000429218557091
0.000419465500687
0.000413327441527
2.74910191872e-15
3.65091727916e-15
2.10421892986e-15
4.05735112339e-15
2.12851143668e-15
4.79992836571e-15
3.03890342318e-15
7.22865195024e-15
5.97609566378e-15
1.27429117746e-14
1.45432405687e-14
2.56601206073e-14
3.94044398021e-14
5.71410185405e-14
1.11395077612e-13
1.36941269447e-13
3.20845590875e-13
3.49535408344e-13
9.38025194168e-13
9.5067501544e-13
2.80041476881e-12
2.76741391145e-12
8.61943786441e-12
8.62339712622e-12
2.75211656786e-11
2.8438893502e-11
9.10606162784e-11
9.69436379949e-11
3.08067041818e-10
3.31800393325e-10
1.04739015832e-09
1.11174789827e-09
3.4908232058e-09
3.57195766795e-09
1.12262595596e-08
1.08659624542e-08
3.42406807306e-08
3.10711574249e-08
9.82005329059e-08
8.33727428566e-08
2.62790772806e-07
2.09469146442e-07
6.51554003199e-07
4.90673775208e-07
1.50421330009e-06
1.07094968746e-06
3.15802932095e-06
2.15210824967e-06
6.08356219697e-06
3.98612829967e-06
1.04128941e-05
6.6215351609e-06
1.59927784073e-05
9.81840227574e-06
2.06408779375e-05
1.21981678601e-05
)
;

boundaryField
{
    inletfuel
    {
        type            fixedValue;
        value           uniform 0;
    }
    inletair
    {
        type            fixedValue;
        value           uniform 0;
    }
    outlet
    {
        type            zeroGradient;
    }
    axis
    {
        type            empty;
    }
    leftside
    {
        type            zeroGradient;
    }
    burnerwall
    {
        type            zeroGradient;
    }
    front
    {
        type            wedge;
    }
    back
    {
        type            wedge;
    }
    procBoundary0to1
    {
        type            processor;
        value           nonuniform List<scalar> 
27
(
0.00019497686253
0.000196189960303
0.000198873823772
0.000202626619893
0.000414131820044
0.000420489132378
0.000424296592063
0.000403786388842
0.000326884318625
0.000188524511668
6.33517201892e-05
0.000211130370413
0.000228481692748
0.00025215879876
0.00028103907802
0.000312747497219
0.000343266523542
0.000367322847072
0.000380845197751
0.00038331804223
0.000377242602433
0.00036716927521
0.000359221358988
0.000414131820044
0.000359287856054
2.31978588325e-05
1.26104366807e-05
)
;
    }
}


// ************************************************************************* //
