/*--------------------------------*- C++ -*----------------------------------*\
  =========                 |
  \\      /  F ield         | OpenFOAM: The Open Source CFD Toolbox
   \\    /   O peration     | Website:  https://openfoam.org
    \\  /    A nd           | Version:  7
     \\/     M anipulation  |
\*---------------------------------------------------------------------------*/
FoamFile
{
    version     2.0;
    format      ascii;
    class       volScalarField;
    location    "0.05";
    object      k;
}
// * * * * * * * * * * * * * * * * * * * * * * * * * * * * * * * * * * * * * //

dimensions      [0 2 -2 0 0 0 0];

internalField   nonuniform List<scalar> 
814
(
21.1852309899
18.6451772462
10.693483952
21.8888088725
18.8640569662
9.20614228817
21.4880900952
19.3069964482
8.68421535678
21.331990411
22.2168242267
22.8025945987
21.7946413872
25.525943705
38.0179054676
22.531254239
28.9302562174
45.2152349253
23.8357602234
32.958261371
51.6884684251
25.7250254133
37.3085386841
56.4093573286
28.2071310735
41.5800853384
59.1835174147
31.1958658926
45.3604451618
60.2986029225
34.3429591796
48.1258341111
60.01348487
37.1816526106
49.5390813763
58.5662697204
39.2479366194
49.5688437361
56.2248337173
40.2372475
48.3617171845
53.1679755331
40.0726311649
46.1852631097
49.6397355015
38.9118198127
43.3622383791
45.8768563237
37.1054241541
40.2786623025
42.1614598542
35.1280672062
37.3761671701
38.8766966674
33.385668965
35.0411142089
36.367824026
32.2465571364
33.536468759
34.8229260527
31.8523305784
32.9099760158
34.1873781542
32.099677994
32.9816573727
34.2021427109
32.4988575867
33.218152832
34.3047040082
32.298957337
32.8326397137
33.6764389953
30.6258142132
30.9639607815
31.4846883304
27.140288568
27.2871888716
27.4800424923
22.3285915168
22.3405602518
22.2838526782
17.2523888153
17.1903099341
17.0148769893
12.8441147633
12.768451529
12.5839551212
9.62112143287
9.55836331769
9.4171538631
7.58343212568
7.54234714066
7.45331186034
6.48809727127
6.4607480481
6.40620432472
3.98909966934
18.0194789005
30.0168490428
37.6455246304
42.4633377018
45.9128537642
48.126940333
49.1808316902
49.3084752885
48.540924873
46.9582531541
44.6455023762
41.980324283
39.28843282
36.9655865444
35.3335079714
34.5209965836
34.4222355676
34.7562182001
34.9587376568
34.2147388331
31.7557280408
27.4369617291
22.0179901407
16.6694903966
12.2822929594
9.20519768465
7.32613750365
6.33323275097
0.0155724381745
0.0268292914446
0.0319990109084
0.0342510688176
0.0343103660344
0.0338935518728
0.0328344478837
0.0312828779473
0.0296102269369
0.0277018782302
0.0257524021967
0.023764016376
0.0218872777067
0.0201681109687
0.0187218523981
0.0174910513434
0.0166436273513
0.0159381197191
0.0156314285516
0.0155943332249
0.0190272805638
0.0406093450889
0.0471995514827
0.0523931324246
0.0497315633398
0.0470024443281
0.0432494738966
0.0392394964115
0.0354739052927
0.0320038421613
0.0288756157588
0.0260748453474
0.0235845019297
0.0214729314229
0.0196832365428
0.0183004891859
0.0172257998261
0.0164871184795
0.0161201037381
0.0161522050443
0.0364307560955
0.0407169651112
0.0536944203365
0.062404860709
0.0611276913131
0.0567350918347
0.0508810715309
0.0446487513053
0.0392734558566
0.0345664419988
0.0306426143631
0.0273406832713
0.0245108915803
0.0221910065894
0.020231453431
0.0187659796902
0.017582457018
0.0168470930559
0.016418291639
0.0166108150349
0.262797107076
0.0415277538835
0.0573733458165
0.0639388563264
0.0690313226362
0.0642083601271
0.0589775636063
0.0502890097763
0.0433947279375
0.0371982562535
0.0323679660107
0.028489507772
0.0253194889847
0.0227988625887
0.0207074303541
0.0191664224513
0.0179104576639
0.017184326038
0.0165719563238
0.0207015414776
0.822830796324
0.12167854156
0.0634507327711
0.0686658985604
0.0754001241083
0.0700581831911
0.0651315371406
0.055817399619
0.0478015056518
0.0402362900027
0.034413691885
0.0298027483581
0.0262082284484
0.0234308545612
0.0211964017838
0.0195586677788
0.0182417197431
0.0174800331287
0.0168239037564
0.0245983392008
2.54170967792
0.245633195781
0.0771343201444
0.0793411907072
0.0772213962215
0.0715349220078
0.0668934690253
0.0599382282649
0.0517961228175
0.0435847610362
0.0368816011921
0.0314644740183
0.0273371924857
0.0242220864398
0.0217932117582
0.0200279745394
0.0186335087586
0.0178141869308
0.0172142506493
0.0281569509126
3.99236306333
0.348333308416
0.0992187848059
0.0874427196636
0.0743037356204
0.0674889805688
0.0643176157353
0.0610888549677
0.0545336269464
0.0467112345132
0.039484555255
0.0333869483734
0.0286780323701
0.0251670703354
0.0224936379001
0.0205779249245
0.0190869198189
0.0182072197256
0.0177350030199
0.0307537031554
5.86615443508
0.536228051154
0.13922100324
0.097203254698
0.0701597638569
0.0604710353653
0.0595656436415
0.0599716487461
0.0559070413479
0.0492517393042
0.0419850737724
0.0354434003354
0.0301764045331
0.026237225766
0.0232798310452
0.0211932753816
0.019589598017
0.018641990451
0.0183262447981
0.0329515683812
8.26352475714
0.831447570345
0.207124441038
0.115381478501
0.0681742019371
0.0540166701554
0.0548786866169
0.0579057226417
0.0562308004539
0.0511085648554
0.0442730487768
0.0375385911111
0.0317929242575
0.0274158848518
0.0241447611759
0.0218657405798
0.0201338914798
0.0191081038889
0.0189091625734
0.0348007547377
10.9790232087
1.26272081492
0.323270214919
0.152439075456
0.0732109239994
0.0508319487808
0.0512910604052
0.0554559386012
0.0557091746918
0.0522619151021
0.0462798628717
0.0396055165961
0.0335015435339
0.0287001699375
0.0250948677789
0.0226012521867
0.0207235977785
0.0196139287396
0.0194502105277
0.0361854844911
13.8417781576
1.87883058057
0.519768069857
0.223699535564
0.09082803412
0.0521697749389
0.0487934902681
0.0526018597865
0.0543898179048
0.0526792523056
0.0479079769836
0.0415730781384
0.0352701001911
0.0300854066746
0.0261373979338
0.0234089528984
0.0213652835743
0.020167740621
0.0199662517385
0.0370283991414
16.7376594245
2.74683282049
0.835893450255
0.351221434902
0.128337865905
0.0595895465135
0.0476190892843
0.0495249897832
0.0523758527335
0.0523944809937
0.0490555164886
0.043357417557
0.0370474637624
0.0315531056726
0.0272690928143
0.0242902268438
0.0220592715997
0.0207647082933
0.020477369821
0.0374283659721
19.4169723755
3.90973831634
1.31645858844
0.56583994086
0.197573189552
0.077146391572
0.04923072784
0.0469294017024
0.049964514238
0.0514999882982
0.0496671932269
0.0448746292531
0.0387670232513
0.0330676090751
0.0284714816916
0.0252336194054
0.0227950616828
0.0213858170574
0.0209817511485
0.0375066987131
21.7940680377
5.42893579764
2.03136492785
0.91120606516
0.317762395834
0.112987786201
0.0568711683841
0.0460078060765
0.0476114578679
0.0501381404541
0.0497388849745
0.046049964899
0.0403508047267
0.0345745673413
0.0297071294274
0.0262102380739
0.0235466606377
0.0219976677428
0.0214501168815
0.0373231232289
23.8651744625
7.36605524715
3.06845830107
1.43681124042
0.521946969247
0.18240724345
0.0768555361522
0.0485905861223
0.0458332495414
0.0484546668039
0.0493137302817
0.0468134383452
0.0417156805206
0.0359989498172
0.0309160972059
0.0271696082659
0.0242682170462
0.0225513558638
0.0218402119309
0.036894836623
25.5245472081
9.71955943252
4.50937478552
2.20145453104
0.861643337527
0.312328958485
0.12135641837
0.057908956103
0.0453904760985
0.0466292323057
0.0484101688012
0.0471294453255
0.0427710602695
0.0372394513825
0.0320076566466
0.0280314021866
0.0248874340812
0.022978415612
0.0220929991079
0.0362335307752
26.8702592638
12.4912660845
6.47481794361
3.3334181314
1.42396526841
0.549778162379
0.214285257919
0.0811347702649
0.0478151018976
0.044973108477
0.0470915071593
0.0469670678128
0.0434451317004
0.0381950270445
0.032876125878
0.0286955704555
0.025314954033
0.0232008221627
0.0221452327254
0.0353791467863
28.1344668994
15.6855110786
9.03456436254
4.94687693039
2.26685737268
0.954498549643
0.394372688478
0.132463205014
0.0560116176596
0.0440520609543
0.0454954135118
0.0463379750298
0.0436607706192
0.0387495386142
0.0333944852628
0.0290358375386
0.0254432308146
0.02313545921
0.0219446303394
0.0344017491848
29.4877324491
19.1739331152
12.1355344647
7.07093325919
3.42951675923
1.57441159642
0.704316761478
0.239916387499
0.0749455758999
0.0446268802596
0.0438384370664
0.0453657574919
0.0434359181008
0.0388473551787
0.0334868284159
0.028969392931
0.025201845204
0.0227366038481
0.0214880619173
0.0334499885126
31.0292580446
22.819270726
15.6751517438
9.66505104551
4.91486354467
2.38204805146
1.16050923572
0.424985155022
0.110270932709
0.0470888730014
0.0423287747712
0.0442420421047
0.0428250149602
0.0384304180927
0.0330686403022
0.0284493546658
0.0245753199104
0.0220238290408
0.0208488590268
0.0327300735546
32.6616453212
26.3721658726
19.343678361
12.4298636067
6.49251381186
3.19812610872
1.67592161151
0.665675797796
0.154104328682
0.0504675121309
0.0412796030071
0.0432701456996
0.0419655007813
0.0375203530757
0.0321523556206
0.0275183881428
0.0236596087401
0.0211288615236
0.0202070562024
0.0324963748877
34.1209456341
29.3610499537
22.5527422092
14.8233299326
7.84114321349
3.90318932799
2.17419343362
0.860680651864
0.177834043664
0.051942798892
0.0409179020469
0.0427085779483
0.0409461451568
0.0361733660945
0.0308266496038
0.0263038168448
0.0226349671986
0.0202704153317
0.0198256945944
0.0330198937638
34.892544009
31.0555664213
24.3724944133
16.069121984
8.49166022738
4.29269727872
2.39302127616
0.827125975377
0.166189688085
0.0519669051108
0.0418551960257
0.0428350581102
0.0399975393271
0.0347035737959
0.0294110291377
0.025093560477
0.0217721547802
0.0197460169252
0.0200139234813
0.0345029869294
34.2109841277
30.6807803092
23.9522976221
15.4511302178
7.98364536198
4.08774416636
2.09649950191
0.595710941647
0.131161531583
0.0507366751434
0.0443044636951
0.0437328161771
0.0395151698744
0.0337387035876
0.0285018273979
0.0243841974333
0.0214367699139
0.0198592529414
0.0210324464395
0.037081307767
31.4435076431
27.8144455304
21.1612113242
13.0988125667
6.70141436993
3.51613501501
1.5552727674
0.384317372719
0.0999585703967
0.0518871326598
0.0486601517263
0.0464751163379
0.0411269486617
0.034903196963
0.0294619779631
0.0251380451914
0.0222056659301
0.0209334538488
0.0230737404736
0.0408075633867
26.7073567541
23.0194131887
16.9444429926
10.2090637711
5.46172888731
2.9797421218
1.10193293496
0.258076211162
0.0826684977762
0.0575647196498
0.0565549389631
0.0538333346004
0.0480924331448
0.041257385979
0.0349111304611
0.0293653799799
0.0252717404834
0.0234594545334
0.0261850570021
0.0456080193948
21.0350168107
17.6898004916
12.8247211106
7.92997815479
4.79161748195
2.71562448304
0.876463770314
0.211687568142
0.0850101137452
0.0710874395578
0.0727891728055
0.0717611356552
0.0667027717693
0.0586895304261
0.0499123370814
0.0410757757288
0.0332756757592
0.0286400874077
0.0306626859242
0.0514824896917
15.6996386634
13.0761707561
9.65949362808
6.53508280057
4.60063858906
2.70837642884
0.832134984906
0.217700778546
0.106116760101
0.099485950351
0.107764050297
0.11166846606
0.108801781548
0.0985992653287
0.0847927922889
0.0689679740307
0.0523333386806
0.0396520938363
0.037380379398
0.058535248082
11.5192502349
9.73860812644
7.61151588695
5.79259524462
4.63675512936
2.82251473121
0.927233732685
0.281071730736
0.159915493115
0.16171106856
0.183329030946
0.196792265311
0.19696227199
0.181722741972
0.157628841395
0.128299352732
0.0949672684706
0.0638527531648
0.0489001082229
0.0677286525323
8.69879319043
7.62883926852
6.42191526998
5.40262842371
4.62179351962
2.87257679059
1.07830113093
0.41354999762
0.28467385532
0.303049430266
0.343797346869
0.365876252445
0.360769022578
0.329203513533
0.283608197789
0.232999555274
0.176456310876
0.114020499824
0.0709182386482
0.0808474570633
7.03243390596
6.44579872351
5.78764321865
5.16486735669
4.46352123734
2.88482378647
1.33499938194
0.694304879054
0.565142108143
0.59449632712
0.638490126666
0.639978987093
0.591548792294
0.51248749652
0.429472859843
0.35517185019
0.284354258025
0.194351977692
0.108038492235
0.0996772754708
6.16869666512
5.84669448386
5.45376545944
4.97894536571
4.27801333848
2.9927821387
1.79768782418
1.26328730647
1.12249145034
1.09711002017
1.03661557827
0.898174607829
0.730139920127
0.0629064939279
0.0655732976533
0.118039818016
0.0829191501278
0.12260095364
0.0915009818959
0.1169646834
0.0893250385261
0.109730706066
0.0845166276301
0.101946409844
0.0788446845112
0.0945498231132
0.0730652582117
0.0877440364146
0.0675276483
0.0816401969667
0.0623536490675
0.0761961022057
0.0576195382949
0.0713643539301
0.0533954393264
0.0671257366852
0.0497623105023
0.0634873702127
0.0467994489609
0.0604955025908
0.0445988555373
0.0582358757736
0.0432313468525
0.0568029635136
0.0427847234372
0.0563475197853
0.0433097876575
0.056926618009
0.044887778397
0.0587001273538
0.0475867836244
0.0617489438622
0.0515152472445
0.06616295087
0.0567649626566
0.0718382938808
0.0633915140889
0.0784839817445
0.0713839449984
0.0862010357261
0.0806854176096
0.0949741670736
0.0911706756497
0.105020063102
0.10277633485
0.11692590928
0.11644288822
0.132973691006
0.134760532816
)
;

boundaryField
{
    inletfuel
    {
        type            turbulentIntensityKineticEnergyInlet;
        intensity       0.05;
        value           uniform 13.5;
    }
    inletair
    {
        type            turbulentIntensityKineticEnergyInlet;
        intensity       0.05;
        value           uniform 0.015;
    }
    outlet
    {
        type            inletOutlet;
        inletValue      nonuniform 0();
        value           nonuniform 0();
    }
    axis
    {
        type            empty;
    }
    leftside
    {
        type            kqRWallFunction;
        value           nonuniform List<scalar> 
33
(
0.0629064939279
0.0655732976533
0.0155943332249
0.0161522050443
0.0166108150349
0.0655732976533
0.0829191501278
0.0915009818959
0.0893250385261
0.0845166276301
0.0788446845112
0.0730652582117
0.0675276483
0.0623536490675
0.0576195382949
0.0533954393264
0.0497623105023
0.0467994489609
0.0445988555373
0.0432313468525
0.0427847234372
0.0433097876575
0.044887778397
0.0475867836244
0.0515152472445
0.0567649626566
0.0633915140889
0.0713839449984
0.0806854176096
0.0911706756497
0.10277633485
0.11644288822
0.134760532816
)
;
    }
    burnerwall
    {
        type            kqRWallFunction;
        value           nonuniform List<scalar> 7(10.693483952 9.20614228817 8.68421535678 0.0155724381745 0.0190272805638 0.0364307560955 3.98909966934);
    }
    front
    {
        type            wedge;
    }
    back
    {
        type            wedge;
    }
    procBoundary0to1
    {
        type            processor;
        value           nonuniform List<scalar> 
27
(
6.21284221442
6.19352122216
6.15739747335
6.11285796082
0.58650629109
0.484750629964
0.421970438609
0.374056354229
0.284893224142
0.154285825533
0.126098869352
6.01695177064
5.82949812254
5.56791984357
5.18507745846
4.5844387994
3.66475898544
2.79842455945
2.24856414036
1.88407037988
1.55162922339
1.20314462291
0.892340489136
0.58650629109
0.661130205685
0.150911030719
0.149716307508
)
;
    }
}


// ************************************************************************* //
