/*--------------------------------*- C++ -*----------------------------------*\
  =========                 |
  \\      /  F ield         | OpenFOAM: The Open Source CFD Toolbox
   \\    /   O peration     | Website:  https://openfoam.org
    \\  /    A nd           | Version:  7
     \\/     M anipulation  |
\*---------------------------------------------------------------------------*/
FoamFile
{
    version     2.0;
    format      ascii;
    class       volScalarField;
    location    "0.05";
    object      N2;
}
// * * * * * * * * * * * * * * * * * * * * * * * * * * * * * * * * * * * * * //

dimensions      [0 0 0 0 0 0 0];

internalField   nonuniform List<scalar> 
814
(
1.88117064148e-08
1.46689650427e-08
5.63178026436e-09
1.95763483968e-06
2.036181877e-06
1.61665389975e-06
0.000102637995895
0.000172258542453
0.000431092113854
0.0033584226577
0.0103404579542
0.0872031747591
0.00969089407053
0.0253201119495
0.133490840515
0.0188782410046
0.0442664949732
0.17010363936
0.0321197424488
0.0682034716112
0.205131409451
0.049798310659
0.0958638101512
0.235176664707
0.0718510544685
0.125071327481
0.259778649897
0.0983324714315
0.155138508751
0.279744430286
0.128396106707
0.184940214494
0.296617339278
0.160824852385
0.213770851316
0.311785603148
0.194394950762
0.241711874623
0.326766626617
0.228330576111
0.26924276627
0.342547870723
0.262510243784
0.297226233347
0.360198857708
0.297154616396
0.326359419672
0.380294141645
0.332253682307
0.356638509894
0.402421381372
0.367160004121
0.387227168115
0.425374059241
0.400694718823
0.416801778508
0.447753250109
0.43090632931
0.44346857622
0.4677525918
0.456176324593
0.465612515344
0.483981308714
0.475860604665
0.482729183913
0.496236756953
0.491236577063
0.496209427082
0.506153217174
0.505127981197
0.508892617318
0.516571461287
0.521437762239
0.524518990391
0.530956534252
0.542880845889
0.545632571576
0.551450337656
0.569611319181
0.572097851005
0.577451984764
0.598841390812
0.601057086549
0.605826036518
0.626931730195
0.628764628663
0.632738730655
0.650625609143
0.652071025834
0.655187351623
0.668453017353
0.669523062184
0.671841103163
0.680060763976
0.680848411656
0.682549000653
0.59601037879
0.540018870621
0.472060770254
0.44987411136
0.437560222389
0.427714431229
0.421530203594
0.418272220349
0.416925935641
0.418254781641
0.42233377756
0.430149740369
0.441312226543
0.454854458487
0.469332778255
0.483533622882
0.495920914527
0.505453333582
0.512286761746
0.518286789328
0.526252741422
0.539334442404
0.559200633037
0.584665498407
0.612289924696
0.638135617751
0.659426574469
0.675009241499
0.684877734827
0.767996755976
0.767997626639
0.767998808989
0.767999441527
0.767999750176
0.767999895324
0.767999958452
0.767999984739
0.767999994872
0.76799999847
0.7679999996
0.767999999908
0.76799999998
0.767999999993
0.767999999996
0.767999999996
0.767999999996
0.767999999992
0.767999999959
0.767999999894
0.767763774661
0.767917978536
0.767975777044
0.767991216788
0.767996469557
0.767998657974
0.767999503166
0.767999833802
0.767999949089
0.767999986289
0.767999996714
0.76799999932
0.767999999874
0.767999999972
0.767999999987
0.767999999988
0.767999999986
0.767999999945
0.767999999341
0.767999994609
0.766583734735
0.767733065179
0.767879048873
0.767953872054
0.767980003245
0.767992317079
0.767997111094
0.767999076558
0.767999737522
0.767999935171
0.767999985311
0.767999997125
0.767999999515
0.767999999916
0.767999999972
0.767999999978
0.767999999965
0.767999999715
0.767999993576
0.767999858485
0.754878023748
0.76691027958
0.767505551243
0.767777502044
0.767894904164
0.767959757449
0.767984891465
0.767995336198
0.76799876543
0.767999714092
0.767999937292
0.767999987949
0.767999998037
0.767999999704
0.767999999931
0.767999999953
0.767999999904
0.767999998756
0.767999962855
0.767997514607
0.737003992119
0.760752349449
0.765566902311
0.767098688576
0.767620440311
0.767836962582
0.767935372242
0.767979927588
0.767994992035
0.767998933816
0.767999773614
0.767999956068
0.767999992802
0.767999998966
0.767999999812
0.767999999898
0.767999999769
0.767999996973
0.767999914387
0.767995604253
0.70574986673
0.753595983138
0.763460066254
0.766175468035
0.767152620833
0.767586696806
0.76782888568
0.767943940803
0.76798553475
0.767996871137
0.767999326064
0.76799986363
0.767999976731
0.767999996634
0.767999999464
0.767999999768
0.767999999495
0.767999994159
0.767999858894
0.767994446937
0.68337339412
0.746853789176
0.76118974798
0.764957450557
0.766482048564
0.767226233231
0.767675328229
0.767887629261
0.767968527644
0.767992507442
0.767998265843
0.767999632181
0.767999933658
0.767999990022
0.767999998486
0.767999999456
0.767999998954
0.767999989713
0.767999794336
0.767993817509
0.661982761691
0.739468418417
0.758333481019
0.763405322019
0.765632728643
0.766815441109
0.767502262636
0.767817209206
0.767942825747
0.767984245994
0.767996059896
0.767999137447
0.767999833641
0.767999973414
0.767999995932
0.767999998705
0.767999997894
0.767999982821
0.767999712503
0.767993203345
0.64136301191
0.731390792651
0.754682888732
0.761489617864
0.764664131985
0.766403173169
0.767320363114
0.767732388879
0.767905858817
0.767970220905
0.767992055582
0.767998209516
0.767999630313
0.767999936487
0.767999989816
0.767999996919
0.767999995791
0.767999972404
0.76799960874
0.767992379569
0.62265575014
0.722642958236
0.750108166624
0.759218524043
0.763607193829
0.765969266234
0.767107849124
0.767622930343
0.767853373657
0.767948660051
0.767985450242
0.767996615771
0.76799925696
0.76799986244
0.767999976276
0.767999992745
0.767999991493
0.767999956613
0.76799948054
0.767991349719
0.605677694241
0.713012698812
0.74468220125
0.756560811077
0.762407681253
0.76543931126
0.766830175903
0.767476239046
0.767781310148
0.767917937753
0.767975236085
0.767994022542
0.767998617492
0.767999725242
0.767999948099
0.767999983172
0.767999982442
0.76799993189
0.767999322206
0.767990128635
0.590291810412
0.702476075488
0.738539326393
0.753312191845
0.760937338583
0.764738558113
0.766464248003
0.767285366598
0.767687820363
0.767876694694
0.767960284158
0.767989971623
0.76799757557
0.767999485492
0.767999891985
0.767999961589
0.767999962971
0.767999891276
0.767999121111
0.767988665754
0.577499443208
0.691511475164
0.731646886584
0.749216790714
0.759045070508
0.763814794252
0.766000419201
0.767049412318
0.767572754844
0.767824141493
0.767939626452
0.76798389498
0.767995938224
0.7679990825
0.7679997831
0.767999913625
0.767999920669
0.767999820825
0.767998852025
0.767986866578
0.567131443242
0.680052424973
0.723692236985
0.744138478503
0.756565228756
0.76261922773
0.765426920133
0.766766576182
0.767434898598
0.767759639039
0.767912574655
0.767975173766
0.767993446244
0.767998418823
0.767999574663
0.767999808416
0.767999828826
0.767999692251
0.767998471195
0.767984598199
0.559141369925
0.668079762556
0.714405899926
0.737905426033
0.75317799322
0.761044309109
0.764699491873
0.766424341389
0.767270194553
0.767682300636
0.767878764062
0.767963214989
0.767989741663
0.767997332252
0.767999173208
0.767999580428
0.767999631271
0.767999448249
0.767997893898
0.767981663722
0.554176339636
0.655866757316
0.703698207899
0.730218362311
0.748426804976
0.758862957335
0.763709369853
0.765987808469
0.767067909575
0.767589546565
0.767838107681
0.767947333259
0.767984239638
0.767995518358
0.767998385558
0.767999093089
0.767999212968
0.76799897501
0.767996966553
0.767977735055
0.551420986481
0.643253188642
0.69114225254
0.720358695385
0.741795557001
0.755606410036
0.762225316252
0.765373243421
0.766807078366
0.76747604188
0.767789599803
0.76792695583
0.767976316727
0.767992449762
0.767996827433
0.767998066705
0.767998344538
0.767998052613
0.767995412179
0.767972263354
0.549892639293
0.630314291053
0.676944711175
0.708188679619
0.732928226007
0.750549900852
0.759912120488
0.764452613677
0.766454842897
0.767333169134
0.767730911863
0.767901161531
0.767965045807
0.76798712192
0.767993730821
0.767995940689
0.767996578018
0.767996266129
0.767992720357
0.76796435067
0.548975486909
0.617425721402
0.661530078752
0.693947013683
0.721694533276
0.743299019628
0.756444353708
0.763048718249
0.76597301414
0.767156753498
0.767660582828
0.767868602781
0.767948322388
0.767977494196
0.767987560389
0.767991602412
0.767993053742
0.767992858739
0.767988033872
0.767952671387
0.547531456882
0.604547167195
0.645382821117
0.678323189672
0.708731451086
0.734407529359
0.751790961257
0.761157103417
0.765353157661
0.766952035784
0.767581798027
0.767827328529
0.767922114759
0.767959586795
0.767975276485
0.767982850145
0.767986144597
0.767986492623
0.76797990572
0.767935419959
0.545173266348
0.592076187589
0.629772379296
0.6632377998
0.696412913109
0.725979982671
0.74699073387
0.759209290994
0.764751103449
0.766758866213
0.767493650459
0.767770785816
0.767879340944
0.767926855899
0.767951307749
0.767965645261
0.767972923017
0.767974951906
0.767966344748
0.767910415294
0.542586035222
0.581421552509
0.616727916099
0.651327898466
0.687372357151
0.72003506313
0.743553039636
0.758012422898
0.764446176012
0.766632081153
0.76739952715
0.767687467488
0.767807371095
0.767868289584
0.767906499199
0.767932765163
0.767948296473
0.767954789915
0.767944694261
0.767875346285
0.541884450834
0.575385457495
0.609704143619
0.646370973321
0.685425664698
0.719951590751
0.744014534751
0.758554084925
0.764541083419
0.766549353728
0.767276771247
0.767555472363
0.767685562095
0.767765394645
0.76782515144
0.767871948615
0.767903645365
0.767920576917
0.767911561363
0.767828127163
0.545756904749
0.576634888994
0.611703829805
0.651330537143
0.692966995303
0.726878266556
0.748641287413
0.760451307298
0.764882932948
0.766475981053
0.767081668509
0.767339332559
0.767481317379
0.767587690822
0.767680517586
0.767762175159
0.767824096916
0.767863349902
0.767862588494
0.767767199932
0.556777078998
0.587055502642
0.623791443326
0.666013264976
0.706826772419
0.736265795704
0.754051149609
0.762143531823
0.765106105521
0.766274747278
0.766747467199
0.766982711094
0.767141612184
0.767286503667
0.767429740297
0.767569206398
0.767685217573
0.767768355443
0.767790975489
0.767690701441
0.575664722876
0.605903160365
0.643492513725
0.684998462559
0.720779163145
0.744208190491
0.75775986103
0.763019679184
0.765021689346
0.765837419383
0.766192179333
0.766403633084
0.766582288552
0.766781543836
0.767000873881
0.767233945419
0.767444410271
0.767609561241
0.767685233322
0.767596562019
0.600172615815
0.629211725204
0.66468878944
0.701569547703
0.730713857969
0.749432861514
0.759300151631
0.76302104276
0.764477264716
0.76505065265
0.765297033087
0.765468715271
0.76566534406
0.765939172197
0.766273909116
0.76665729037
0.767031209503
0.767344271457
0.76752544711
0.767479919398
0.626216996442
0.652201217394
0.682966585347
0.71315280952
0.736534686376
0.751691330395
0.759291171467
0.762285408639
0.763412152711
0.763782748383
0.76388839222
0.763985037563
0.764179328172
0.764547790294
0.765048854855
0.765667465158
0.766320187801
0.766897195399
0.767277727252
0.767333042295
0.649819430639
0.671382019921
0.696323961634
0.720201563401
0.739005080133
0.751625309562
0.758053347285
0.760751689502
0.761658307063
0.761807519582
0.761711035853
0.761687312211
0.761866130298
0.762353025625
0.763086301532
0.76404458333
0.765121334019
0.766148388532
0.766897151763
0.767145262794
0.668626665835
0.685510206726
0.704972426049
0.723773544717
0.7391518972
0.74996915622
0.755787881038
0.758279682126
0.758952413656
0.758825973135
0.758504867592
0.75839901064
0.758652956107
0.759342556702
0.760381359099
0.761727815572
0.763315777569
0.764976505083
0.766316120327
0.766908423172
0.681931005664
0.694702750187
0.709674774228
0.724575931212
0.737302753115
0.746689074086
0.752068127949
0.754384244455
0.754895004079
0.754667342618
0.75439448561
0.754518184657
0.755154897542
0.756262087236
0.757680463531
0.759367788878
0.761316959951
0.763529576586
0.765579427376
0.766648743426
0.6899998087
0.699607903765
0.711177604388
0.723068231505
0.733551989608
0.741476262872
0.746324970427
0.748529253596
0.74929591417
0.749690920991
0.750410255875
0.751705526475
0.753365528283
0.767851588409
0.767834702428
0.767901498689
0.767872934481
0.767928901011
0.767903345904
0.767943100934
0.767915668719
0.767948980576
0.767919994875
0.767950107564
0.767919917646
0.767948187294
0.767916616493
0.767943911359
0.767910559426
0.767937345094
0.767901578427
0.767928209445
0.767889176324
0.76791594185
0.767872561723
0.767899748456
0.767850698068
0.767878551023
0.767822335148
0.76785122675
0.767786169817
0.767816357146
0.767740830218
0.767772870768
0.767685116412
0.767718949339
0.767617665288
0.76765366889
0.767537464283
0.767575085231
0.767443307104
0.767482355159
0.767334487564
0.767375479592
0.767211573881
0.767257122978
0.767076144341
0.767131499353
0.766932106471
0.766994971885
0.766779469848
0.766845352189
0.76661681741
0.766672622571
0.76643713851
0.766475221717
0.766235366962
0.766250089825
0.766007646246
)
;

boundaryField
{
    inletfuel
    {
        type            fixedValue;
        value           uniform 0;
    }
    inletair
    {
        type            fixedValue;
        value           uniform 0.768;
    }
    outlet
    {
        type            zeroGradient;
    }
    axis
    {
        type            empty;
    }
    leftside
    {
        type            zeroGradient;
    }
    burnerwall
    {
        type            zeroGradient;
    }
    front
    {
        type            wedge;
    }
    back
    {
        type            wedge;
    }
    procBoundary0to1
    {
        type            processor;
        value           nonuniform List<scalar> 
27
(
0.686363801693
0.686928601905
0.688158471771
0.689851099051
0.755073037003
0.756636276955
0.758142496129
0.75991833532
0.762289038045
0.764922278456
0.766416578775
0.693604276569
0.7007791433
0.709640164629
0.718987742891
0.727456460918
0.734094197163
0.738644542449
0.741589504806
0.743948036411
0.746460175338
0.749263280652
0.752052356915
0.755073037003
0.754493260229
0.766028186606
0.765764339942
)
;
    }
}


// ************************************************************************* //
