/*--------------------------------*- C++ -*----------------------------------*\
  =========                 |
  \\      /  F ield         | OpenFOAM: The Open Source CFD Toolbox
   \\    /   O peration     | Website:  https://openfoam.org
    \\  /    A nd           | Version:  7
     \\/     M anipulation  |
\*---------------------------------------------------------------------------*/
FoamFile
{
    version     2.0;
    format      ascii;
    class       volScalarField;
    location    "0.05";
    object      nut;
}
// * * * * * * * * * * * * * * * * * * * * * * * * * * * * * * * * * * * * * //

dimensions      [0 2 -1 0 0 0 0];

internalField   nonuniform List<scalar> 
814
(
0.00237948800292
0.00146388242307
0.000187182044507
0.00199833117665
0.00124999308608
0.000161360088815
0.00179294116638
0.00116443275529
0.000152382846988
0.00152216405673
0.000972232364057
0.000262709876046
0.00128176207606
0.000838925053281
0.000429803503094
0.00112522002041
0.000806818638253
0.000564917423679
0.00102431819871
0.000833209268924
0.000716740850549
0.000987629143521
0.000902066431943
0.000870048007752
0.00100515334158
0.00100278850614
0.0010171451443
0.00106673174846
0.00112141295205
0.00115531546249
0.00116124883247
0.00124539807647
0.00128126008152
0.00127451818311
0.00136399820144
0.00139252805741
0.0013916390802
0.00147011322471
0.00148796197642
0.00149977705176
0.00155944538058
0.00156654214001
0.00159121160549
0.00163190331596
0.00163102234732
0.00166529532773
0.00169126171112
0.00168728997373
0.00172958985425
0.0017467564155
0.00174593278269
0.00180068185232
0.00181525199802
0.00182509867856
0.00190045635797
0.00191902227593
0.00194763362413
0.00205316730248
0.00208055050674
0.00213286264847
0.00227548813203
0.00231242810049
0.00238641661625
0.00256280437887
0.00260560479574
0.00269116118026
0.00287328155901
0.00291479845859
0.00299661120678
0.00311923521258
0.0031515422443
0.00321386092433
0.00319553329454
0.00321348070756
0.00324654459656
0.00304208517224
0.00304561899287
0.003049571757
0.00269643379723
0.00269016175989
0.00267416126611
0.0022741844563
0.00226393940022
0.00224104748713
0.00190036304487
0.00189148713571
0.00187243576916
0.00166707285744
0.00166190070483
0.00165158624353
0.00160958509007
0.00160805607535
0.00160594766668
0.00170712907222
0.00170703790525
0.00170784826907
0.000474718850091
0.000300279154972
0.00047972902577
0.000633384882745
0.000767500808659
0.000897785651565
0.00102203301243
0.00113810872386
0.00124704333996
0.00134605444399
0.00143442845538
0.00151270371431
0.00158997946422
0.00167761178734
0.00179356017183
0.00195785506489
0.00218411706867
0.00246950993725
0.00278909282065
0.00308847684036
0.00328036493268
0.00327641911923
0.00304398851477
0.00264596933191
0.00220700462407
0.00184622755432
0.00163873074333
0.00160464583261
0.00170999850002
2.60029367324e-05
0.000151094391564
0.00020456394915
0.000234471865378
0.000256846561892
0.000280042465075
0.000304027953016
0.00032771888471
0.00035001659045
0.000367646517552
0.000379873895635
0.000385213561394
0.000384809136658
0.000379290323573
0.000371649601607
0.000362203084268
0.000354824938147
0.000346922541146
0.000326231482164
9.61618925179e-05
3.04428306357e-05
0.000123491370341
0.000184201595332
0.000235299184599
0.00026986949564
0.000303164702989
0.000332232657721
0.000357832779666
0.000379175895389
0.000394419937161
0.000403196338784
0.000405220549277
0.000401428874481
0.000393409558741
0.000383029799557
0.000372393908675
0.000362683913782
0.000354004478766
0.000322507769647
9.7864552432e-05
4.60306510813e-05
8.30076623591e-05
0.000134104938985
0.000206340615031
0.000253117452256
0.000297271229327
0.00033394799631
0.000365842409749
0.000390960595473
0.000407016336423
0.000415006959276
0.000415754857854
0.000410482043755
0.000401355448822
0.000389710310706
0.00037847924489
0.000367634735141
0.000358734012763
0.000320821063509
9.92440036731e-05
4.43135648204e-05
2.5420346041e-05
7.3895338098e-05
0.000137776501024
0.000187923800818
0.000245582808021
0.00029706592173
0.000344980389338
0.000385517353924
0.000410638055779
0.000422212024695
0.000423345459212
0.000417475034797
0.000407702105899
0.000395362163953
0.000383720594671
0.000372208503774
0.00036317638414
0.000321391909113
0.000110655794721
2.3393951385e-05
5.79155093977e-06
9.29446833901e-06
4.68147681338e-05
0.00011471241462
0.000165668033159
0.000221743739671
0.00028660778726
0.000353440263571
0.000401265026452
0.000424857247903
0.000429486973208
0.000423965993955
0.000413661828451
0.000400821482077
0.000388684407947
0.000376743906186
0.000367038871628
0.000319514999695
0.000116070413443
6.41299118232e-05
1.02065752969e-05
8.56169894168e-06
3.47408289066e-05
7.37420200196e-05
0.000105342066167
0.000152139459047
0.000220517008775
0.000305290119135
0.000378657166332
0.000421478498623
0.000434486311368
0.000431036320612
0.000420474028833
0.000407065928183
0.000394296970186
0.000381880684234
0.000371186855947
0.000316897166478
0.000121017479463
0.000111225866418
1.59929723886e-05
1.1631642224e-05
3.03854290491e-05
4.92493974955e-05
6.77988594567e-05
0.000104514362439
0.000169329099569
0.000258970490327
0.000348123771791
0.000410138290958
0.000436295434612
0.000437787824382
0.000427914477177
0.000414025154629
0.000400626091553
0.000387648144934
0.00037589085597
0.000314586866937
0.000124749199837
0.000175625463929
2.61361763185e-05
1.70841129303e-05
2.81992310991e-05
3.43811853712e-05
4.53437360365e-05
7.52785534521e-05
0.000134286210781
0.000220677200384
0.000314696629409
0.000390988117384
0.000432841278746
0.000442796643474
0.000435313762727
0.000421367002663
0.000407462026266
0.000393882595528
0.000380948229559
0.000312387322537
0.000128578431145
0.000263292619837
4.28359447926e-05
2.54066467383e-05
2.84222209821e-05
2.61472605476e-05
3.25330611378e-05
5.75192810166e-05
0.000109795733893
0.000188774451459
0.0002808989239
0.000365999153208
0.000423281554838
0.00044482978915
0.000441981118175
0.000428776454686
0.000414592815741
0.000400422194601
0.000386135489103
0.000309873804461
0.00013259677344
0.000370961571324
6.91076237394e-05
3.91507245414e-05
3.27748013272e-05
2.31233486359e-05
2.56242742197e-05
4.56976023962e-05
9.03223078129e-05
0.000160551201537
0.000248174964502
0.000337903640715
0.000408279741556
0.000443202913665
0.000447365443586
0.000436035504609
0.000421918794919
0.000407200394391
0.000391394629968
0.00030708517799
0.000136278440468
0.000495748126684
0.000109808735984
6.27939723345e-05
4.35051485722e-05
2.47092205032e-05
2.22922651123e-05
3.66907615271e-05
7.2907534636e-05
0.000134689720432
0.000217449807862
0.000309072005145
0.000389403502693
0.00043782402659
0.00045102585181
0.000442916406129
0.000429341140756
0.00041414211044
0.000396649637967
0.000304450709136
0.00013924280348
0.000635754416552
0.000171686880274
0.000101549457923
6.38299938475e-05
3.12582681507e-05
2.180652604e-05
2.98428051067e-05
5.74878909387e-05
0.000111301124354
0.000189244104541
0.000280973852017
0.000368354928121
0.000429088873538
0.00045260906142
0.000449069589892
0.000436611325404
0.000421019709078
0.000401627585464
0.00030217730057
0.000141581803163
0.000784531028316
0.00026166325048
0.000161624759549
9.83614475839e-05
4.44488398584e-05
2.48768832614e-05
2.58032534879e-05
4.5219912842e-05
9.09661315602e-05
0.000163700233574
0.00025431510161
0.000346513189949
0.000417728142378
0.000451874816924
0.000453979946891
0.000443228586714
0.000427338186372
0.00040577713199
0.000299818543661
0.000143450732813
0.000940975292397
0.000388570258148
0.000251478454215
0.000153097215489
6.76221345369e-05
3.34809527719e-05
2.56893819028e-05
3.68860447433e-05
7.39031674286e-05
0.000140498388251
0.000229144800843
0.000324706404114
0.000404505807655
0.000448652488388
0.000456925423381
0.000448339861739
0.000432208881555
0.000408204058464
0.00029677164625
0.000144835632484
0.00110726352577
0.000561323061345
0.0003807901222
0.000234861802014
0.000106936174344
5.13168253505e-05
3.1325104058e-05
3.27195739146e-05
5.98690964806e-05
0.000119008983875
0.000205108214379
0.000303192313835
0.000389933312945
0.00044268701789
0.000456905489895
0.000450638667189
0.000434219812085
0.000407571662284
0.000291931406703
0.000145616212293
0.00128447167239
0.000784788643527
0.000558643304795
0.000352256286364
0.000171967779975
8.45853158436e-05
4.62131342886e-05
3.31624396785e-05
4.85551259241e-05
9.83616762786e-05
0.000181335342983
0.000281678740079
0.000373976224137
0.000433395951111
0.000452512516066
0.000448252477053
0.00043131876726
0.000402012879229
0.000284275211804
0.000145650052275
0.00147961630537
0.00106261050955
0.00079737734615
0.000521699281432
0.000276757824668
0.000143664106251
7.70218969199e-05
4.00983021544e-05
4.05018418679e-05
7.83687738226e-05
0.000156900568327
0.000259557461692
0.000356255614148
0.000419897739362
0.000442026409675
0.000438880181858
0.000420972879746
0.000389288315727
0.000272910710529
0.000144871450544
0.00170484548804
0.00139488585892
0.00110240732924
0.000755028641866
0.000431112422746
0.000242614410944
0.000134082416146
5.80120485172e-05
3.72754908632e-05
6.04218730496e-05
0.00013167638263
0.000236290228089
0.000336091240176
0.000400968475437
0.000423503447855
0.000419980433188
0.000400463680468
0.000367074211664
0.000256685021661
0.000143335812099
0.00197105746105
0.00177279387294
0.00146656586407
0.0010526043347
0.0006401674703
0.000391567078804
0.000228059027965
9.51551976046e-05
4.06220537452e-05
4.71198684971e-05
0.000107635522695
0.000212715805918
0.000313368262701
0.000375711073453
0.00039558154429
0.000389814971565
0.000368031824022
0.000334019651266
0.000235103674093
0.000141384338289
0.00228126549156
0.00218187768971
0.00187481653417
0.00140320658295
0.000898487960212
0.000582207412187
0.000362849565665
0.000156974383562
5.17029272621e-05
3.93728398456e-05
8.88145132241e-05
0.000191617963239
0.000288513405422
0.000343393609128
0.000357538165602
0.000348220495529
0.000324187543382
0.000291167200284
0.000208839877836
0.000139621541749
0.00262178200639
0.00259418087389
0.00229096451248
0.00176526763491
0.00116647971279
0.000776623857953
0.000515253940196
0.000234763549778
6.68327399876e-05
3.60862968966e-05
7.66574749829e-05
0.000175040666412
0.000261874814321
0.000303990069635
0.00031043427285
0.000297654863477
0.000272859609093
0.000243023999809
0.000180687714234
0.000138880659548
0.00295964019067
0.00296250635148
0.00265408483892
0.00207386351709
0.00139365177872
0.000944303980776
0.000656684413535
0.000296633328107
7.53813445661e-05
3.53557607893e-05
7.36815406067e-05
0.000164081328877
0.000232134731783
0.000257771954179
0.000256566368414
0.000242439842987
0.000220187195801
0.000196298808969
0.00015469000301
0.000140072121511
0.00323854352247
0.00322088428034
0.00287979849209
0.00224643160871
0.00151908674316
0.00104676684433
0.000719432079382
0.000289279630806
7.16602671476e-05
3.71100970047e-05
7.95643382193e-05
0.000155540107478
0.000197891536603
0.000206887481752
0.000200230424013
0.00018804468669
0.000172245059761
0.000157008259817
0.000134573640394
0.000143846467105
0.0033773769742
0.00329453103533
0.0028944542651
0.00221870249596
0.00149468440467
0.00103713117093
0.000646186526021
0.000218166820398
6.04643673114e-05
4.35189929865e-05
9.18080425831e-05
0.000143719171041
0.000160312066451
0.000157001640897
0.000148052493862
0.000139999171111
0.000132716892926
0.000127713541792
0.000122107684911
0.000150384964046
0.00330208434408
0.00313314138213
0.00267860217703
0.00200171498972
0.00136007508817
0.000939795059779
0.000497968372808
0.000149941164893
5.30007705709e-05
5.77627944762e-05
0.000103642871288
0.000128163539344
0.000127449996882
0.000118517556528
0.000109498698886
0.000104334126935
0.000103450515275
0.000107558918172
0.000116432876053
0.000159099688369
0.00300382221978
0.00276938146826
0.00231030080884
0.00171947512819
0.00122249708667
0.00083126321394
0.000367809004434
0.000109965328075
5.54316517799e-05
7.92516334966e-05
0.000110728403976
0.000116706078281
0.000109470987691
9.97959839564e-05
9.1275323435e-05
8.5958321578e-05
8.6000210511e-05
9.4512212073e-05
0.000114831488959
0.00016880490546
0.00256792049902
0.00232442493347
0.00194033607864
0.00151198144246
0.00116442697671
0.00076290638684
0.000301757505481
9.93544488763e-05
7.05885729219e-05
0.000100767238947
0.000118482985791
0.000119215544078
0.000113137161829
0.000104639434201
9.58647642129e-05
8.77439379162e-05
8.31884790033e-05
8.87583015495e-05
0.000114882371038
0.000178069337631
0.0021260641917
0.001931246117
0.00167307346245
0.00142062961341
0.00116988346983
0.000750207593751
0.000290494026423
0.000110097890605
9.57155312951e-05
0.000124015679708
0.000139142747624
0.000144471685699
0.00014390418458
0.000137337722966
0.000127395907776
0.00011440133765
0.000100128834141
9.40666364226e-05
0.00011583735915
0.000186260332731
0.00178866519985
0.00167407456097
0.00154574595112
0.00141641077112
0.00120796428683
0.000781725490436
0.000325468851295
0.00014499712837
0.000133310217622
0.000162116940817
0.000187021373199
0.000203888391825
0.000211534220188
0.000207186188902
0.000194668260997
0.000174851397536
0.000146830884297
0.000119163275844
0.000122557986055
0.00019454958801
0.00161387819712
0.00157577590686
0.0015365038301
0.00145367619171
0.00124672378866
0.00082551930608
0.000392352085358
0.000215931711597
0.000205555843333
0.000241881932535
0.000282507803272
0.000311582937473
0.000324133619453
0.000318175866523
0.00030027576725
0.000273902916057
0.000233293395293
0.000176333421715
0.000143376434522
0.000206488544076
0.00160566456374
0.00161122478417
0.00159753486116
0.0015030443323
0.00127935515887
0.000890608256729
0.000514502994874
0.000355326446392
0.00034697688493
0.000390123247505
0.000436841167603
0.000462168434396
0.000460682531386
0.000439121736483
0.000411507687217
0.000384260357341
0.000345441872489
0.000268236944025
0.000186552953014
0.000226797251156
0.00171666586579
0.0017196167651
0.00168244411597
0.00156013123505
0.00133472008203
0.0010161387918
0.000728978440712
0.000604148376534
0.000592674745413
0.000616442449774
0.000621152782015
0.000586188367543
0.000530115619187
0.000207200128813
0.000107459364781
0.00015891128615
0.000135928153187
0.000155680350225
0.000150027174264
0.000150955838431
0.000146470725499
0.000147939859113
0.000138590126297
0.000145512379268
0.000129288531228
0.000143351084231
0.000119807202314
0.000141156033796
0.000110720119266
0.000138883868284
0.000102227601988
0.000136487846749
9.44548263156e-05
0.000133987441763
8.75165764903e-05
0.000131484821531
8.15451656716e-05
0.000129140613762
7.66699540235e-05
0.000127188255458
7.3040814841e-05
0.000125887450622
7.07725845754e-05
0.000125535169087
7.00073078403e-05
0.000126438330612
7.08257440309e-05
0.000128815679759
7.33574274779e-05
0.000132933503388
7.77093030733e-05
0.000138930595905
8.40528436697e-05
0.000146876881613
9.25318290112e-05
0.000156527792576
0.000103230211611
0.000167248530873
0.000116125097491
0.000178472023539
0.000131114740825
0.000189808544431
0.000147986213977
0.00019978418802
0.000166619311274
0.000207946453037
0.000188514552471
0.000212314659873
0.000217829929869
)
;

boundaryField
{
    inletfuel
    {
        type            calculated;
        value           uniform 0.0100623058987;
    }
    inletair
    {
        type            calculated;
        value           uniform 0.000335410196625;
    }
    outlet
    {
        type            calculated;
        value           nonuniform 0();
    }
    axis
    {
        type            empty;
    }
    leftside
    {
        type            nutkWallFunction;
        Cmu             0.09;
        kappa           0.41;
        E               9.8;
        value           nonuniform List<scalar> 
33
(
0
0
3.8921747671e-06
4.16393435765e-06
4.38329454246e-06
0
0
0
0
0
0
0
0
0
0
0
0
0
0
0
0
0
0
0
0
0
0
0
0
0
0
0
0
)
;
    }
    burnerwall
    {
        type            nutkWallFunction;
        Cmu             0.09;
        kappa           0.41;
        E               9.8;
        value           nonuniform List<scalar> 7(0 0 0 0 0 0 4.60679621872e-06);
    }
    front
    {
        type            wedge;
    }
    back
    {
        type            wedge;
    }
    procBoundary0to1
    {
        type            processor;
        value           nonuniform List<scalar> 
27
(
0.00193062000849
0.00192881176874
0.00192637172927
0.00192351827529
0.000480049971545
0.000451258690749
0.000447793405223
0.000444067802824
0.000374033641198
0.000245250412721
0.000258326111488
0.00191801755478
0.00189485200969
0.00183070867155
0.00170520000664
0.00151782506105
0.00128979639921
0.00108516499634
0.000959759981834
0.000880132948726
0.000794701831864
0.000683023710846
0.000567645987609
0.000480049971545
0.000477136122658
0.000199664710249
0.000241647593557
)
;
    }
}


// ************************************************************************* //
