/*--------------------------------*- C++ -*----------------------------------*\
  =========                 |
  \\      /  F ield         | OpenFOAM: The Open Source CFD Toolbox
   \\    /   O peration     | Website:  https://openfoam.org
    \\  /    A nd           | Version:  7
     \\/     M anipulation  |
\*---------------------------------------------------------------------------*/
FoamFile
{
    version     2.0;
    format      ascii;
    class       volScalarField;
    location    "0.05";
    object      O2;
}
// * * * * * * * * * * * * * * * * * * * * * * * * * * * * * * * * * * * * * //

dimensions      [0 0 0 0 0 0 0];

internalField   nonuniform List<scalar> 
814
(
2.6140830749e-09
1.8528598657e-09
2.75631728873e-10
3.26896311885e-07
3.26927732766e-07
1.48467765644e-07
1.93088406726e-05
3.29881098488e-05
7.93058352377e-05
0.000666626347349
0.0021663123048
0.0195660499597
0.000988812830839
0.00232885164738
0.0103586152597
0.00102427585848
0.00187915057029
0.00521055627568
0.000892927385979
0.00131798174549
0.00254838456373
0.000694979769016
0.000853147481086
0.00125896375997
0.000498340791957
0.000527739577087
0.000641948713897
0.000335940824494
0.000319114085351
0.000344473703014
0.00021646543269
0.000191940169217
0.000198152367125
0.000135333043294
0.000116793474033
0.000123378306719
8.35129142614e-05
7.32122149355e-05
8.36974303154e-05
5.20476168824e-05
4.83325514587e-05
6.20439699431e-05
3.38732814373e-05
3.44863078898e-05
5.03370005329e-05
2.41157511085e-05
2.73583869463e-05
4.45587604499e-05
1.96446315125e-05
2.44528451145e-05
4.23954108983e-05
1.84677417568e-05
2.4169261323e-05
4.22452772505e-05
1.92221485398e-05
2.53110746727e-05
4.27975397066e-05
2.06883458579e-05
2.66145760688e-05
4.24458806134e-05
2.16262815696e-05
2.68062826608e-05
3.98524666321e-05
2.12636055098e-05
2.53309904429e-05
3.51217563974e-05
2.03290920169e-05
2.34752674359e-05
3.08803392648e-05
2.25397938482e-05
2.57329206831e-05
3.33189198881e-05
3.58469077845e-05
4.10134135909e-05
5.35034469573e-05
7.15333952077e-05
8.15274223253e-05
0.000105692996746
0.000141855427875
0.000159708324171
0.000202708971402
0.000260934465456
0.000289464282977
0.000357364029021
0.000446370684764
0.000486957816177
0.000582399703254
0.000701507808815
0.000753066077576
0.000872314562073
0.000980055115026
0.00103658320084
0.00116543862423
0.00117626699622
0.00122919314127
0.00134817180403
0.158078034722
0.0523907833208
0.0168876944466
0.00600669123832
0.00240737234253
0.00109505221315
0.000574126105268
0.000345199962839
0.000230483319686
0.000168051039241
0.000131210662612
0.000109570065639
9.68430842685e-05
8.91351561172e-05
8.38373081356e-05
7.90659678599e-05
7.23531667268e-05
6.25445683003e-05
5.10854144217e-05
4.26086747347e-05
4.56044813374e-05
7.42993511944e-05
0.000146013597365
0.000273584317873
0.000467334144218
0.000733703854619
0.00105671490561
0.00135985167878
0.00152370273043
0.231991750313
0.231992903481
0.231995045962
0.231997104665
0.231998461002
0.231999262465
0.231999677212
0.231999873025
0.231999955176
0.231999986158
0.231999996293
0.231999999142
0.231999999813
0.231999999944
0.231999999966
0.231999999969
0.231999999967
0.231999999938
0.231999999675
0.231999999155
0.231454030736
0.231759698275
0.231882803876
0.231945558971
0.231974481106
0.231989320584
0.231995774688
0.231998521266
0.23199953193
0.23199987103
0.231999968575
0.231999993433
0.23199999879
0.231999999748
0.23199999989
0.231999999907
0.231999999886
0.23199999956
0.23199999477
0.231999957228
0.228132145337
0.230486410784
0.231032084948
0.231609342834
0.231822673652
0.231929825865
0.231972956876
0.231991205327
0.231997467036
0.231999368059
0.231999855522
0.231999971558
0.231999995216
0.231999999209
0.231999999764
0.231999999822
0.231999999725
0.231999997736
0.231999949033
0.231998877288
0.210629197742
0.224042525786
0.22736829368
0.229868766721
0.230983595074
0.231609302353
0.231852250861
0.231954079086
0.231987773533
0.231997154733
0.231999372707
0.231999878988
0.231999980307
0.231999997104
0.231999999393
0.231999999626
0.231999999239
0.231999990134
0.231999705313
0.231980282372
0.085314961221
0.169052300117
0.208171433809
0.223034305428
0.228185436035
0.230361005469
0.231350779451
0.231798282016
0.231949591873
0.231989243801
0.231997709247
0.231999554367
0.231999926998
0.231999989669
0.231999998277
0.231999999171
0.231999998166
0.231999975987
0.231999320794
0.231965126539
0.0277393525851
0.100400920002
0.185939082954
0.213477892392
0.223317706507
0.227766497084
0.230255053362
0.23142960654
0.231852789348
0.231968111008
0.231993118652
0.231998605692
0.23199976215
0.231999965936
0.231999994931
0.231999998089
0.231999995995
0.231999953666
0.231998880561
0.231955945333
0.0108312350155
0.0427617636245
0.162625639074
0.200764022971
0.216261657136
0.223976542104
0.228652683903
0.230845286589
0.231676737215
0.231922963548
0.231982154656
0.231996214222
0.231999317679
0.231999898184
0.231999985369
0.23199999545
0.231999991692
0.231999918397
0.231998368414
0.231950952565
0.0050595100855
0.0247123036499
0.135397331408
0.184644880133
0.207285103324
0.219616561654
0.226825102968
0.230105853926
0.231407973066
0.231836787509
0.231959187598
0.231991072435
0.231998280398
0.231999727191
0.231999960181
0.231999989022
0.231999983254
0.231999863717
0.231997719203
0.231946080602
0.00281798107541
0.017378230327
0.103195720108
0.165117783184
0.197070129491
0.215222741721
0.224889369714
0.229207866276
0.231018612552
0.231689618687
0.231917269387
0.231981380361
0.231996162872
0.231999345894
0.231999899735
0.231999973653
0.231999966498
0.231999781086
0.23199689599
0.231939544994
0.0017962457656
0.0122446688991
0.0684223758734
0.142829638838
0.186032652302
0.210606254394
0.222624900307
0.228046027763
0.230463725596
0.231462417792
0.23184781957
0.231964664409
0.231992261856
0.231998580542
0.231999766463
0.23199993784
0.231999932268
0.231999655841
0.231995878904
0.231931374172
0.00123875138206
0.00857519571715
0.0432621892183
0.11839867084
0.173737267499
0.204998335862
0.219672222785
0.226489949092
0.229700809736
0.231137766181
0.23174007609
0.231937378191
0.231985566332
0.231997164997
0.231999492127
0.231999856521
0.231999860295
0.231999459808
0.231994622797
0.231921686375
0.000885427852361
0.00605961623113
0.029390543256
0.0915382962685
0.159109731383
0.197641159846
0.215790910493
0.224467449044
0.228710844504
0.230701225123
0.231582019625
0.231894667857
0.231974653405
0.23199470605
0.231998956181
0.231999676108
0.231999705977
0.231999137963
0.231993027557
0.231910080663
0.000661377942605
0.0043879400681
0.020244598303
0.0641378412724
0.141109084291
0.188061166255
0.210888242482
0.221969713351
0.227492597028
0.230144495504
0.231363388784
0.231830560153
0.231957543922
0.23199062345
0.231997945909
0.231999283459
0.231999372395
0.231998580233
0.231990893194
0.231895807337
0.000510444067029
0.00323737000745
0.0141711428706
0.0444831235605
0.119037399992
0.175925571408
0.204863237033
0.218979522334
0.226033328352
0.229460957663
0.231077007324
0.231738662103
0.231931671064
0.231984043628
0.231996087982
0.231998442782
0.23199865291
0.231997563939
0.231987873096
0.23187781219
0.000403043052227
0.00240136993985
0.0099565507125
0.0314579328408
0.0921735119471
0.160540311813
0.197304409542
0.215369861023
0.224290360742
0.228641631638
0.230719437032
0.231613151861
0.231893699716
0.231973633648
0.231992680628
0.231996667324
0.231997117571
0.23199563932
0.231983296349
0.231854533817
0.000329396418766
0.00179997052793
0.00700938619504
0.0218078056554
0.0633505362278
0.140548254885
0.187222018413
0.210789317327
0.222152283376
0.227660510826
0.230290932252
0.231447937247
0.231838531797
0.231957061473
0.231986334616
0.231992969326
0.231993896815
0.231991916788
0.231975947743
0.231823370535
0.000275398678509
0.00134412204267
0.00486415968263
0.0147864228799
0.0428581123246
0.113537783004
0.172641661302
0.204406809252
0.21940452461
0.226464477904
0.229783659472
0.231239662113
0.231762025019
0.231930710588
0.23197441607
0.23198537561
0.231987282367
0.231984686899
0.231963638023
0.231779970298
0.000233347789686
0.000997463242185
0.0033268977328
0.00975808278627
0.0281721463777
0.0791863401771
0.151189538573
0.194993751674
0.215713276467
0.224968669012
0.229178926136
0.23098435104
0.231659516095
0.231888070352
0.231951813587
0.231970025748
0.231973997708
0.231970749828
0.231942339461
0.231717213442
0.000197912864476
0.000730419616691
0.00222636435057
0.00622315671118
0.0176384217544
0.0499676508486
0.121490027453
0.180950747309
0.210696063657
0.223139189031
0.228472646719
0.23067898875
0.231518753417
0.23181573854
0.231908412185
0.231939415392
0.231947888167
0.231944338148
0.231905309346
0.23162459231
0.000162134908994
0.000514939662017
0.00142695290616
0.00377052151034
0.0104214022527
0.0302844064903
0.0854744761684
0.162546263358
0.204303261816
0.221049659578
0.227719117901
0.230322767598
0.231315009143
0.23168714086
0.231824120755
0.231878878457
0.231897567936
0.231895433448
0.231841229339
0.231487806835
0.000125584529139
0.000345123462338
0.000875548765099
0.00220733816707
0.00606972314506
0.0183286405928
0.0550878837587
0.144279050118
0.198189943186
0.219156772151
0.226943415018
0.229878940951
0.231002475713
0.231458286917
0.231661366581
0.231761290804
0.231802844972
0.231807816622
0.231734708854
0.231289621792
9.2946764694e-05
0.000225825677
0.000538677386116
0.00134799192041
0.00384332263652
0.0122391644995
0.0391850902971
0.133550508428
0.195304391358
0.218103260113
0.226234996446
0.229271884359
0.230488881355
0.231049375624
0.231354627585
0.231536069694
0.231628337953
0.23165681449
0.231565630358
0.231011890164
7.2811596919e-05
0.000168403310699
0.000412860713567
0.00113352142419
0.0036015106563
0.0121936773668
0.039578132201
0.13880776249
0.196771632526
0.217721664953
0.225409707056
0.228319627768
0.229603192541
0.230310012224
0.230779603097
0.231109627532
0.231310621521
0.231403200623
0.231308869902
0.230638501041
7.8330909873e-05
0.000193229971131
0.000534892400828
0.00167374608257
0.00579109376118
0.0196866251529
0.0660648851761
0.15722947426
0.201033113515
0.217668601287
0.224040976215
0.226685369583
0.228041598909
0.228962701425
0.229700379589
0.23030413051
0.230730256008
0.230978817405
0.230932365307
0.230157928824
0.000131405965691
0.00034692719284
0.00103228403099
0.00339675435241
0.0112082055638
0.0332622217939
0.104785005493
0.174357449995
0.204258889675
0.21649508209
0.22143484541
0.223794355795
0.225272333616
0.226527977366
0.227705102394
0.228801673822
0.229671010125
0.230260833465
0.230382828952
0.229556324275
0.000256808834925
0.000678106090916
0.00201610381652
0.00640803731493
0.0192304642727
0.0516975163422
0.134864323188
0.183872234303
0.204462783067
0.213053569218
0.216725833637
0.218789971129
0.220427235762
0.222189476722
0.224075760256
0.226027350854
0.227732284159
0.229016008525
0.229562801522
0.228817246417
0.000465764977173
0.00116901798243
0.00324828606788
0.00941893874505
0.0258246968149
0.0741746105371
0.14845629881
0.184803157639
0.200038936507
0.206139154214
0.208664229727
0.210286051776
0.212083434406
0.214582304792
0.217601179709
0.220996400627
0.224226860291
0.226839747476
0.228290735049
0.227897883529
0.000759412574459
0.00176383259032
0.00445251022385
0.0114268042031
0.0289502938868
0.085632017957
0.148370930343
0.178316756019
0.190318171611
0.194357942862
0.195425455294
0.196264893223
0.198049348482
0.201531503918
0.20625277319
0.211995502691
0.217924688634
0.2230065001
0.226246064691
0.22672427059
0.00112658513719
0.00237407888825
0.00536207643586
0.0122287280019
0.0286181213003
0.0830237623012
0.13684791418
0.163723821711
0.173511536509
0.175319378876
0.1743215598
0.173937341857
0.175604571051
0.180366810556
0.187538910114
0.196779719371
0.206938240327
0.21635025053
0.222992750604
0.225190997804
0.00152255879939
0.00287719127289
0.00578421194076
0.0118187895179
0.0255450947858
0.0696544856702
0.116003724069
0.139911530721
0.147100497411
0.146001322222
0.142627621292
0.14135983881
0.143814443157
0.150751070877
0.161216340572
0.174598671088
0.190017362533
0.205665884575
0.217879464676
0.223208214145
0.00183791295201
0.00311564076953
0.0056076168771
0.0103587584545
0.0203659097501
0.0477235150877
0.0846483927562
0.10438182408
0.108725969336
0.105636061211
0.102028989457
0.10265325885
0.108818802568
0.120057737535
0.134622421645
0.151790579908
0.171113785435
0.192319355916
0.211301540977
0.221006658443
0.00194501236968
0.00299987378309
0.00491184986608
0.00831042998895
0.0148306480669
0.0292327490954
0.0483893703788
0.0602522138411
0.0622210183605
0.0609431125446
0.0642379144791
0.0750607074713
0.0909773787212
0.230822612204
0.230688652942
0.231218562773
0.230991958451
0.23143595372
0.231233220666
0.231548606035
0.231330981122
0.231595250895
0.231365302667
0.231604191939
0.231364691925
0.231588959054
0.231338505944
0.231555039016
0.231290457625
0.231502950309
0.231219214321
0.231430479367
0.231120832201
0.231333163622
0.230989033213
0.231204705689
0.230815594048
0.231036551793
0.230590595861
0.230819794262
0.230303699291
0.230543179834
0.229944019829
0.230198210693
0.229502038947
0.229770472606
0.228966951171
0.229252669866
0.22833075081
0.228629468218
0.227583934194
0.227894375207
0.226721033167
0.227047746393
0.225746779098
0.226111150873
0.224673959676
0.225118215231
0.223533700011
0.224038775251
0.222325477004
0.222851426676
0.221036119606
0.221469869717
0.219606659304
0.219875454926
0.217994111748
0.218055868209
0.216173220648
)
;

boundaryField
{
    inletfuel
    {
        type            fixedValue;
        value           uniform 0;
    }
    inletair
    {
        type            fixedValue;
        value           uniform 0.232;
    }
    outlet
    {
        type            zeroGradient;
    }
    axis
    {
        type            empty;
    }
    leftside
    {
        type            zeroGradient;
    }
    burnerwall
    {
        type            zeroGradient;
    }
    front
    {
        type            wedge;
    }
    back
    {
        type            wedge;
    }
    procBoundary0to1
    {
        type            processor;
        value           nonuniform List<scalar> 
27
(
0.00124555228619
0.00128758613708
0.00138117807883
0.00151711060924
0.108197016574
0.124418401315
0.140086313744
0.158002632224
0.180911436891
0.205432166921
0.219039342323
0.00183759147722
0.00259995383905
0.00390335334432
0.00606810680151
0.00979086225185
0.0164493544013
0.0241171689235
0.0283684059795
0.0299955865046
0.0362430277583
0.0550623162938
0.0793063979077
0.108197016574
0.102708542012
0.216266634561
0.214229739861
)
;
    }
}


// ************************************************************************* //
