/*--------------------------------*- C++ -*----------------------------------*\
  =========                 |
  \\      /  F ield         | OpenFOAM: The Open Source CFD Toolbox
   \\    /   O peration     | Website:  https://openfoam.org
    \\  /    A nd           | Version:  7
     \\/     M anipulation  |
\*---------------------------------------------------------------------------*/
FoamFile
{
    version     2.0;
    format      ascii;
    class       volScalarField;
    location    "0.05";
    object      one_over_tauStar;
}
// * * * * * * * * * * * * * * * * * * * * * * * * * * * * * * * * * * * * * //

dimensions      [0 0 -1 0 0 0 0];

internalField   nonuniform List<scalar> 
814
(
801.237600939
1146.19282537
5140.56882472
985.754335678
1358.09735186
5133.82016583
1078.57045265
1492.168316
5128.09155867
1261.28486993
2056.69578256
7812.23925274
1530.27480429
2738.43268215
7960.4112716
1802.1108788
3227.15351376
7202.90091759
2094.26373318
3560.01257618
6489.41722041
2344.01236053
3721.7721843
5833.62975792
2525.20735886
3730.93232307
5234.83227369
2631.44970898
3639.41673933
4695.06549455
2661.06993661
3476.52368757
4213.0136958
2624.79781059
3267.07542933
3782.47578807
2537.23697851
3032.73201078
3398.06430453
2413.34669334
2789.04639719
3051.89186844
2265.024565
2544.8925373
2736.35267483
2101.18900343
2305.06489985
2444.12628422
1928.78653544
2072.71586462
2170.27419491
1753.59419826
1850.45937971
1914.03468572
1578.93484211
1640.88573888
1677.72906733
1411.64181334
1448.57018595
1467.08223064
1258.35882686
1279.24815543
1287.64346724
1126.30552554
1138.18978013
1142.80076312
1017.47147206
1025.16445555
1029.83565935
931.781163423
937.466411074
942.948435975
862.578391037
867.226831805
872.83941225
802.956555357
806.352043944
810.978464192
745.095765476
747.210084066
749.726501374
682.218434168
682.808478032
682.676833958
607.240718041
606.462296143
603.706134536
517.895079057
516.090693926
511.584040176
422.417510581
420.518675557
416.082255145
340.846075863
339.432401453
336.420885196
756.357110328
5401.8873692
5631.48097929
5349.16164502
4979.51062083
4602.78046341
4238.03601658
3888.79430102
3557.88347648
3244.31479649
2944.36496375
2653.742396
2373.36303413
2104.59551039
1851.80792998
1621.45315235
1420.29675977
1253.01218907
1120.70650788
1018.39395207
938.685288574
872.355356435
811.170855966
748.61260674
679.044491105
597.499744152
503.921364607
409.300216961
332.195909967
53.8925280201
15.9869292712
14.0820614535
13.1494133951
12.0243785104
10.894090159
9.72080780367
8.5917086757
7.61399465294
6.78152254142
6.1012070264
5.55200435397
5.11886655534
4.78544882165
4.53361377196
4.34611464247
4.22153555921
4.13474654061
4.31220424166
14.5956900515
56.2511197048
29.6088719479
23.0762571395
20.0491168177
16.5919887618
13.9577753861
11.7186611848
9.87090588096
8.42092387511
7.30334507021
6.44588787924
5.79152141656
5.28780881216
4.91250326738
4.62505736812
4.42298259272
4.27466452905
4.19168472181
4.4983248374
14.8549275295
71.2832318183
44.2268600535
36.0904930572
27.2451330285
21.7516385527
17.1872662606
13.7186294037
10.987177353
9.04243730387
7.64422922472
6.64573680893
5.91882954356
5.37431447884
4.97627276932
4.67238833207
4.46256031764
4.30442679857
4.22673707015
4.60561468082
15.0643712409
534.107124739
147.584041223
70.0640935953
41.8522306376
33.1119284681
23.5589997961
17.8839363906
13.1277401264
10.1342993498
8.15445279153
6.90042659527
6.0570587212
5.4586565112
5.03300224711
4.71395139653
4.49551978025
4.33085339536
4.25860724298
4.64068942661
16.8386028285
3164.53558876
1891.77704614
616.348629845
132.477754012
59.2991144368
38.1353262991
26.4755178589
17.5474139853
12.1803839291
9.02793958554
7.29142007904
6.24588507825
5.56386236509
5.09805300152
4.75957723
4.52895445145
4.35787673375
4.28632304847
4.73911917005
19.0746185422
3565.15805185
2165.78778151
812.811523223
206.187640497
94.5161008873
61.2703580064
39.6502757438
24.4983667115
15.2837154187
10.3648115335
7.87762642675
6.51854584674
5.70846612888
5.18489571122
4.8185643375
4.57164400582
4.3916214307
4.31947647985
4.88924526877
20.9411854335
3229.37875154
1960.03339818
768.653591436
259.738097077
136.217395256
89.8390071317
55.5071666603
32.5190222639
18.9715418441
12.0839599187
8.66754072434
6.8884873439
5.89625197426
5.29358308544
4.88987960131
4.62300394139
4.43157791188
4.35954923268
5.07419842275
22.1881006679
3005.62988338
1846.13368339
733.812022294
311.068655565
184.260025901
120.371739523
71.3686239717
40.2529387493
22.8245925425
14.0955376038
9.66868713227
7.37155424219
6.13432120792
5.42495743573
4.97265496566
4.68139556282
4.47631350452
4.40439267212
5.28029376756
23.0659625927
2824.61372331
1746.2056351
733.841570844
366.233974293
235.389586939
149.853477492
86.0475167167
47.5336960802
26.8367585153
16.3877770845
10.8925394104
7.98412582965
6.43361682118
5.58325038078
5.06833300857
4.74688989259
4.52556175823
4.45386258175
5.49241859437
23.6221913946
2663.73001844
1643.41483077
742.96818045
419.378692683
285.718515916
179.021028748
101.231399625
55.3410138286
31.2632486208
18.9681577035
12.3337562768
8.73376785079
6.80451875976
5.77456797522
5.18013434096
4.82139946671
4.58058780609
4.51033034415
5.70083848591
23.8983623819
2512.94897118
1538.68857489
744.666656056
463.359811
331.535294723
211.174091587
119.964615062
65.0435037704
36.386774787
21.8221549509
13.9592560755
9.61251232624
7.25201574632
6.00429022252
5.31158409295
4.90740945658
4.64328428094
4.57624476022
5.90269691551
23.9341285594
2369.38440467
1438.61140651
740.47717122
495.622943112
370.100806534
246.524743401
143.970270706
77.6840959493
42.4075325873
24.9401706207
15.7234429768
10.5983104242
7.77280086889
6.27532266616
5.4657104075
5.00741183216
4.71581820631
4.65331552246
6.09923213127
23.7927463619
2227.07340649
1343.37156102
732.76859136
518.036202918
400.495886899
279.638632282
172.14367219
93.6039203775
49.5052575628
28.3410397896
17.5886163989
11.660854032
8.3550035147
6.58735805203
5.64507226517
5.12428313429
4.80109686813
4.74351629557
6.29840591947
23.5317900823
2083.7618927
1256.07234762
726.861887529
535.975866467
423.236839071
304.130211495
199.674285804
112.510016984
58.0741571836
32.1502557359
19.5492315926
12.770061617
8.98076378797
6.93715801954
5.85218932299
5.26199502695
4.90355784367
4.85025410463
6.50498402668
23.192628787
1938.48833955
1179.79375619
725.284816351
550.892657313
439.495143904
320.176616175
221.165574942
133.947946
69.0222092006
36.6850058305
21.654241323
13.9030513317
9.63161546597
7.32040270172
6.09072051658
5.42685923872
5.03048665834
4.98010807062
6.73309505587
22.803542628
1786.6210509
1113.59971963
726.68632
562.78644902
451.110685677
332.474262869
236.587123694
157.463461377
84.2999660135
42.7208289368
24.0456794218
15.066079563
10.2967095909
7.73511007682
6.36710570596
5.62891442889
5.19364813306
5.14467829034
6.99455612153
22.3896017936
1632.33677204
1057.21164585
731.168210513
575.466656817
463.252155775
344.477936244
250.550750607
182.38721275
106.475310687
51.7280826009
27.0361057036
16.2940720441
10.9792770654
8.18875204432
6.69517150878
5.8855031945
5.41286463561
5.36442390226
7.30322923041
21.9792150006
1483.20044792
1011.58340146
738.06328311
590.170082147
473.420194068
354.072933596
264.79686422
205.734045633
135.509088854
65.7362664544
31.1277708102
17.6592950461
11.6958382995
8.69998760315
7.09840973004
6.22353804982
5.71917362911
5.67330151967
7.69486172764
21.6011312389
1344.73921689
973.240137982
745.332964178
605.154683618
482.387633819
361.872230222
277.959863866
227.091746696
166.316250475
85.4019347597
36.6981956231
19.2053214646
12.4794391575
9.30852784083
7.62079167518
6.69017018271
6.16453234436
6.12767785874
8.22692119829
21.2936858092
1222.97680644
941.398901199
753.187120737
620.540393028
492.607453853
368.211269483
287.793367568
243.769930129
192.178508602
107.826439764
42.9428587671
20.7913923376
13.3639759323
10.0756401498
8.32686887184
7.35540925579
6.82487597324
6.80979710785
8.98677497533
21.0988682517
1120.54437745
915.303694401
760.67765765
634.358821334
501.221811838
370.600741579
292.659162717
255.23777439
207.685335152
126.033772439
48.5107501665
22.258774666
14.4279919821
11.1127283318
9.3253468964
8.32413170922
7.80738670883
7.82812644299
10.0681323633
21.0605107343
1037.36519264
892.480347092
765.51209922
643.86278591
506.618124165
372.006617439
297.897331025
261.092759622
212.418873775
132.322469183
50.0047334544
23.4344210234
15.8817110731
12.6359470069
10.8193023417
9.77001911305
9.25708865402
9.29864987309
11.5391457138
21.2184025278
969.737824218
868.278735391
762.281949209
644.143881592
503.12818782
368.923808341
299.179812549
257.229190315
208.764782004
126.036192346
47.3449192147
24.7930033769
18.2002476106
15.10652058
13.2289991464
12.0184092295
11.3838489691
11.3256287111
13.3904628351
21.5903049268
911.827877917
838.509140744
745.070522081
626.753028951
480.405741398
354.336672999
291.719568813
245.610132786
195.14588903
104.782864046
43.407522333
27.3972648318
22.2000733977
19.3575434526
17.3421567496
15.6895107453
14.5484497069
14.0038470158
15.5084166264
22.1954296489
857.125678419
799.082637763
710.90406437
588.474777792
442.780982603
336.205005532
280.774052726
230.489748012
169.479399392
80.6593131048
42.2368379706
32.6562876429
29.0703117205
26.5339894855
24.2429320872
21.7072950593
19.335844128
17.5278978911
17.8424426059
23.088335589
800.102893733
747.823151099
659.499772394
533.438185628
401.247206079
322.106448696
269.301449488
210.93265303
133.850411528
65.2458551108
45.9766644497
41.5515800649
39.5823241258
37.250792167
34.4631087829
30.7799951688
26.4728092901
22.3558099699
20.5309150106
24.3213066537
736.784076598
684.212286486
593.786923111
470.835964973
369.582443024
319.961391786
261.0628991
191.39285629
108.081293798
63.4496395572
55.3316918623
54.230561831
53.1184515439
50.5317233698
46.90657425
42.1736747622
36.0343613864
29.0640181507
24.0324331364
26.0263057165
663.679267536
608.161531441
518.179798069
412.821620678
353.343548667
324.524988241
257.442011555
177.582989347
99.600013804
72.2244275786
69.7729585297
69.6356360748
68.1120560703
64.6730182448
59.9540916503
54.302374128
47.0783071467
37.9686385365
29.0592211652
28.2914692772
578.201194981
521.967030927
441.665539256
367.095340252
344.99539804
324.519959055
256.008608085
174.133333663
107.894834996
89.8527393291
88.3160599769
86.9523346944
83.8741949238
79.0032220307
72.9312343087
66.0854156831
58.2506025628
48.2610751206
35.9325770132
31.3416626021
483.397144105
434.087372964
374.896925708
333.785031229
333.21041706
312.692997102
246.916825223
172.09532922
124.65568732
112.868405741
109.633832222
105.779124151
100.254854083
93.1874085285
85.058449193
76.6032601349
68.1097814931
58.2289009763
44.5445216695
35.25089651
392.638721373
358.76881931
325.193302307
308.770324812
313.571840134
291.03083232
233.132083879
175.723294594
146.674202794
137.280262676
131.668018083
124.726804337
115.641810328
105.090533955
93.9681514642
83.2154159924
74.1075660548
65.2323003115
52.1443270299
39.5690982571
322.382818222
305.22053368
291.231838524
286.868213882
288.075900389
264.672183781
221.734000878
188.219562606
170.579534157
160.301075796
150.285463512
137.952334695
123.988832732
27.3184027667
54.9076333581
66.8514947114
54.8903044255
70.8765291724
54.878973533
69.7343212173
54.8747630693
66.7540767744
54.8731970958
63.0522269548
54.873537049
59.3587457137
54.8755268491
55.9425019397
54.8789742189
52.9025136434
54.8838843469
50.2417073383
54.8904812599
47.93419827
54.8991465713
45.945752224
54.9103804465
44.2446958484
54.924752213
42.8073827905
54.9428455608
41.6349751266
54.9651296995
40.7253620548
54.9919891661
40.1112458192
55.0236699043
39.7765843281
55.060389731
39.7462265335
55.10224334
40.0066122886
55.1493071085
40.5478488358
55.2009680111
41.3120758891
55.2564079524
42.2409043798
55.3138200146
43.4771402335
55.3737047186
45.0418719407
55.4363663573
47.3215544217
55.5046668448
50.622377821
55.5815520255
56.3936685931
55.6683811514
)
;

boundaryField
{
    inletfuel
    {
        type            calculated;
        value           uniform 120.747670785;
    }
    inletair
    {
        type            calculated;
        value           uniform 4.0249223595;
    }
    outlet
    {
        type            calculated;
        value           nonuniform 0();
    }
    axis
    {
        type            empty;
    }
    leftside
    {
        type            calculated;
        value           nonuniform List<scalar> 
33
(
27.3184027667
54.9076333581
14.5956900515
14.8549275295
15.0643712409
54.9076333581
54.8903044255
54.878973533
54.8747630693
54.8731970958
54.873537049
54.8755268491
54.8789742189
54.8838843469
54.8904812599
54.8991465713
54.9103804465
54.924752213
54.9428455608
54.9651296995
54.9919891661
55.0236699043
55.060389731
55.10224334
55.1493071085
55.2009680111
55.2564079524
55.3138200146
55.3737047186
55.4363663573
55.5046668448
55.5815520255
55.6683811514
)
;
    }
    burnerwall
    {
        type            calculated;
        value           nonuniform List<scalar> 7(5140.56882472 5133.82016583 5128.09155867 53.8925280201 56.2511197048 71.2832318183 756.357110328);
    }
    front
    {
        type            wedge;
    }
    back
    {
        type            wedge;
    }
    procBoundary0to1
    {
        type            processor;
        value           nonuniform List<scalar> 
27
(
289.055071014
288.433354685
287.132355589
285.504905837
109.975212575
96.6874770351
84.8145282109
75.8176605261
68.5595889109
56.6287531006
43.9456450821
281.897810445
276.579881576
273.535367179
273.513762779
271.652984116
255.593503704
232.094634745
210.925783571
192.727899531
175.757897582
158.552334853
141.492687709
109.975212575
124.709888129
68.071693466
55.7507572104
)
;
    }
}


// ************************************************************************* //
