/*--------------------------------*- C++ -*----------------------------------*\
  =========                 |
  \\      /  F ield         | OpenFOAM: The Open Source CFD Toolbox
   \\    /   O peration     | Website:  https://openfoam.org
    \\  /    A nd           | Version:  7
     \\/     M anipulation  |
\*---------------------------------------------------------------------------*/
FoamFile
{
    version     2.0;
    format      ascii;
    class       volScalarField;
    location    "0.05";
    object      p;
}
// * * * * * * * * * * * * * * * * * * * * * * * * * * * * * * * * * * * * * //

dimensions      [1 -1 -2 0 0 0 0];

internalField   nonuniform List<scalar> 
814
(
100525.690785
100516.85263
100533.375948
100507.276386
100502.617681
100505.957921
100490.34064
100487.750608
100489.939944
100491.022198
100490.12316
100492.974671
100502.772081
100502.562821
100501.215676
100481.990285
100481.554515
100481.363251
100475.696659
100475.691008
100476.267929
100474.656496
100474.424871
100474.665264
100470.697022
100470.539142
100470.626072
100465.729892
100465.741961
100465.666313
100460.308969
100460.333611
100460.255303
100454.191153
100454.161495
100454.119642
100447.617802
100447.542935
100447.524477
100440.915983
100440.837187
100440.77025
100433.718614
100433.672519
100433.606492
100426.018016
100425.979929
100425.946986
100418.149248
100418.1095
100418.076687
100409.983196
100409.898763
100409.841691
100401.344324
100401.310899
100401.271512
100392.969067
100392.9405
100392.916131
100384.793878
100384.76076
100384.744987
100376.801407
100376.769523
100376.730573
100368.254126
100368.232933
100368.234848
100359.877594
100359.844796
100359.850233
100350.49345
100350.486736
100350.489978
100340.016688
100340.002054
100340.025772
100328.75235
100328.739347
100328.736054
100316.92485
100316.916636
100316.91049
100305.626297
100305.60327
100305.585027
100295.177272
100295.161532
100295.14461
100285.961019
100285.934896
100285.914208
100277.971836
100277.944517
100277.925232
100487.039354
100504.803872
100480.613009
100476.277754
100474.373272
100470.380514
100465.581682
100460.282288
100454.149845
100447.561883
100440.7204
100433.562584
100425.919917
100418.036036
100409.750355
100401.199858
100392.873648
100384.714396
100376.680279
100368.232712
100359.841275
100350.50116
100340.04719
100328.732644
100316.901869
100305.554981
100295.122715
100285.875436
100277.894235
100504.714448
100504.491831
100504.628808
100504.664168
100504.911994
100505.14293
100505.53707
100505.963896
100506.499735
100507.088295
100507.740912
100508.425824
100509.119092
100509.740862
100510.131463
100510.232242
100509.958864
100509.614474
100508.90344
100508.656863
100500.72199
100500.952983
100501.575232
100501.655191
100502.279802
100502.542127
100503.128053
100503.63579
100504.311848
100505.000286
100505.762216
100506.518103
100507.241566
100507.877169
100508.303223
100508.488236
100508.281624
100508.003248
100507.265788
100507.010263
100500.119234
100499.42595
100498.94589
100498.844347
100499.368986
100499.571767
100500.473966
100501.095008
100501.997636
100502.831034
100503.735527
100504.593172
100505.389626
100506.076333
100506.558041
100506.834222
100506.702509
100506.501685
100505.697004
100505.477916
100496.31131
100490.103837
100495.005312
100493.789243
100496.334186
100496.471727
100497.985589
100498.715733
100499.863184
100500.835786
100501.877154
100502.829931
100503.702477
100504.444379
100504.981524
100505.33728
100505.279346
100505.151103
100504.23432
100504.077603
100498.627092
100496.826779
100493.212383
100492.449021
100493.392153
100493.447863
100495.254985
100495.961177
100497.331267
100498.460997
100499.657919
100500.723169
100501.692255
100502.508057
100503.114099
100503.557771
100503.593387
100503.548989
100502.688352
100502.460942
100480.345604
100482.605695
100482.731578
100485.930712
100487.874527
100489.009131
100491.44293
100492.519668
100494.268286
100495.570196
100496.96664
100498.179295
100499.278501
100500.198875
100500.895178
100501.438369
100501.585144
100501.641253
100500.939567
100500.811438
100477.025147
100478.15742
100478.658564
100481.842633
100482.367702
100484.878867
100486.836133
100488.585392
100490.579899
100492.136973
100493.771496
100495.173597
100496.43909
100497.498237
100498.309409
100498.962812
100499.232529
100499.403168
100498.892972
100498.888703
100474.528094
100474.622754
100475.295387
100477.032669
100477.566673
100480.12396
100481.861836
100484.143261
100486.269173
100488.178353
100490.048484
100491.681343
100493.14878
100494.381632
100495.33458
100496.109009
100496.508405
100496.802581
100496.504027
100496.586748
100470.371945
100470.612076
100470.921972
100471.960456
100472.653801
100474.800521
100476.574764
100479.101828
100481.39049
100483.653798
100485.774723
100487.673392
100489.377284
100490.817577
100491.940366
100492.848388
100493.381062
100493.803478
100493.712119
100493.862762
100465.473926
100465.752529
100465.730921
100466.528415
100467.192519
100468.992249
100470.931376
100473.478298
100475.993845
100478.550569
100480.949694
100483.134781
100485.097319
100486.773329
100488.092469
100489.14931
100489.818802
100490.371016
100490.472026
100490.682813
100460.132586
100460.468038
100460.817338
100460.776088
100461.569891
100462.912292
100464.846752
100467.377087
100470.075223
100472.884135
100475.563368
100478.04542
100480.285794
100482.216401
100483.754034
100484.976548
100485.788691
100486.470788
100486.744538
100487.010037
100453.97036
100454.209327
100454.264765
100454.394104
100455.185364
100456.255651
100458.268695
100460.738524
100463.627924
100466.672429
100469.617862
100472.403479
100474.925095
100477.117096
100478.888426
100480.292318
100481.256367
100482.068859
100482.490162
100482.812412
100447.397992
100447.589491
100447.534269
100447.509429
100448.305468
100449.19954
100451.110141
100453.663819
100456.649649
100459.939454
100463.127655
100466.215103
100469.002937
100471.454837
100473.464986
100475.061239
100476.187176
100477.131212
100477.676524
100478.051497
100440.661665
100440.800397
100440.78699
100441.057905
100441.124652
100442.124303
100443.647387
100446.186668
100449.197811
100452.698561
100456.110881
100459.471056
100462.515395
100465.218418
100467.462439
100469.254419
100470.549486
100471.624922
100472.274897
100472.690031
100433.365982
100433.405703
100433.285729
100433.323926
100433.235814
100434.416685
100435.495267
100438.179996
100441.213668
100444.905211
100448.560319
100452.17541
100455.475499
100458.404617
100460.869593
100462.851163
100464.315289
100465.517643
100466.253946
100466.695997
100425.744545
100425.709466
100425.514868
100425.391577
100425.142726
100426.099884
100427.174631
100429.556917
100432.823546
100436.591944
100440.519539
100444.347085
100447.886426
100451.015648
100453.679866
100455.834847
100457.45805
100458.778087
100459.583557
100460.050374
100417.843167
100417.763818
100417.544663
100417.404891
100417.428423
100417.623854
100418.838514
100420.634103
100424.058929
100427.772684
100431.987951
100436.001653
100439.745195
100443.057661
100445.879728
100448.181159
100449.942076
100451.366211
100452.228801
100452.719627
100409.520506
100409.318123
100409.152999
100409.004491
100408.863326
100408.675555
100409.868633
100411.216775
100414.648798
100418.501505
100422.916121
100427.184654
100431.063589
100434.513319
100437.437688
100439.84822
100441.719504
100443.232761
100444.150189
100444.676267
100401.0223
100400.907977
100400.796923
100400.752838
100400.691033
100400.938044
100401.094236
100402.446778
100405.155887
100409.120064
100413.437241
100417.92947
100421.833691
100425.318377
100428.298953
100430.762864
100432.714983
100434.312651
100435.297714
100435.884623
100392.74456
100392.656175
100392.532114
100392.427318
100392.310212
100392.276607
100392.082901
100393.616769
100395.332756
100399.515155
100403.609384
100408.227213
100412.061691
100415.417012
100418.364723
100420.854936
100422.866073
100424.547781
100425.640065
100426.301986
100384.624734
100384.543625
100384.437947
100384.336716
100384.257057
100384.261999
100384.152312
100384.981653
100386.424331
100389.907419
100393.788594
100397.990415
100401.591708
100404.683719
100407.507393
100409.978865
100412.070709
100413.875671
100415.125343
100415.865879
100376.54982
100376.483834
100376.367138
100376.321721
100376.31143
100376.418546
100376.553152
100377.216051
100378.14653
100380.33977
100384.216506
100387.564074
100390.707974
100393.361029
100395.897405
100398.217333
100400.343456
100402.284125
100403.748725
100404.633025
100368.214954
100368.182959
100368.13928
100368.101929
100368.027838
100368.090872
100367.46755
100367.700172
100368.915962
100369.415502
100373.407771
100375.949134
100378.338486
100380.645118
100382.987553
100385.228614
100387.496443
100389.688073
100391.415619
100392.521744
100359.835246
100359.851605
100359.916188
100360.037535
100360.177817
100360.467676
100360.521945
100361.171937
100360.611217
100361.241237
100363.030034
100363.221507
100365.743946
100367.292365
100369.495339
100371.704293
100374.108355
100376.493847
100378.458286
100379.836368
100350.518987
100350.5889
100350.737344
100350.814812
100351.135701
100350.968843
100351.913526
100350.591779
100350.865968
100350.227877
100350.722615
100350.688269
100351.894128
100352.959188
100354.722288
100356.932178
100359.402417
100362.197192
100364.557914
100366.293777
100340.092613
100340.15768
100340.286111
100340.342441
100340.531042
100340.120793
100341.481838
100339.415196
100339.642514
100337.772939
100337.662581
100336.918503
100337.297885
100337.967682
100339.437815
100341.761634
100344.512218
100347.412735
100350.494605
100352.638371
100328.730732
100328.736592
100328.750433
100328.838379
100328.721356
100329.022163
100328.263877
100327.515948
100326.375809
100325.318675
100324.48436
100324.049167
100323.7442
100324.285024
100325.077488
100327.085643
100329.639682
100333.008808
100336.004417
100338.458318
100316.882366
100316.82232
100316.736819
100316.636266
100316.194606
100316.532877
100314.830353
100314.805306
100312.829675
100311.874425
100310.441618
100309.62825
100309.064399
100309.188111
100310.07046
100311.787484
100314.571313
100316.639051
100321.928057
100324.352828
100305.498924
100305.375576
100305.177737
100304.925108
100304.488184
100304.141513
100303.08856
100302.708228
100301.664981
100300.908575
100300.387317
100300.153152
100300.037974
100300.186416
100300.599342
100301.410507
100302.221393
100305.680311
100308.060612
100310.698285
100295.064805
100294.914204
100294.681389
100294.353447
100293.886183
100293.395066
100292.727823
100291.888993
100290.949201
100289.921334
100288.810101
100287.716233
100287.079171
100287.16098
100287.545657
100288.743411
100290.394411
100289.434726
100296.217048
100297.182851
100285.808622
100285.638608
100285.390533
100285.049327
100284.586181
100284.099906
100283.672655
100283.084389
100282.582887
100282.102955
100282.932668
100283.943622
100284.549783
100284.741642
100284.753183
100283.819118
100283.367266
100284.002165
100284.328467
100286.684533
100277.825313
100277.692286
100277.494993
100277.229954
100276.875929
100276.474133
100276.042938
100275.656783
100275.583586
100275.394684
100274.375493
100272.99758
100272.184431
100500.130532
100500.557909
100500.10153
100500.176243
100499.557781
100499.58932
100498.238046
100498.285551
100496.363889
100496.421144
100493.820211
100493.875623
100490.728632
100490.782639
100487.094509
100487.133668
100482.895437
100482.926479
100478.116669
100478.141937
100472.736621
100472.755516
100466.728353
100466.737347
100460.048861
100460.055119
100452.674641
100452.681462
100444.596966
100444.602783
100435.768119
100435.771299
100426.174198
100426.17601
100415.735257
100415.736306
100404.527728
100404.53389
100392.455748
100392.469924
100379.816352
100379.8507
100366.487496
100366.507361
100353.03437
100353.060217
100339.028357
100339.059748
100325.262318
100325.306296
100311.569468
100311.612388
100298.470547
100298.507274
100286.990007
100286.98292
)
;

boundaryField
{
    inletfuel
    {
        type            zeroGradient;
    }
    inletair
    {
        type            zeroGradient;
    }
    outlet
    {
        type            fixedValue;
        value           nonuniform 0();
    }
    axis
    {
        type            empty;
    }
    leftside
    {
        type            zeroGradient;
    }
    burnerwall
    {
        type            zeroGradient;
    }
    front
    {
        type            wedge;
    }
    back
    {
        type            wedge;
    }
    procBoundary0to1
    {
        type            processor;
        value           nonuniform List<scalar> 
27
(
100270.638463
100270.603593
100270.58805
100270.553227
100271.750277
100272.200057
100273.187737
100273.95634
100273.123537
100274.256875
100275.275296
100270.485459
100270.395768
100270.269697
100270.130023
100269.939109
100269.698393
100269.48508
100269.048576
100268.169068
100267.428187
100267.670247
100268.564733
100271.750277
100269.435463
100275.428248
100275.545753
)
;
    }
}


// ************************************************************************* //
