/*--------------------------------*- C++ -*----------------------------------*\
  =========                 |
  \\      /  F ield         | OpenFOAM: The Open Source CFD Toolbox
   \\    /   O peration     | Website:  https://openfoam.org
    \\  /    A nd           | Version:  7
     \\/     M anipulation  |
\*---------------------------------------------------------------------------*/
FoamFile
{
    version     2.0;
    format      ascii;
    class       volScalarField;
    location    "0.05";
    object      PaSR<psiReactionThermo>:kappa;
}
// * * * * * * * * * * * * * * * * * * * * * * * * * * * * * * * * * * * * * //

dimensions      [0 0 0 0 0 0 0];

internalField   nonuniform List<scalar> 
814
(
5.67842909011e-12
7.91928452424e-12
2.58535792343e-11
6.92585932147e-12
9.2700965516e-12
2.47866461948e-11
7.54741225341e-12
1.01413936813e-11
2.43422194107e-11
8.72897732393e-12
1.37497348285e-11
4.33726305531e-11
1.04765667528e-11
1.80836171736e-11
4.79468289159e-11
1.22211472801e-11
2.12243823263e-11
4.49707346037e-11
1.4092300718e-11
2.34831763807e-11
4.16201723495e-11
1.57260706965e-11
2.47281193193e-11
3.81263933851e-11
1.69704669117e-11
2.50100021543e-11
3.46706856543e-11
1.77724621159e-11
2.46022340577e-11
3.14005539709e-11
1.80859072602e-11
2.36639113046e-11
2.83802369449e-11
1.79472991534e-11
2.23523068365e-11
2.56135184461e-11
1.74306793193e-11
2.08201513811e-11
2.30921639012e-11
1.66308103595e-11
1.918311521e-11
2.0781672435e-11
1.563035454e-11
1.7513770923e-11
1.86467312057e-11
1.44975011057e-11
1.58526991345e-11
1.66491487928e-11
1.32898846634e-11
1.42330006967e-11
1.47698519063e-11
1.20606861549e-11
1.26853007176e-11
1.30183181346e-11
1.08459678475e-11
1.1239415204e-11
1.14212154417e-11
9.69715126511e-12
9.9312940373e-12
1.00162330167e-11
8.66495541302e-12
8.79803462078e-12
8.83510192661e-12
7.7858396927e-12
7.86404672116e-12
7.88723980224e-12
7.06583557766e-12
7.11720333112e-12
7.14582539572e-12
6.48704760708e-12
6.52592734769e-12
6.5613224496e-12
6.00309409059e-12
6.03307608305e-12
6.06802541615e-12
5.55318680592e-12
5.57447773827e-12
5.59992395789e-12
5.08973845627e-12
5.09924899742e-12
5.1073526069e-12
4.56334030648e-12
4.56302637806e-12
4.55078260408e-12
3.95892084211e-12
3.94799126704e-12
3.91954129039e-12
3.29353745537e-12
3.2793900881e-12
3.2434594844e-12
2.65777873368e-12
2.64343002839e-12
2.61234536955e-12
2.15066721204e-12
2.14148432054e-12
2.12105739086e-12
5.11166782877e-12
2.81904217842e-11
3.17883587684e-11
3.16706655055e-11
3.04705959229e-11
2.8903330757e-11
2.71290693599e-11
2.52483211964e-11
2.33490174578e-11
2.1456779834e-11
1.95776711182e-11
1.77035610891e-11
1.58665900882e-11
1.40962311359e-11
1.24378119413e-11
1.09395453715e-11
9.64360927853e-12
8.5720847831e-12
7.72420493666e-12
7.06101979856e-12
6.52720723583e-12
6.0577998574e-12
5.59171587234e-12
5.08582838727e-12
4.51103761358e-12
3.86419566544e-12
3.18603523871e-12
2.56547305931e-12
2.09297079974e-12
3.17096554348e-13
1.1280740227e-13
1.00571948609e-13
9.43270195354e-14
8.64855453116e-14
7.85372314516e-14
7.02210797274e-14
6.21713907376e-14
5.51741068644e-14
4.91906049375e-14
4.42840558348e-14
4.03085265394e-14
3.71631419014e-14
3.47329696008e-14
3.28921772619e-14
3.15157754266e-14
3.05996349811e-14
2.99566080494e-14
3.12009734329e-14
1.00414773429e-13
3.37844610636e-13
2.06619049411e-13
1.64123750708e-13
1.43813781044e-13
1.19487089881e-13
1.00814290119e-13
8.48192192613e-14
7.15572835014e-14
6.11159159715e-14
5.30443941349e-14
4.68355230026e-14
4.20847208667e-14
3.84178692273e-14
3.56778769986e-14
3.3573341748e-14
3.2089006571e-14
3.09966902269e-14
3.03800203517e-14
3.25371943413e-14
1.02298460474e-13
4.40700730217e-13
2.98263160173e-13
2.5223544231e-13
1.94436980142e-13
1.56315790042e-13
1.24064478094e-13
9.92988532805e-14
7.96812298859e-14
6.56621901501e-14
5.55501110228e-14
4.83108610094e-14
4.30279825266e-14
3.90606507679e-14
3.61529665774e-14
3.39266977115e-14
3.23850545173e-14
3.12196681856e-14
3.06410832992e-14
3.33077407042e-14
1.03822509203e-13
2.76751140606e-12
7.6532378577e-13
4.56538604696e-13
2.91519960159e-13
2.35027168696e-13
1.69062972771e-13
1.29067317729e-13
9.50827700175e-14
7.35690196554e-14
5.92661032524e-14
5.01765903787e-14
4.40460683219e-14
3.96848630796e-14
3.65748813383e-14
3.42370852298e-14
3.26322689194e-14
3.14184294022e-14
3.08792235836e-14
3.35619994132e-14
1.16833434375e-13
5.47440800366e-12
2.64077016468e-12
1.68563782131e-12
7.70386030273e-13
4.04291249444e-13
2.68491097989e-13
1.89217838749e-13
1.26505256946e-13
8.82644036445e-14
6.55864306837e-14
5.30253691286e-14
4.54304824132e-14
4.04606543514e-14
3.70572592605e-14
3.45772417971e-14
3.28830308048e-14
3.16220050077e-14
3.1086828983e-14
3.42693321882e-14
1.32711540244e-13
8.36047755335e-12
2.58708755953e-12
1.60437389236e-12
9.86585188697e-13
5.93902435159e-13
4.13418590184e-13
2.77788106308e-13
1.7508947866e-13
1.10371214596e-13
7.52144614777e-14
5.72804779292e-14
4.74232987227e-14
4.15242778908e-14
3.76995956992e-14
3.50158348048e-14
3.32021229628e-14
3.18754266367e-14
3.13344850309e-14
3.53485639996e-14
1.46041329802e-13
9.38400143349e-12
2.31859965893e-12
1.41700318316e-12
1.01571763431e-12
7.41611154847e-13
5.60413286866e-13
3.76326592385e-13
2.29573762233e-13
1.36360999467e-13
8.75348102956e-14
6.29930669499e-14
5.01182203256e-14
4.29016841759e-14
3.85017065932e-14
3.55449815708e-14
3.35851277269e-14
3.21747493648e-14
3.1633112452e-14
3.6679737306e-14
1.54995531843e-13
1.05370767233e-11
2.59908120945e-12
1.33437141049e-12
1.00234732208e-12
8.23628218017e-13
6.68694691414e-13
4.62744634196e-13
2.79928433701e-13
1.63127284759e-13
1.01861708796e-13
7.02051045885e-14
5.36252868393e-14
4.46423442859e-14
3.94687615465e-14
3.61578693222e-14
3.40197898541e-14
3.25092796002e-14
3.19667669884e-14
3.81633060435e-14
1.61387451855e-13
1.15991135662e-11
3.04253018384e-12
1.34684045814e-12
1.01167821872e-12
8.59348184736e-13
7.28633875567e-13
5.29137637365e-13
3.24700688585e-13
1.90470545023e-13
1.18056609887e-13
7.89847968327e-14
5.80584113303e-14
4.68238527396e-14
4.06307112103e-14
3.68646511889e-14
3.450639738e-14
3.28769059671e-14
3.23341278624e-14
3.96888457986e-14
1.65541209586e-13
1.23461393346e-11
3.5437070925e-12
1.44453805461e-12
1.06789516044e-12
8.96420430711e-13
7.6516439579e-13
5.84248387697e-13
3.69271679709e-13
2.19858784564e-13
1.36095719685e-13
8.92752585141e-14
6.3467535396e-14
4.95199930344e-14
4.20313372465e-14
3.76885718185e-14
3.5058787254e-14
3.32867821122e-14
3.27523953257e-14
4.11860422689e-14
1.67705039223e-13
1.27557599793e-11
4.07230073613e-12
1.65647362779e-12
1.17466091863e-12
9.64325647912e-13
8.03461714674e-13
6.37453534363e-13
4.19368221177e-13
2.52645698273e-13
1.55765654601e-13
1.00814762438e-13
6.978949727e-14
5.2765428895e-14
4.37091741517e-14
3.86550612029e-14
3.56949485318e-14
3.37525814795e-14
3.32392758469e-14
4.26355626776e-14
1.68129997984e-13
1.28809761651e-11
4.60743408509e-12
1.96484082677e-12
1.32265897079e-12
1.06481847125e-12
8.55189810906e-13
6.89189690733e-13
4.76089383896e-13
2.89230167075e-13
1.76847811002e-13
1.13245929514e-13
7.68584734103e-14
5.65344809369e-14
4.56846728974e-14
3.97857498188e-14
3.6432714482e-14
3.42897641314e-14
3.38068069864e-14
4.40471478365e-14
1.6726595037e-13
1.27337282127e-11
5.09346694111e-12
2.32251069967e-12
1.5127106978e-12
1.18827077901e-12
9.26875657643e-13
7.39434762454e-13
5.35530336754e-13
3.29439587984e-13
1.99267473292e-13
1.26261968328e-13
8.44483349862e-14
6.0739300101e-14
4.79548004214e-14
4.10985889679e-14
3.7292400753e-14
3.4918834158e-14
3.44685331383e-14
4.54768031213e-14
1.65527411762e-13
1.23780410394e-11
5.50178379291e-12
2.71722717134e-12
1.77524211243e-12
1.32630964404e-12
1.02124939785e-12
7.96177483705e-13
5.94139258382e-13
3.73908860321e-13
2.23581478466e-13
1.39774123258e-13
9.23335755987e-14
6.52484631692e-14
5.04949551216e-14
4.26108448033e-14
3.83018094073e-14
3.56709115892e-14
3.52478681333e-14
4.69564656822e-14
1.63205673224e-13
1.1865371755e-11
5.81904496468e-12
3.13243900728e-12
2.08698333032e-12
1.47756303624e-12
1.13724904848e-12
8.73175526969e-13
6.5594505607e-13
4.25408301044e-13
2.5140729947e-13
1.54056772059e-13
1.00338182831e-13
6.99255781546e-14
5.32720582489e-14
4.43474001393e-14
3.95050477777e-14
3.65970400175e-14
3.61904157757e-14
4.85829815964e-14
1.60494570748e-13
1.11987616822e-11
6.02950784626e-12
3.53915690248e-12
2.4165583762e-12
1.65809843932e-12
1.26812780734e-12
9.78674949321e-13
7.33228416244e-13
4.90811204009e-13
2.86776844949e-13
1.69978026888e-13
1.08489523528e-13
7.46873781938e-14
5.62686365145e-14
4.63521385948e-14
4.09721159531e-14
3.77795345642e-14
3.73767943077e-14
5.04350729518e-14
1.5756409655e-13
1.04378496098e-11
6.14857776912e-12
3.92556426373e-12
2.76927694407e-12
1.91538415542e-12
1.40464147493e-12
1.10791199949e-12
8.4041011686e-13
5.79022915651e-13
3.36680029976e-13
1.89451893707e-13
1.17009006297e-13
7.95499350109e-14
5.95338400167e-14
4.87207792094e-14
4.28242539853e-14
3.9357211673e-14
3.89495264042e-14
5.26035519965e-14
1.5461024682e-13
9.65469055423e-12
6.2089070443e-12
4.27458502077e-12
3.12858513413e-12
2.19338455337e-12
1.53635232902e-12
1.23914474813e-12
9.74400273485e-13
6.92077997533e-13
4.08649626168e-13
2.15397754218e-13
1.2636520609e-13
8.46202748406e-14
6.3194043237e-14
5.16157181587e-14
4.5248572829e-14
4.15462566851e-14
4.11441994978e-14
5.53288539346e-14
1.51834463857e-13
8.89697256415e-12
6.21582518709e-12
4.56740026279e-12
3.46262736247e-12
2.46329963896e-12
1.69566298262e-12
1.34965247523e-12
1.12527444775e-12
8.2295678945e-13
5.0044098189e-13
2.49487762462e-13
1.368135755e-13
9.01193152821e-14
6.75223270175e-14
5.53421955232e-14
4.85727700963e-14
4.47070181863e-14
4.43494539847e-14
5.89963904277e-14
1.4951610398e-13
8.21187240052e-12
6.19044190913e-12
4.80951411443e-12
3.76022370807e-12
2.71795170565e-12
1.8591927839e-12
1.43228335372e-12
1.25877574871e-12
9.56151028024e-13
5.95506785217e-13
2.85843010954e-13
1.47345338229e-13
9.62640660927e-14
7.29334502961e-14
6.03405108527e-14
5.32762241996e-14
4.93576706543e-14
4.91224911089e-14
6.41856632492e-14
1.47970237733e-13
7.62095792515e-12
6.14694330815e-12
4.99983438626e-12
4.00060924859e-12
2.92117716455e-12
1.98032145241e-12
1.49551025826e-12
1.36125063294e-12
1.05540952067e-12
6.6776562151e-13
3.16318564365e-13
1.56870961259e-13
1.03568242924e-13
8.01743229712e-14
6.73409093068e-14
6.00612241255e-14
5.62110480619e-14
5.61759823586e-14
7.14991731486e-14
1.47535729353e-13
7.12762646014e-12
6.08068566194e-12
5.12742423727e-12
4.1637214518e-12
3.05673731729e-12
2.06805754531e-12
1.57230663296e-12
1.42650350739e-12
1.09409914101e-12
6.89494294483e-13
3.2276843707e-13
1.6423496157e-13
1.13401688911e-13
9.066233831e-14
7.76756793672e-14
7.00550896492e-14
6.6188969725e-14
6.62237108384e-14
8.13473063164e-14
1.4852848299e-13
6.709478561e-12
5.96582858808e-12
5.15624460133e-12
4.21450966592e-12
3.08476941082e-12
2.09939146295e-12
1.61980830126e-12
1.42376253397e-12
1.07454662091e-12
6.61527858836e-13
3.06245528847e-13
1.72523853806e-13
1.28785591236e-13
1.07333714858e-13
9.40155547313e-14
8.52937012894e-14
8.05524552715e-14
7.98379865253e-14
9.36374335795e-14
1.51096841714e-13
6.32710932681e-12
5.77531864089e-12
5.04558774115e-12
4.09514474428e-12
2.94003711857e-12
2.03043173506e-12
1.61928462841e-12
1.35826667897e-12
9.92202238086e-13
5.69515156374e-13
2.82288876768e-13
1.88192760612e-13
1.54465863101e-13
1.35058753818e-13
1.20996539143e-13
1.09427224979e-13
1.01366770152e-13
9.74761729048e-14
1.07649509573e-13
1.55372848739e-13
5.93409260603e-12
5.47980915055e-12
4.77468394023e-12
3.79019765409e-12
2.67331578617e-12
1.92297060756e-12
1.59682838789e-12
1.25533743312e-12
8.5202291754e-13
4.58653541456e-13
2.73156782074e-13
2.18774157527e-13
1.96215737718e-13
1.79297162372e-13
1.639091214e-13
1.47197666758e-13
1.3174443172e-13
1.20198976975e-13
1.23121176591e-13
1.61689740968e-13
5.49046588316e-12
5.06489129002e-12
4.34980860189e-12
3.35723502367e-12
2.39005726755e-12
1.84915007491e-12
1.55325468811e-12
1.11793006976e-12
6.77927961697e-13
3.81240788996e-13
2.899837321e-13
2.67071689376e-13
2.55074022372e-13
2.40331295132e-13
2.23112255845e-13
2.00919580149e-13
1.75098626293e-13
1.50565169485e-13
1.40895453395e-13
1.70335488868e-13
4.9724409853e-12
4.53866283422e-12
3.81986433774e-12
2.899799352e-12
2.19186185474e-12
1.87490008257e-12
1.50686914799e-12
9.90383836286e-13
5.58346176527e-13
3.67291170112e-13
3.33786071149e-13
3.3036197633e-13
3.24574694338e-13
3.10410271906e-13
2.9080189542e-13
2.65152550731e-13
2.30962069188e-13
1.9156938149e-13
1.63725085847e-13
1.8212266755e-13
4.37204393598e-12
3.92871151742e-12
3.25229917313e-12
2.51251300005e-12
2.10045021039e-12
1.93552942945e-12
1.47404803111e-12
9.05963152261e-13
5.16988951412e-13
4.03788875936e-13
3.99761509154e-13
4.02965301682e-13
3.97519473759e-13
3.81821906418e-13
3.59524317939e-13
3.32199997652e-13
2.94490334602e-13
2.44718949203e-13
1.95691826976e-13
1.97551385486e-13
3.70749399235e-12
3.29044619422e-12
2.72952853464e-12
2.23005321129e-12
2.06045447151e-12
1.94326964822e-12
1.44992897269e-12
8.87059921479e-13
5.54378351568e-13
4.83273859531e-13
4.8559384952e-13
4.85162953328e-13
4.7442023361e-13
4.53874865558e-13
4.27201871101e-13
3.96795069766e-13
3.58996115627e-13
3.05859990973e-13
2.38441425172e-13
2.18099790744e-13
3.03757976205e-12
2.70014881518e-12
2.30902486964e-12
2.03399284489e-12
1.99595685639e-12
1.85319330569e-12
1.37885743576e-12
8.86610457101e-13
6.42003176253e-13
5.96911508561e-13
5.91502499228e-13
5.79796214128e-13
5.57574021546e-13
5.26578523504e-13
4.90461446418e-13
4.53841882978e-13
4.16088244831e-13
3.66101286211e-13
2.91489241512e-13
2.44327509422e-13
2.45374709389e-12
2.23221541948e-12
2.01204445462e-12
1.89004871326e-12
1.88063121866e-12
1.69727908786e-12
1.29219310778e-12
9.28338143126e-13
7.71655228515e-13
7.31743011998e-13
7.11396556634e-13
6.81777293847e-13
6.39061908568e-13
5.88633225072e-13
5.36953015874e-13
4.89764080171e-13
4.5174118287e-13
4.10547186674e-13
3.39540651695e-13
2.73662608088e-13
2.0280303364e-12
1.91395339978e-12
1.8148717047e-12
1.76560140087e-12
1.73558224252e-12
1.54815326162e-12
1.2480348502e-12
1.0333661501e-12
9.30464539702e-13
8.75416557641e-13
8.23415496703e-13
7.58001671102e-13
6.84511640169e-13
1.9410183888e-13
3.76357979435e-13
4.70615992501e-13
3.82810899226e-13
4.99136968535e-13
3.85343903767e-13
4.9072131091e-13
3.85082499519e-13
4.69441792263e-13
3.84061897341e-13
4.4309398158e-13
3.82621013998e-13
4.168121127e-13
3.80886102025e-13
3.92460916325e-13
3.78918152576e-13
3.70733195861e-13
3.76729518591e-13
3.51637941076e-13
3.74331145604e-13
3.34985207886e-13
3.71748297087e-13
3.20533186469e-13
3.69037584098e-13
3.08061427856e-13
3.66288949291e-13
2.97415719355e-13
3.63642595879e-13
2.88615543971e-13
3.61252630386e-13
2.81669846478e-13
3.59300967133e-13
2.76820639632e-13
3.5790355236e-13
2.73974302869e-13
3.57159920062e-13
2.73312036261e-13
3.57078864318e-13
2.7474894371e-13
3.57654273148e-13
2.78231224421e-13
3.58843267655e-13
2.83373261831e-13
3.60568900606e-13
2.89762712523e-13
3.62759808259e-13
2.98272137575e-13
3.65252579009e-13
3.08997956067e-13
3.67878207064e-13
3.2430663569e-13
3.70465861746e-13
3.46215903285e-13
3.73246669495e-13
3.84241715222e-13
3.76705993417e-13
)
;

boundaryField
{
    inletfuel
    {
        type            calculated;
        value           uniform 0;
    }
    inletair
    {
        type            calculated;
        value           uniform 0;
    }
    outlet
    {
        type            calculated;
        value           nonuniform 0();
    }
    axis
    {
        type            empty;
    }
    leftside
    {
        type            calculated;
        value           uniform 0;
    }
    burnerwall
    {
        type            calculated;
        value           uniform 0;
    }
    front
    {
        type            wedge;
    }
    back
    {
        type            wedge;
    }
    procBoundary0to1
    {
        type            processor;
        value           uniform 0;
    }
}


// ************************************************************************* //
