/*--------------------------------*- C++ -*----------------------------------*\
  =========                 |
  \\      /  F ield         | OpenFOAM: The Open Source CFD Toolbox
   \\    /   O peration     | Website:  https://openfoam.org
    \\  /    A nd           | Version:  7
     \\/     M anipulation  |
\*---------------------------------------------------------------------------*/
FoamFile
{
    version     2.0;
    format      ascii;
    class       surfaceScalarField;
    location    "0.05";
    object      phi;
}
// * * * * * * * * * * * * * * * * * * * * * * * * * * * * * * * * * * * * * //

dimensions      [1 0 -1 0 0 0 0];

internalField   nonuniform List<scalar> 
1567
(
-3.69315851319e-09
8.88249768351e-08
-1.40826505225e-08
2.65764249236e-07
4.11615679039e-07
1.44866117889e-09
8.76646415931e-08
-1.66443637648e-09
2.69739685794e-07
4.11379945921e-07
4.26498635925e-10
8.74207725911e-08
-1.76033280003e-09
2.72469331242e-07
4.10511018545e-07
-2.54202369562e-09
9.01541819603e-08
1.07071943074e-09
2.69422300488e-07
3.87594675662e-07
2.48292664083e-08
-1.8676462148e-09
9.22152218176e-08
1.71486760183e-09
2.66418346037e-07
3.89600137705e-07
6.31503744172e-10
4.51390960306e-10
9.19617877884e-08
5.02800297459e-09
2.62429693742e-07
3.716342663e-07
2.39373673288e-08
-8.44410185795e-10
9.30074751948e-08
-5.70287103187e-10
2.62747396194e-07
3.68153660103e-07
3.81150534247e-09
-5.42826801988e-10
9.37525872919e-08
-1.49594721287e-09
2.64276854209e-07
3.66881031092e-07
6.16685570558e-10
-2.40680389662e-10
9.4197899802e-08
-2.84272273986e-10
2.64881323708e-07
3.66250179644e-07
1.17640190429e-09
-2.04899905146e-10
9.46126631179e-08
1.1069634919e-09
2.64124474007e-07
3.67369647964e-07
8.70735870001e-10
1.14179542394e-10
9.47141683756e-08
1.99947913688e-09
2.62791344988e-07
3.69816209852e-07
5.13505989734e-10
6.82122761784e-10
9.42510861174e-08
2.69922199028e-09
2.61330296882e-07
3.72260308002e-07
1.26043920491e-09
1.33764582052e-09
9.31335335097e-08
3.43468427332e-09
2.5979257356e-07
3.74243878598e-07
2.41521205069e-09
2.02305321109e-09
9.1323808917e-08
5.86582506728e-09
2.56486568946e-07
3.7420748618e-07
6.71613735718e-09
2.51250824881e-09
8.89978129884e-08
8.30758700327e-09
2.51141150324e-07
3.71715485627e-07
1.13536102662e-08
2.81662661906e-09
8.63075630506e-08
9.41731894686e-09
2.44805182891e-07
3.67109510858e-07
1.4210732394e-08
3.03446243276e-09
8.32984727772e-08
1.03627437836e-08
2.37454495198e-07
3.60372871824e-07
1.68541195371e-08
3.62537606975e-09
7.95702676435e-08
1.20040005931e-08
2.28719301249e-07
3.50612955957e-07
2.11315408086e-08
3.32329859688e-09
7.60276776997e-08
1.1893657966e-08
2.19527725455e-07
3.40470782369e-07
2.12227996618e-08
2.92639234932e-09
7.28274915277e-08
1.0458168178e-08
2.11306251999e-07
3.31806533996e-07
1.84669819464e-08
2.4973584155e-09
7.01036701491e-08
8.64324232218e-09
2.04683281453e-07
3.24859282869e-07
1.5461689757e-08
2.44294776407e-09
6.75815616367e-08
8.95159528104e-09
1.98159461451e-07
3.18096256087e-07
1.63850008254e-08
2.10428344063e-09
6.56138788341e-08
7.56849725183e-09
1.93303252917e-07
3.12590363629e-07
1.46758064099e-08
2.16848006805e-09
6.37987262621e-08
7.63259936933e-09
1.89039802661e-07
3.06936352693e-07
1.57165400979e-08
1.92550108234e-09
6.23789493077e-08
7.43121046209e-09
1.85140238508e-07
3.02396064909e-07
1.49033563546e-08
1.73288910525e-09
6.12060939652e-08
6.17250328437e-09
1.82430306384e-07
2.98681132873e-07
1.29252587156e-08
1.78156750646e-09
5.9991860409e-08
6.75352441736e-09
1.79207857935e-07
2.94643493722e-07
1.3838116847e-08
1.93149829933e-09
5.86852294417e-08
7.65141495844e-09
1.75414974895e-07
2.89681238777e-07
1.60346176653e-08
2.54768458435e-09
5.69209913323e-08
9.83020341878e-09
1.70555666913e-07
2.82406378938e-07
2.13859819046e-08
3.00011612006e-09
5.48782556458e-08
1.20626034358e-08
1.64423990816e-07
2.73339697695e-07
2.62445941289e-08
3.65715936224e-09
5.22425899877e-08
1.44268377927e-08
1.56759035268e-07
2.60484694274e-07
3.25783290858e-08
4.18508602485e-09
1.63846892351e-08
3.63240383239e-08
2.72669791657e-07
-2.49526026573e-07
2.50154058244e-07
2.40537869831e-08
2.54911593191e-07
2.05899127923e-08
2.74777036234e-07
-1.44047056779e-08
2.95363407923e-07
-1.81001623493e-08
3.14101733107e-07
-1.54918103552e-08
3.30752908616e-07
-1.36062155016e-08
3.46007828382e-07
-1.24858906719e-08
3.5908019702e-07
-9.60789523011e-09
3.69606301127e-07
-6.2340496857e-09
3.77350955537e-07
1.03364983528e-10
3.81703491709e-07
7.54896458936e-09
3.82984898261e-07
1.29947351983e-08
3.81110598383e-07
1.8421345908e-08
3.77231604179e-07
2.45197136276e-08
3.72813038484e-07
2.52605139106e-08
3.68895813494e-07
2.24518146678e-08
3.66009284022e-07
1.91534598495e-08
3.62194082525e-07
2.19137611209e-08
3.58743385481e-07
2.07924262773e-08
3.55220623941e-07
2.26756497087e-08
3.51493001383e-07
2.24616723903e-08
3.49094971288e-07
1.91644748164e-08
3.46109811711e-07
2.07033431955e-08
3.42036777513e-07
2.45559162434e-08
3.3526776922e-07
3.37134567238e-08
3.25181866753e-07
4.28226940859e-08
3.11278393051e-07
5.30277494809e-08
5.90420515746e-08
-1.19164049818e-07
1.13128309568e-06
-3.48848978946e-07
1.84657025279e-06
-6.79892229873e-07
2.70135163398e-06
-1.20446692672e-06
3.82781263966e-06
-1.76610993743e-06
5.0141085829e-06
-2.50728965177e-06
6.60310558546e-06
-3.21437100975e-06
8.29119672972e-06
-3.98665479708e-06
1.04538529976e-05
-4.67104777632e-06
1.29132408447e-05
-5.29948428728e-06
1.59431709696e-05
-5.79287846893e-06
1.95384513986e-05
-6.13363905076e-06
2.3886481076e-05
-6.27734151645e-06
2.91089047484e-05
-6.18085867881e-06
3.53814324738e-05
-5.85112691555e-06
4.29625127394e-05
-5.14745513894e-06
5.1959215196e-05
-4.25300271674e-06
6.3000296992e-05
-2.82579467417e-06
7.59099996304e-05
-1.78739442073e-06
9.23601114111e-05
0.00011078149112
6.64228524901e-08
1.10745393786e-06
-3.3319431318e-07
2.33621048295e-06
-5.66278323307e-07
3.08024048882e-06
-1.04066193699e-06
4.51239398913e-06
-1.47846494527e-06
5.73924719737e-06
-2.04967261125e-06
7.55528705115e-06
-2.60684509034e-06
9.34294497981e-06
-3.20144817609e-06
1.16814231078e-05
-3.70849947189e-06
1.42216457612e-05
-4.17326566061e-06
1.74139982023e-05
-4.52142020922e-06
2.11408075016e-05
-4.75448643746e-06
2.5673702967e-05
-4.83434358512e-06
3.11048969926e-05
-4.73390262555e-06
3.76328373542e-05
-4.44375800891e-06
4.55467764473e-05
-3.88637193476e-06
5.49035104351e-05
-3.14948856461e-06
6.65206946036e-05
-2.0355975434e-06
7.99596831086e-05
-1.55071862059e-06
9.81190838177e-05
0.000116752928663
-8.69810970562e-09
1.03148454024e-06
-6.16019916639e-08
2.34994482473e-06
-1.83453838643e-07
3.20121930232e-06
-5.79822895883e-07
4.99575710787e-06
-9.3158335224e-07
6.24747827516e-06
-1.40461917462e-06
8.25603260283e-06
-1.79611569137e-06
1.00397033199e-05
-2.19359931995e-06
1.2474017117e-05
-2.50564764481e-06
1.50356264345e-05
-2.78233513634e-06
1.832134825e-05
-2.9777951619e-06
2.21227373788e-05
-3.10251397635e-06
2.67730569422e-05
-3.12920198793e-06
3.23332902263e-05
-3.04354165208e-06
3.90227371671e-05
-2.8322578647e-06
4.71401798226e-05
-2.45786082528e-06
5.67289110809e-05
-1.94358339226e-06
6.86807939467e-05
-1.19918588179e-06
8.24590056034e-05
-1.02862571682e-06
0.000101870264532
0.00012045258265
-3.35994627322e-07
9.25652346832e-07
-2.20806068752e-07
1.8603294895e-06
-6.48717552228e-07
3.22995592581e-06
-8.04989838974e-07
4.93591423676e-06
-1.28964602208e-06
6.69628317781e-06
-1.68407245101e-06
8.80242861084e-06
-2.10201595911e-06
1.07490104587e-05
-2.49455342669e-06
1.32833893735e-05
-2.79198409025e-06
1.58764569898e-05
-3.03798057824e-06
1.9253806697e-05
-3.20312648366e-06
2.31448558805e-05
-3.29686793944e-06
2.7929069857e-05
-3.291926544e-06
3.36382388922e-05
-3.17463433218e-06
4.05142785326e-05
-2.92388089709e-06
4.88581377354e-05
-2.50807063578e-06
5.87138123205e-05
-1.89728948796e-06
7.09885791809e-05
-1.06076175355e-06
8.51620704743e-05
4.78127800693e-07
0.000104609802825
0.000124281684949
1.74343782692e-06
2.78742694021e-07
6.25081967569e-07
5.16548142269e-07
1.26734106379e-06
2.24887806946e-07
2.77274136118e-06
-4.3969702263e-07
4.6062222356e-06
-1.30116316434e-06
6.88284965582e-06
-1.84993805072e-06
9.05469827278e-06
-2.41719041986e-06
1.13789168412e-05
-2.74078531066e-06
1.39580890767e-05
-3.03752055867e-06
1.67243044569e-05
-3.23092835174e-06
2.01663792234e-05
-3.3515335952e-06
2.41672611742e-05
-3.40235493821e-06
2.90985267065e-05
-3.3606210303e-06
3.49759804453e-05
-3.21171895845e-06
4.2059700308e-05
-2.92533120362e-06
5.06456104903e-05
-2.47923398088e-06
6.07971131806e-05
-1.7851255924e-06
7.33695154248e-05
-8.50480574123e-07
8.7955885103e-05
1.32098565347e-06
0.000106946076331
0.000126144082608
4.80709074643e-06
5.40053043285e-08
5.81115327931e-07
7.97718794746e-08
1.00391814656e-06
-2.00268622096e-07
2.33902605829e-06
-9.14557867709e-07
4.05013272391e-06
-1.81116626745e-06
6.5265704901e-06
-2.43163304625e-06
8.7182567731e-06
-2.98720471757e-06
1.15682883022e-05
-3.19342826794e-06
1.43398617621e-05
-3.41466901898e-06
1.74639599929e-05
-3.53587247732e-06
2.10259485669e-05
-3.6087848495e-06
2.51785882205e-05
-3.61059112463e-06
3.02670760824e-05
-3.52711373715e-06
3.63318781996e-05
-3.34019075163e-06
4.36406020911e-05
-3.01165724886e-06
5.24810439131e-05
-2.52629683098e-06
6.29512815073e-05
-1.75557279933e-06
7.58079013806e-05
-7.33279504285e-07
9.08237502963e-05
1.57713626664e-06
0.000109340005296
0.000128170052829
5.1651683555e-06
-6.23069000796e-08
6.23080805263e-07
-7.21558435856e-08
9.06510687031e-07
-4.04087320396e-07
2.04832772803e-06
-1.21733942112e-06
3.60708068964e-06
-2.12924656598e-06
5.88977851997e-06
-2.98894840351e-06
8.16679211336e-06
-3.55090921592e-06
1.13751912037e-05
-3.74883474263e-06
1.4497883156e-05
-3.90590068379e-06
1.80661205468e-05
-3.95169655342e-06
2.18098261773e-05
-3.97140510062e-06
2.61638907693e-05
-3.91773510001e-06
3.14214870471e-05
-3.78534262476e-06
3.76918136604e-05
-3.55240782584e-06
4.5240814827e-05
-3.17516517534e-06
5.43476941219e-05
-2.64386666723e-06
6.51572170241e-05
-1.80664555843e-06
7.82988835362e-05
-7.22744336594e-07
9.37740671134e-05
1.56634664218e-06
0.000111928801293
0.0001307237369
4.86232742939e-06
-7.10792049777e-08
6.71904711625e-07
-1.33756081674e-07
9.19646640722e-07
-4.93769144148e-07
1.84899770894e-06
-1.30718088886e-06
3.25944793935e-06
-2.28407690665e-06
5.29891952752e-06
-3.32272764306e-06
7.67313750298e-06
-3.96724239398e-06
1.10685035537e-05
-4.28410934908e-06
1.45871001282e-05
-4.41819663176e-06
1.85381273787e-05
-4.42720362329e-06
2.25274881454e-05
-4.40012008811e-06
2.7120422542e-05
-4.28886067739e-06
3.25579859579e-05
-4.10062823029e-06
3.90490774717e-05
-3.81476424503e-06
4.68543207734e-05
-3.38502007019e-06
5.62427248644e-05
-2.80566351496e-06
6.74137864129e-05
-1.91625660632e-06
8.0858075934e-05
-7.98287649967e-07
9.68365568838e-05
1.33234780314e-06
0.0001148513755
0.000134046154521
4.07080161786e-06
-7.00916293567e-08
7.23945323652e-07
-1.53762108527e-07
9.65211467936e-07
-4.83424901642e-07
1.69876051826e-06
-1.25177580426e-06
2.9869502809e-06
-2.29208512166e-06
4.88264450663e-06
-3.43548561049e-06
7.3419204435e-06
-4.24400573712e-06
1.08190016483e-05
-4.74311803557e-06
1.46632976078e-05
-4.92141028055e-06
1.89004662882e-05
-4.93805800823e-06
2.31860016327e-05
-4.87867588068e-06
2.80516726465e-05
-4.70352777502e-06
3.36705727778e-05
-4.45362605458e-06
4.0401458593e-05
-4.11008438526e-06
4.84817064903e-05
-3.62636825785e-06
5.81710753939e-05
-2.99959814361e-06
6.97290043377e-05
-2.07228190723e-06
8.35086947264e-05
-9.39301598809e-07
0.000100041549856
1.03490267762e-06
0.000118119661406
0.000138121980741
3.23444027705e-06
-7.17528473453e-08
7.80761788789e-07
-1.5932365592e-07
1.02168673193e-06
-4.25394735651e-07
1.60989515452e-06
-1.13509085527e-06
2.78262247146e-06
-2.20152152701e-06
4.60588335845e-06
-3.42955215997e-06
7.1173044559e-06
-4.44754590443e-06
1.05964877556e-05
-5.15092644782e-06
1.46729864457e-05
-5.43146798529e-06
1.91458265185e-05
-5.48485305011e-06
2.37723306648e-05
-5.38142652354e-06
2.89284899442e-05
-5.15765892807e-06
3.47725783382e-05
-4.84426664768e-06
4.17497737258e-05
-4.44006924544e-06
5.01246377141e-05
-3.90272442824e-06
6.0138884842e-05
-3.22939276726e-06
7.21103160956e-05
-2.27491872541e-06
8.62693112217e-05
-1.13519298418e-06
0.000103406992976
6.77514068138e-07
0.000121750772605
0.000142819092982
2.4846806656e-06
-7.43564991147e-08
8.42055561171e-07
-1.68622087317e-07
1.08836645477e-06
-3.65594588567e-07
1.6169307394e-06
-9.95289091898e-07
2.62581731779e-06
-2.06215471373e-06
4.39198557433e-06
-3.38409748117e-06
6.89877460303e-06
-4.62452527552e-06
1.03098313307e-05
-5.54517656536e-06
1.45454818723e-05
-5.967635091e-06
1.92496862578e-05
-6.06951442297e-06
2.42527123176e-05
-5.92548117114e-06
2.97273013941e-05
-5.65360845111e-06
3.58577646043e-05
-5.27763032314e-06
4.30949083551e-05
-4.81069513392e-06
5.17833979719e-05
-4.22052478826e-06
6.21504263937e-05
-3.50096238511e-06
7.45621004657e-05
-2.52566877737e-06
8.9150893687e-05
-1.37749086312e-06
0.000106936773219
2.75998071068e-07
0.000125749115861
0.000147971207222
1.86648531777e-06
-6.91021490562e-08
9.01584608536e-07
-1.56940906236e-07
1.1534814123e-06
-3.25872294864e-07
1.65748466996e-06
-8.54992853561e-07
2.49708430121e-06
-1.89725773178e-06
4.18298368388e-06
-3.29378945053e-06
6.62713237257e-06
-4.75822603701e-06
9.95284193618e-06
-5.89685192032e-06
1.42599639136e-05
-6.50244521924e-06
1.9219017124e-05
-6.66816592984e-06
2.45985959521e-05
-6.51013983711e-06
3.04391625929e-05
-6.18596004913e-06
3.69095039764e-05
-5.75334277914e-06
4.44403235267e-05
-5.22237744017e-06
5.34574791542e-05
-4.5812879607e-06
6.42097093072e-05
-3.81613621172e-06
7.70878274982e-05
-2.8214921364e-06
9.21581375116e-05
-1.65608148299e-06
0.000110625786607
-1.20719150994e-07
0.000130078150542
0.000153466203895
1.36756341941e-06
-6.30942028971e-08
9.58844938068e-07
-1.47199282137e-07
1.2203152007e-06
-2.95516092824e-07
1.71333463609e-06
-6.99269102298e-07
2.42208783767e-06
-1.6834790909e-06
3.97170027002e-06
-3.13414300616e-06
6.32933674534e-06
-4.77781494649e-06
9.56247656065e-06
-6.15857569073e-06
1.38858384525e-05
-6.9890880816e-06
1.90916506609e-05
-7.25882978672e-06
2.48170921155e-05
-7.11988417799e-06
3.10596655442e-05
-6.73977830278e-06
3.7906172311e-05
-6.25879440933e-06
4.57894504663e-05
-5.66841202943e-06
5.51514012538e-05
-4.97996642947e-06
6.63219201231e-05
-4.17131191558e-06
7.96922510437e-05
-3.15613847397e-06
9.52930602023e-05
-1.96079362207e-06
0.000114464700951
-4.64072852222e-07
0.000134662855421
0.000159238815844
9.85928124716e-07
-5.41687875004e-08
1.01382208751e-06
-1.36538690819e-07
1.28992455326e-06
-2.75398957538e-07
1.78062503735e-06
-5.72086937447e-07
2.43869775577e-06
-1.44597063022e-06
3.75297013852e-06
-2.91416559031e-06
6.03386327762e-06
-4.68923513729e-06
9.17405604651e-06
-6.31138170144e-06
1.34780935845e-05
-7.38345362482e-06
1.88845331997e-05
-7.8026107857e-06
2.49298680566e-05
-7.71531556857e-06
3.15877824695e-05
-7.29663893843e-06
3.88428147446e-05
-6.77535885876e-06
4.71429797165e-05
-6.13658790872e-06
5.68750831591e-05
-5.40770795904e-06
6.84950518739e-05
-4.56086079617e-06
8.23829677355e-05
-3.52296075163e-06
9.85563683254e-05
-2.28560644504e-06
0.000118444286933
-7.84021851521e-07
0.000139462271819
0.000165207918321
7.05926603551e-07
-3.98167976749e-08
1.06191243254e-06
-1.13265144745e-07
1.35558847262e-06
-2.31491628641e-07
1.84305003941e-06
-4.68126830914e-07
2.4756475691e-06
-1.19008325473e-06
3.53998995419e-06
-2.6270994207e-06
5.73356860911e-06
-4.48289000841e-06
8.7695436272e-06
-6.35307179193e-06
1.30638494595e-05
-7.67739217618e-06
1.85970111546e-05
-8.28190228828e-06
2.49534676427e-05
-8.268908274e-06
3.20208749656e-05
-7.84241186169e-06
3.97261454136e-05
-7.27558266818e-06
4.84849473429e-05
-6.60779179402e-06
5.86450656187e-05
-5.8515326536e-06
7.07418428863e-05
-4.97647566081e-06
8.51709274394e-05
-3.91519506374e-06
0.00010194891773
-2.62363543336e-06
0.000122553433074
-1.07234818801e-06
0.000144431069002
0.000171294722128
5.28575777978e-07
-2.54130550421e-08
1.10104271382e-06
-9.0318027212e-08
1.41744373826e-06
-1.95999827981e-07
1.9050889494e-06
-3.96043938121e-07
2.52483648437e-06
-9.16031874415e-07
3.40151373577e-06
-2.21064252371e-06
5.37712799283e-06
-4.15571502017e-06
8.34604097933e-06
-6.234141721e-06
1.25860701924e-05
-7.83251198761e-06
1.82136346222e-05
-8.65089091015e-06
2.48857933209e-05
-8.72032048789e-06
3.23568825825e-05
-8.31297108081e-06
4.05570719571e-05
-7.72341249566e-06
4.98204462517e-05
-7.05713888992e-06
6.04852575638e-05
-6.29476868084e-06
7.30802866372e-05
-5.40836080687e-06
8.80712500118e-05
-4.32683094395e-06
0.000105472501661
-2.97151239548e-06
0.000126780443979
-1.33532966373e-06
0.000149529007646
0.000177430114374
4.27820403205e-07
-1.07995640317e-08
1.13137747335e-06
-6.52285748591e-08
1.47274593303e-06
-1.55278483353e-07
1.96082210815e-06
-3.19950606648e-07
2.56798815477e-06
-6.78960590237e-07
3.35508170321e-06
-1.74001848371e-06
4.93039922042e-06
-3.67421558631e-06
7.78511416364e-06
-5.93133530864e-06
1.19405116363e-05
-7.83379443016e-06
1.76982719165e-05
-8.85690782032e-06
2.4671674295e-05
-9.03336311643e-06
3.26053533294e-05
-8.67971914231e-06
4.13509874677e-05
-8.0858369251e-06
5.11505062803e-05
-7.44202675983e-06
6.24045489796e-05
-6.71561222893e-06
7.55437365335e-05
-5.84540388762e-06
9.11046837268e-05
-4.7536367713e-06
0.00010913064083
-3.32605583904e-06
0.000131108871653
-1.56592910527e-06
0.000154703764459
0.00018354042256
3.98071539839e-07
4.30044300429e-09
1.15370789545e-06
-4.68007108052e-08
1.52830149056e-06
-1.24080283971e-07
2.01367811929e-06
-2.44386625229e-07
2.59259859137e-06
-4.88109482091e-07
3.30584793761e-06
-1.21381052588e-06
4.47933140722e-06
-2.95797418841e-06
7.06276744382e-06
-5.35988652565e-06
1.11315985593e-05
-7.54160729106e-06
1.69988704047e-05
-8.79798974846e-06
2.42976609686e-05
-9.08941635458e-06
3.27551749298e-05
-8.80257410845e-06
4.21066022517e-05
-8.28128273528e-06
5.25334984705e-05
-7.69651096906e-06
6.4415915209e-05
-7.07748046985e-06
7.81838348063e-05
-6.27336005348e-06
9.43044921255e-05
-5.19416841837e-06
0.00011292985443
-3.69490257516e-06
0.000135520853545
-1.79295930622e-06
0.000159908605749
0.000189535901959
3.97373068357e-07
7.19625904614e-09
1.1755765028e-06
-4.10167608186e-08
1.58435117056e-06
-1.10917565637e-07
2.06942371628e-06
-2.01735100286e-07
2.61195695575e-06
-3.65670358091e-07
3.2529926274e-06
-7.79523079822e-07
4.19775187499e-06
-2.11816074671e-06
6.24241529252e-06
-4.44981665289e-06
1.01414714038e-05
-6.78067533453e-06
1.61132223802e-05
-8.27272979155e-06
2.38518765993e-05
-8.72184999538e-06
3.28783334451e-05
-8.605285594e-06
4.29240790613e-05
-8.24853911146e-06
5.40214134352e-05
-7.8375574789e-06
6.65831369071e-05
-7.35761182977e-06
8.09888813655e-05
-6.68343159681e-06
9.76977024576e-05
-5.66175165314e-06
0.000116879273434
-4.09711883965e-06
0.000139983838248
-2.0154853951e-06
0.000165050595547
0.000195215600727
4.98195759941e-07
7.24262955197e-09
1.19684824471e-06
-3.36898710551e-08
1.63689717004e-06
-8.78021337844e-08
2.12083825931e-06
-1.46301626224e-07
2.62617795846e-06
-2.21663619823e-07
3.184487189e-06
-4.40775339401e-07
3.98433131512e-06
-1.32496950742e-06
5.52191240834e-06
-3.30689994609e-06
9.2312924294e-06
-5.58240462291e-06
1.5202495899e-05
-7.19164259023e-06
2.34562887636e-05
-7.81422018399e-06
3.31393947023e-05
-7.93960790505e-06
4.38914718608e-05
-7.88757788776e-06
5.56781326786e-05
-7.78761041948e-06
6.89379397329e-05
-7.56035913032e-06
8.39795140811e-05
-7.05685817201e-06
0.000101245635114
-6.13928396557e-06
0.000120952097222
-4.55012330256e-06
0.000144462725497
-2.2882789524e-06
0.000170028629602
0.000200413111533
5.60789265951e-07
9.01076477764e-09
1.21569640291e-06
-2.1630040163e-08
1.68360859467e-06
-5.97499765292e-08
2.1685139736e-06
-9.71135639852e-08
2.64785004051e-06
-1.48252405896e-07
3.16159881681e-06
-2.9289234434e-07
3.89667441065e-06
-8.13380189644e-07
5.16077424002e-06
-2.08985267321e-06
8.57709737584e-06
-3.76752166299e-06
1.46225121046e-05
-5.20287133495e-06
2.34508453799e-05
-6.08939029239e-06
3.37743313767e-05
-6.67447390425e-06
4.51796586649e-05
-7.14708394926e-06
5.75871017317e-05
-7.57629987111e-06
7.15200581721e-05
-7.76679398321e-06
8.71359082241e-05
-7.54707063811e-06
0.000104904242213
-6.75802459383e-06
0.000125033741689
-5.10205938052e-06
0.000148782644344
-2.58657312523e-06
0.000174620037076
0.000204873463092
6.5390725673e-07
1.9088969469e-08
1.23000698338e-06
4.71809404685e-09
1.71867787268e-06
-1.47412795041e-08
2.20909749101e-06
-2.9597407308e-08
2.67359261102e-06
-5.08504257459e-08
3.1726853917e-06
-1.10316284154e-07
3.88870147814e-06
-3.60709771231e-07
5.08763780262e-06
-1.13829636175e-06
8.62575125868e-06
-1.93962251523e-06
1.47724056768e-05
-2.73445926738e-06
2.39225242688e-05
-3.85824597652e-06
3.49385537689e-05
-5.03341999227e-06
4.67799038073e-05
-6.17263217615e-06
5.96201084759e-05
-7.21492280251e-06
7.40962987402e-05
-7.93546972245e-06
9.02427099084e-05
-8.09780265066e-06
0.000108467615449
-7.51232921326e-06
0.000128946874028
-5.79553327791e-06
0.000152733804032
-3.02209437437e-06
0.000178635404937
0.00020838600358
5.98416404216e-07
3.01054913448e-08
1.234701255e-06
3.30981818057e-08
1.74014088289e-06
3.45784032246e-08
2.23793431881e-06
3.61954364495e-08
2.70652532238e-06
3.85377485453e-08
3.22633866806e-06
4.31558996121e-08
4.00058863492e-06
-3.67927751872e-08
5.5090790989e-06
8.26531302052e-08
9.53882096334e-06
3.09793480395e-07
1.57448259737e-05
-3.70215137315e-07
2.53523703751e-05
-1.65128322442e-06
3.62721342546e-05
-3.41668246173e-06
4.83152043592e-05
-5.27497287702e-06
6.13441805151e-05
-7.01251693817e-06
7.61789055025e-05
-8.42024252457e-06
9.28483746775e-05
-9.067238981e-06
0.000111472694063
-8.6999953499e-06
0.000132248394131
-6.87722005155e-06
0.00015595617623
-3.73002859109e-06
0.000181701956997
0.00021061249261
4.21207872046e-07
3.81474089468e-08
1.23489040132e-06
4.50167548621e-08
1.75976782437e-06
3.75164625806e-08
2.28239871593e-06
4.05394594156e-09
2.79942155613e-06
-5.6678335053e-08
3.42291033676e-06
-1.11320500619e-07
4.38129911634e-06
2.11851222734e-07
6.5543795104e-06
1.29578222011e-06
1.12015254052e-05
2.20425103059e-06
1.77989233274e-05
1.69262166931e-06
2.75167640115e-05
-2.15818369136e-08
3.77407356043e-05
-2.14541645444e-06
4.89036241641e-05
-4.60116489704e-06
6.18821589999e-05
-6.88441616886e-06
7.66925717739e-05
-8.88611962493e-06
9.38068118888e-05
-1.0081419629e-05
0.000112966553596
-1.00345883827e-05
0.00013420351722
-8.1745570284e-06
0.000157953519599
-4.63185622519e-06
0.000183515489249
0.000211531759094
-4.08918672615e-08
3.76071898748e-08
1.2357577868e-06
3.92142621184e-08
1.78532668431e-06
1.2354021189e-08
2.35415308615e-06
-5.53040803806e-08
2.96477780205e-06
-1.5389621667e-07
3.77209384559e-06
-1.76265215664e-07
4.99569858854e-06
7.67928894853e-07
8.07677817995e-06
2.69736020398e-06
1.30631535045e-05
3.39504856029e-06
2.025715291e-05
3.0333236024e-06
2.85837001037e-05
1.29378251806e-06
3.77299602591e-05
-1.16526437122e-06
4.78992394207e-05
-4.01097264694e-06
6.01314964858e-05
-6.91043791409e-06
7.45640647994e-05
-9.65933230449e-06
9.18277071811e-05
-1.16657731023e-05
0.000111641770768
-1.21508828022e-05
0.000133619540701
-1.05091923111e-05
0.000158019241921
-6.24879965278e-06
0.000183322800422
0.000210507151655
-5.91760734684e-07
3.20512358024e-08
1.23851634272e-06
2.50717112622e-08
1.82125618326e-06
-1.84994520015e-08
2.45759155224e-06
-1.0173707515e-07
3.19765475165e-06
-1.86278654734e-07
4.21554405945e-06
4.20590210038e-08
5.83374802184e-06
1.39182537338e-06
9.63496146381e-06
3.06708302955e-06
1.4624861645e-05
3.7095796472e-06
2.11229271069e-05
3.19084921561e-06
2.78088563634e-05
1.50735913873e-06
3.55781541792e-05
-8.23746013655e-07
4.43405746181e-05
-3.53939797874e-06
5.50967092448e-05
-6.4995235111e-06
6.84622353876e-05
-9.61294317114e-06
8.52511169168e-05
-1.25170880048e-05
0.000105730395717
-1.37296965973e-05
0.000128671414624
-1.23974893748e-05
0.000154615813212
-7.72505075801e-06
0.000180649400445
0.000207761157327
-1.24732720228e-06
3.42930324709e-08
1.2413275593e-06
3.04351857165e-08
1.85993544905e-06
-4.7823157201e-09
2.5728880364e-06
-6.64086312702e-08
3.44168101294e-06
-8.88391557901e-08
4.59827314168e-06
4.72427389328e-07
6.62095159133e-06
1.99573252886e-06
1.03865012565e-05
3.2701685857e-06
1.48675619668e-05
3.77369729723e-06
1.9935339505e-05
3.14081278425e-06
2.52538885196e-05
1.78879636552e-06
3.13446418361e-05
-1.60518007213e-07
3.84658648269e-05
-2.436401398e-06
4.71683376702e-05
-5.20194512328e-06
5.87551889387e-05
-8.41699243885e-06
7.39986439904e-05
-1.18886446642e-05
9.40570464439e-05
-1.47835399206e-05
0.000118472089039
-1.46401252501e-05
0.000146505198182
-9.98862278834e-06
0.000174658384396
0.000202757635927
-2.30540373505e-06
4.74733818396e-08
1.23812207528e-06
6.28623235782e-08
1.8884964579e-06
6.99676167789e-08
2.66136631118e-06
8.90588114888e-08
3.60523506378e-06
2.06756464578e-07
4.78336029319e-06
9.69156607237e-07
6.93939266282e-06
2.24945850471e-06
1.02004021421e-05
3.11403921623e-06
1.38524521929e-05
3.28334808806e-06
1.75690937232e-05
2.65294972663e-06
2.1610028341e-05
1.5973023528e-06
2.60619488006e-05
3.23339469467e-07
3.13148663475e-05
-1.08694517696e-06
3.77760709688e-05
-2.76391336121e-06
4.68531969238e-05
-5.14070676286e-06
5.96504307975e-05
-8.51300843879e-06
7.78334532218e-05
-1.23733828886e-05
0.000102364255828
-1.4460365033e-05
0.000133013700413
-1.14565156417e-05
0.00016518550401
0.000195555919788
-3.05276223523e-06
7.28444939701e-08
1.22331382905e-06
1.22638674077e-07
1.88951731799e-06
1.9242875753e-07
2.68792767195e-06
3.16160590589e-07
3.63711995671e-06
5.75710925445e-07
4.74392788023e-06
1.4293827342e-06
6.6512613624e-06
2.37874867364e-06
9.34969857839e-06
2.8929976182e-06
1.21442593244e-05
2.76123773622e-06
1.48375096767e-05
2.28177018209e-06
1.75977086297e-05
1.7778427837e-06
2.05193171189e-05
1.32115651408e-06
2.41396978345e-05
7.35401936352e-07
2.89216648521e-05
-9.65628292913e-08
3.5870467965e-05
-1.26879269244e-06
4.57271095325e-05
-3.36560349635e-06
6.07451752663e-05
-7.06134443348e-06
8.31017380805e-05
-1.16888714867e-05
0.000115194347437
-1.09155011847e-05
0.000151841521676
0.000187583465814
-3.70896358927e-06
1.00399849111e-07
1.19279401602e-06
1.84762520062e-07
1.85595633324e-06
3.12125420877e-07
2.64445822314e-06
5.1394058456e-07
3.55464602097e-06
8.49288484581e-07
4.55793688814e-06
1.6054417219e-06
6.0516152694e-06
2.34864869924e-06
8.16243335375e-06
2.6657371886e-06
1.02035462198e-05
2.51430467358e-06
1.20561699949e-05
2.15249213956e-06
1.39098773206e-05
1.80131264941e-06
1.59163587184e-05
1.66676260904e-06
1.84254990325e-05
2.0303780465e-06
2.16249023006e-05
2.88132733979e-06
2.65151775089e-05
3.34996980199e-06
3.45905425464e-05
2.62559870891e-06
4.74365598658e-05
5.80634024676e-08
6.7068281935e-05
-4.17678143563e-06
9.59842814959e-05
-7.76508610177e-06
0.000137334227734
0.000179924454058
-3.18833170387e-06
1.29218583984e-07
1.14237589969e-06
2.47078638463e-07
1.78186397984e-06
4.24718133492e-07
2.53138369383e-06
6.8834018994e-07
3.37416247449e-06
1.0636771232e-06
4.27258704573e-06
1.66958010227e-06
5.36932450838e-06
2.15636440626e-06
6.96442382185e-06
2.21323662128e-06
8.47237160579e-06
1.94129886102e-06
9.79557343018e-06
1.78766995625e-06
1.09771888623e-05
2.32347692518e-06
1.19644295355e-05
3.32275243868e-06
1.37357230585e-05
4.48675491839e-06
1.65511456013e-05
5.47392648196e-06
6.54787051555e-06
7.69723302025e-06
6.75041530647e-06
2.843854476e-06
-1.04573718755e-06
-1.95073135356e-06
1.39184768262e-07
2.64834653209e-07
4.49432047738e-07
7.08298888032e-07
1.03829486499e-06
1.43680372574e-06
1.94543849671e-06
2.41840665712e-06
3.03059269874e-06
3.82846513778e-06
4.54177581977e-06
5.17797305556e-06
-2.30080037799e-06
4.94967459474e-06
-1.23539698552e-06
1.11839035538e-06
9.73565723857e-06
1.02993581225e-06
2.82539198966e-06
1.33065876722e-05
5.06948889873e-06
2.93449001e-06
1.65358317938e-05
9.27779488316e-06
2.54903369612e-06
1.94034404122e-05
1.31429365537e-05
2.07532898862e-06
2.19479932666e-05
1.65709549134e-05
1.59193836117e-06
2.42644394761e-05
1.95465779922e-05
1.22170603709e-06
2.6368548322e-05
2.21765748937e-05
9.22371616166e-07
2.8303113962e-05
2.45218662147e-05
6.93867516982e-07
3.01055956012e-05
2.66392926325e-05
5.28181276377e-07
3.18013745997e-05
2.85726681174e-05
4.2538272665e-07
3.34112794636e-05
3.03605118175e-05
3.66704240979e-07
3.4942290869e-05
3.2017825316e-05
3.55815251039e-07
3.63885754054e-05
3.35608091851e-05
3.62017156329e-07
3.77278747003e-05
3.49742005818e-05
4.23344493343e-07
3.8972828623e-05
3.62834233789e-05
4.63726417742e-07
4.00696757873e-05
3.74410729574e-05
5.20437856298e-07
4.10131037085e-05
3.84487978791e-05
5.00895114066e-07
4.17223370453e-05
3.92276771838e-05
4.29679897086e-07
4.21566740461e-05
3.97460239975e-05
2.28148856765e-07
4.22456281276e-05
3.99323126535e-05
-5.20915367865e-08
4.20233056816e-05
3.97839028171e-05
-3.6372926249e-07
4.15640033557e-05
3.93592235046e-05
-8.92531183877e-07
4.06825858315e-05
3.84864388854e-05
-1.28888708538e-06
3.95646837903e-05
3.7330034042e-05
-1.72014458418e-06
3.82239660325e-05
3.58176620339e-05
-1.50102118877e-06
3.71569475665e-05
3.46019924232e-05
-1.02113377636e-06
)
;

boundaryField
{
    inletfuel
    {
        type            calculated;
        value           nonuniform List<scalar> 3(-8.46740245885e-08 -2.53999737528e-07 -4.23402479999e-07);
    }
    inletair
    {
        type            calculated;
        value           nonuniform List<scalar> 
20
(
-9.00388487875e-07
-1.43829049475e-06
-2.10835656809e-06
-2.9378836023e-06
-3.95948124084e-06
-5.21204307331e-06
-6.74196481687e-06
-8.60452286192e-06
-1.08655736168e-05
-1.36035131685e-05
-1.69116451369e-05
-2.09009568822e-05
-2.57034306402e-05
-3.14759445995e-05
-3.84048912116e-05
-4.67117289157e-05
-5.66594664298e-05
-6.85606556326e-05
-8.27860027607e-05
-9.97765215174e-05
)
;
    }
    outlet
    {
        type            calculated;