/*--------------------------------*- C++ -*----------------------------------*\
  =========                 |
  \\      /  F ield         | OpenFOAM: The Open Source CFD Toolbox
   \\    /   O peration     | Website:  https://openfoam.org
    \\  /    A nd           | Version:  7
     \\/     M anipulation  |
\*---------------------------------------------------------------------------*/
FoamFile
{
    version     2.0;
    format      ascii;
    class       volScalarField;
    location    "0.05";
    object      Qdot;
}
// * * * * * * * * * * * * * * * * * * * * * * * * * * * * * * * * * * * * * //

dimensions      [1 -1 -3 0 0 0 0];

internalField   nonuniform List<scalar> 
814
(
6.24375766507
7.49635802306
7.10465790077
651.114216065
975.529609297
3825.2356758
32446.9040208
71890.9042395
655721.356599
1098399.13956
4922285.69664
144858106.824
7519081.85597
32758401.341
448393373.689
9441860.8914
31524560.9207
204813930.521
9635797.95076
24708255.2578
90708094.4594
8497091.42681
16946247.2524
40481388.1424
6660364.11378
10644402.3002
18581348.7531
4754657.34181
6357475.71507
8959696.49069
3146963.43999
3693236.95637
4629745.40031
1969600.63128
2130231.57751
2589885.31827
1189045.92891
1247470.69461
1579279.07441
711647.01049
760711.97105
1052182.98777
437629.676967
497291.564712
766264.928907
290222.48488
358152.336254
605974.79503
217256.828093
287971.498412
511429.778941
185340.70808
253444.569859
448097.651022
173020.085531
234091.136241
396239.743758
164600.934998
215295.212307
341128.724519
151862.302265
189649.192794
279389.24077
131936.531154
157956.038377
217286.687416
113681.074415
131577.772486
172391.190858
115161.035375
132103.958394
171240.294384
172000.000699
197187.734337
258139.736867
320139.832537
366694.472294
477053.725773
596795.996726
671780.93876
854720.501908
1006383.87863
1119144.08911
1380118.69283
1556080.86178
1691747.64064
2015108.97817
2096234.5816
2247300.08415
2582072.64074
2430845.87686
2555652.03236
2847103.60635
2361461.13351
2463120.51322
2681342.87898
118582479.75
1922325364.76
547657800.241
176771706.99
65040986.6764
27255381.5136
13156695.2905
7261285.67107
4436936.74826
2951250.70237
2093258.45814
1575903.71136
1245034.30882
1015068.782
838693.256738
690611.048273
551733.416982
419590.565173
306291.709746
233215.413014
232347.147018
356939.180457
658481.172502
1149341.84202
1796670.65713
2511769.08313
3089518.22976
3271578.92423
3001552.43594
14124.0786685
3676.56964874
2332.57901717
1292.81613091
634.605179455
277.343029641
83.5457484842
21.9084453292
5.33702252977
1.18602850672
0.237593704334
0.0419954878085
0.00642117224021
0.000833909510671
9.02191242639e-05
7.99563962433e-06
5.7257404675e-07
3.24100534116e-08
1.47033225646e-09
9.19477416228e-11
941063.121335
228108.929475
91087.4942262
37381.3657619
14396.5762515
3619.50902837
895.371818152
205.774401232
44.5985802785
8.87618229567
1.62486798288
0.265851427721
0.0379229161751
0.00463435264664
0.000473813286298
4.0160747694e-05
2.74365926408e-06
1.49889019697e-07
6.60638385186e-09
3.77349223116e-10
7572938.87938
2156900.33677
799558.636516
193991.802476
55213.1390136
14293.4008622
3645.7941874
814.509344065
168.860480189
31.7538197924
5.61498771104
0.890152870379
0.122551983224
0.0144191061826
0.00141758382809
0.000116331175261
7.69428671213e-06
4.12328788678e-07
1.77137469868e-08
9.40450824922e-10
167751816.287
28665132.4429
2639725.261
655018.524468
233317.777793
62640.4095984
16650.0100507
3490.45324729
662.09623576
115.210890603
19.7399894624
3.09122053269
0.420968105266
0.0489640007638
0.00476329658572
0.000385716688303
2.51608758272e-05
1.34052325273e-06
5.68353527182e-08
4.55405828628e-09
2054874315.25
502976067.374
43069812.2348
4194776.56601
814923.532899
244517.323964
71136.8295735
14840.9865503
2514.77674834
381.074501059
61.6956327429
9.68963432808
1.33875390524
0.157478694638
0.0154693503544
0.00126210492113
8.30655956657e-05
4.50083055562e-06
1.99752343331e-07
2.49713942398e-08
668198038.499
501046249.422
42254168.9193
6973060.36965
1609729.86093
601382.538865
199429.744906
44767.9980066
7312.79109118
1041.85997384
163.410006711
26.3496833209
3.79569786752
0.463182287079
0.0469436669987
0.00393594550562
0.000266411453686
1.49543482643e-05
7.26551770725e-07
1.17232897643e-07
212079047.544
551544527.119
41775102.0624
8453186.8512
2310757.63761
975155.176152
368129.432706
90520.8463249
15555.5140652
2317.24570705
376.227658425
62.8239082236
9.54147035503
1.22881063926
0.130704729235
0.011438670171
0.000808004569768
4.76393878259e-05
2.57689390288e-06
4.81957087064e-07
87081677.7204
313399032.314
62454121.1543
10562815.5034
2901418.18978
1194639.86668
495321.988068
133866.178124
25865.4851814
4410.77942277
767.056273915
131.274723547
21.1761135267
2.91353148459
0.329179920442
0.0304097872694
0.00226701703788
0.000141997548905
8.60265752405e-06
1.73578852075e-06
43942727.9487
194859655.83
101081797.763
15437063.842
3681293.99554
1272804.70228
551627.145074
164503.51038
36942.1804538
7447.15933992
1395.05179962
244.194423615
41.7864880517
6.16742418205
0.746152975657
0.0734007758519
0.00583029916202
0.000392529762472
2.67620977891e-05
5.54153484281e-06
25780889.266
122818497.558
173029909.854
25756098.5207
5239421.71144
1359723.25254
579887.356043
190469.39827
49079.4873651
11410.0563751
2299.61351313
413.371507182
74.5673061023
11.7724901691
1.53115048882
0.161384607105
0.0137772601036
0.00101079840512
7.81884054408e-05
1.60826942696e-05
16484811.6989
77295299.3666
239422889.278
44921054.5155
8431636.04625
1632752.90297
631762.915863
226625.174947
63912.6348045
16226.1415767
3502.38387206
650.684763712
122.817989313
20.5817895575
2.87738809203
0.326206662224
0.0301982665022
0.00245488946847
0.000218012791642
4.38085785545e-05
10977297.423
49351391.6382
149060268.802
78676107.707
14671474.4743
2361619.87188
747497.541309
284490.578053
83576.9125737
21924.7214171
5014.4275593
968.78499631
189.986820492
33.4659912951
5.01343206754
0.613134510954
0.0622382252238
0.00571624774717
0.000589333148292
0.000114863334679
7647259.82863
32493727.606
95863794.4748
142784977.606
26039864.1926
4033431.70838
991887.989423
372139.246989
110029.029848
28622.7325371
6830.54392133
1380.2298247
279.845326116
51.2964539704
8.19572254605
1.08582614467
0.1226987204
0.012990921289
0.00156198100009
0.000294916028862
5495112.16445
21944701.2426
63622922.2785
180729259.856
45488951.4606
7511508.02293
1502240.17102
501533.589293
145300.072885
36563.090427
8940.70311761
1894.60619676
395.921173835
74.9603671037
12.6801507814
1.83805214779
0.236043612886
0.0292685782722
0.00406807583487
0.000744621720689
4028146.58173
15043795.364
42943657.5575
121552316.142
80593654.1881
14489996.2283
2568053.16421
704405.954224
193103.404758
46329.4917488
11363.4776383
2515.33498566
541.203220065
105.224559991
18.8173782111
3.03081186034
0.452452317818
0.0659805399145
0.0103926354731
0.00184970397345
3035019.23888
10523674.1437
29335998.5508
80783811.8607
154751711.784
28141097.861
4922057.19029
1083769.5451
267224.900901
60136.1861615
14251.0042153
3251.03875845
720.435378866
143.327589062
27.3208302971
4.97346788529
0.878520613736
0.149017016931
0.025931603776
0.00448708514273
2322361.92186
7402064.51715
19907219.2382
52948686.3852
149176752.008
54469249.0586
10375136.0636
1945053.08481
407821.707512
84317.382612
18185.9997698
4108.03286795
928.238276409
190.221780003
39.4377433492
8.31499622897
1.74210920983
0.336133832558
0.0630603815342
0.0106095701489
1792365.89927
5230340.27208
13418237.3222
34124099.2854
90891950.68
109288665.66
22066837.83
3851332.89635
685038.408416
130624.383713
24350.8453547
5107.07391633
1149.88724359
247.772775853
57.6977659256
14.3865907155
3.53120712634
0.75730456256
0.150730174755
0.0247944562715
1381595.98993
3675666.2076
8897834.3476
21423317.6187
53566012.2618
140326330.564
42625141.7554
7715375.45241
1170734.48704
207689.502403
33764.5686026
6217.74920734
1377.03019135
323.625100639
87.7585797384
25.9847179184
7.32452922031
1.72231163535
0.361754825835
0.0594378298653
1031926.2595
2505499.7994
5686538.96611
12903252.5699
30420552.8449
76535196.7285
71838140.6375
13812142.758
1934157.67459
306336.167454
44326.1147971
7184.16982332
1608.0871424
437.162297984
142.163775872
49.397898254
15.7337034703
4.06556825916
0.917441646395
0.156874439141
734816.27538
1636318.00301
3500136.00515
7576891.26459
17361979.8836
43279837.7288
110193357.677
21003212.0803
2691354.19687
386205.17025
51920.905447
7725.65902357
1869.83874874
626.653627785
249.003877528
99.5478823003
35.6712936075
10.3178386765
2.5674478803
0.482231665217
506213.195316
1050517.41381
2169600.40323
4670887.09761
10951236.3952
28049418.1533
86895519.772
25905236.2717
3036651.1798
396448.186108
49096.9629349
7749.7322363
2320.39911993
995.6583089
474.37209399
216.083870953
87.5870772548
28.7961404177
8.11851932145
1.69723029934
374304.548165
771807.804811
1675101.73123
3970670.72876
10303810.252
28066577.7921
89863611.8958
23006646.3613
2809112.21545
343063.920801
38963.465559
8165.62975627
3433.11271026
1842.74482891
1005.79351414
508.438715118
229.852310227
85.5831664334
27.2285849661
6.16839790396
384733.626864
871526.976437
2162153.81302
5824785.35106
16340168.6414
46172727.3438
96791915.4668
15370752.1182
1995576.16266
218507.168626
31128.9895265
11069.4027424
6435.29214146
4023.12342277
2402.44288904
1298.04193143
630.839974019
257.729197679
89.7568043889
21.4802709575
616722.995049
1517421.86487
4055932.80557
11415852.503
30793603.9699
81527370.9977
57316410.8854
8512920.43824
1081578.52691
124078.686274
34698.8461549
20726.890544
14589.5668742
9934.78191313
6264.63188884
3499.70453427
1746.56379127
743.470837003
271.075679067
67.7066784936
1138524.71044
2814348.80999
7496380.52672
20267286.9773
51271686.5933
137558362.868
29991033.9505
4077444.51618
492134.26616
99194.0240357
59001.3665278
46897.1526551
36069.5473328
25742.5127299
16785.9642061
9607.83410703
4808.99664924
2049.94931433
750.645030854
194.568584397
1922125.90989
4504693.73506
11128748.9528
27324966.5642
66906387.0877
105042452.316
16746432.0827
2189828.3995
335182.445519
147367.053784
128222.340556
112888.703378
89271.6713336
64836.0202446
43001.8798388
25251.9110187
12740.7413849
5372.96366579
1905.60194932
503.094731187
2855932.80635
6143170.94978
13646770.0095
29972401.8821
73872836.6502
71415983.5479
12002094.1513
1802753.19574
451953.510316
319960.105158
308357.853943
270664.662224
213086.097602
153985.026293
102672.66615
61609.8764316
31763.8885098
13523.9445538
4633.32147434
1200.73482831
3743420.87034
7228354.76304
14323151.0278
29095470.9583
71831092.0059
61867958.0867
12951472.1836
2707573.04919
1020762.73715
822860.397106
757980.91944
635259.044241
487325.089239
345315.773765
227869.143803
137493.824217
73011.7835547
31834.6217074
10517.0482233
2564.29970561
4292381.27815
7410792.57941
13334247.4715
25797999.1379
61402468.7251
65436093.1639
17653228.8319
5417119.42105
2797765.57813
2217812.90564
1841577.10612
1442561.31421
1058593.41912
724224.527499
461768.516932
274107.294958
147254.209401
66592.9881003
22534.2249041
5054.1390161
4265916.08184
6720527.55904
11318238.5224
20902230.2014
45138369.1877
84373927.0421
31589243.6334
14581756.9191
9122970.64952
6492414.21111
4648959.48178
3248471.66426
2171630.22379
1367824.03458
808479.766724
448754.717149
236248.793283
110371.008386
38957.288877
8156.98260997
3740422.75274
5545106.7317
8896361.94403
15448955.1659
29378692.248
58880615.1192
71017989.7218
42604657.6651
28109656.9689
17652159.0872
10574603.0229
6183414.3546
3574947.32368
2.5238675782e-08
5.8638084635e-08
6.81326231474e-08
8.96489367943e-08
1.792727418e-07
1.64401019345e-07
5.52582534482e-07
3.64280426061e-07
1.57467756059e-06
8.30174025532e-07
4.08685640259e-06
1.89495984298e-06
9.94199651919e-06
4.28354316871e-06
2.33267801827e-05
9.62695566822e-06
5.3722099645e-05
2.15616127706e-05
0.000122780895391
4.84618312447e-05
0.000280100278206
0.00011011555792
0.000641127434573
0.000255939451865
0.00147608121997
0.000621144263092
0.00348704764535
0.00164192320376
0.00870638323691
0.00493863546563
0.0244545695901
0.0170503304939
0.0786094975488
0.0634428146691
0.280921868801
0.236322236728
1.02331087381
0.834254418634
3.57468273788
2.72902863251
11.5392363468
8.19414974102
33.929976569
22.455261565
92.2372910139
56.7019365966
225.092634475
129.85996227
505.078105287
272.672479391
994.501299217
499.817274426
1762.30010323
798.768992543
2491.96737301
960.722088309
)
;

boundaryField
{
    inletfuel
    {
        type            zeroGradient;
    }
    inletair
    {
        type            zeroGradient;
    }
    outlet
    {
        type            zeroGradient;
    }
    axis
    {
        type            empty;
    }
    leftside
    {
        type            zeroGradient;
    }
    burnerwall
    {
        type            zeroGradient;
    }
    front
    {
        type            wedge;
    }
    back
    {
        type            wedge;
    }
    procBoundary0to1
    {
        type            processor;
        value           nonuniform List<scalar> 
27
(
2155518.39715
2214749.78544
2367592.46661
2585971.78954
2036209.88899
1130339.1443
603828.976443
306569.014345
143111.703866
51238.4121442
10711.8400164
3105625.01339
4362695.89131
6609459.7529
10588222.9234
17675313.0414
29561235.0883
41389481.7014
45316725.4192
44123673.8901
31935412.8503
16048881.6596
8414996.31809
2036209.88899
4496434.12745
3066.67576962
843.918750995
)
;
    }
}


// ************************************************************************* //
