/*--------------------------------*- C++ -*----------------------------------*\
  =========                 |
  \\      /  F ield         | OpenFOAM: The Open Source CFD Toolbox
   \\    /   O peration     | Website:  https://openfoam.org
    \\  /    A nd           | Version:  7
     \\/     M anipulation  |
\*---------------------------------------------------------------------------*/
FoamFile
{
    version     2.0;
    format      ascii;
    class       volScalarField;
    location    "0.05";
    object      T;
}
// * * * * * * * * * * * * * * * * * * * * * * * * * * * * * * * * * * * * * //

dimensions      [0 0 0 1 0 0 0];

internalField   nonuniform List<scalar> 
814
(
293.60803374
293.61024081
293.619910273
293.361252899
293.363672416
293.364873209
293.219842648
293.228437325
293.245554888
293.257071681
293.68661267
299.876365051
294.025461626
296.535328165
323.933352859
295.400105521
300.704859873
342.456493688
297.624774785
306.478267176
360.438821604
300.903872526
313.911369841
377.425761991
305.480720626
322.76268121
392.968070883
311.8287742
333.250549429
406.780237376
320.31790339
345.234196392
419.27514662
331.235258614
358.559829998
431.210839525
344.783811923
373.400941759
443.886057576
361.250175431
390.267707803
458.469908779
381.236644121
410.196520609
476.563024568
405.728620715
434.551678918
499.733570028
435.865701747
464.556574232
528.76487655
472.447854835
500.762474158
563.311571958
515.474052641
542.746347891
602.107454352
562.663598734
587.906915543
641.764771054
609.80693141
631.758658848
677.736583991
651.971255664
669.81341987
706.715329195
687.46099252
701.353544141
730.080740433
719.775196975
730.817503786
753.891923071
758.723038891
768.306678076
788.766399242
816.209817285
825.724014041
846.31644881
902.667258101
912.846964889
935.321431767
1021.76242412
1033.01970337
1057.86433995
1168.97276339
1180.7284687
1206.81492134
1327.58511097
1339.1073279
1364.42190549
1475.23064104
1485.39422274
1507.73782463
1588.01647473
1596.45534127
1614.86294875
374.507058343
648.399285996
616.666294557
606.411469426
594.005088981
579.671441721
569.50770658
563.576035387
560.609738035
561.988781233
567.968683002
580.55710949
599.734618786
624.783919785
653.837017947
684.881651322
714.098479631
737.576053396
753.924440547
766.918808978
784.080065035
816.341637564
874.820954296
966.881027062
1092.97005504
1243.60165236
1399.95748547
1539.01614039
1640.51541036
292.466559341
292.459167618
292.442915524
292.4271945
292.417641591
292.412749125
292.411103984
292.411043266
292.411728587
292.41252736
292.413188805
292.413597224
292.413723592
292.413571833
292.413107013
292.412398065
292.411508219
292.410579154
292.408966124
292.400446474
298.564956286
295.114546941
293.844487954
293.23853469
292.988534633
292.865096672
292.829138084
292.819303634
292.825702359
292.833762746
292.842375328
292.849434861
292.855232026
292.859901741
292.863109569
292.866041043
292.866569068
292.868376268
292.865587733
292.875184873
335.616496288
310.001304634
303.746963414
296.958878124
294.760974343
293.706920491
293.321622081
293.172471311
293.139316871
293.140417469
293.151112713
293.161533339
293.170564542
293.178016945
293.183619253
293.188189589
293.190033655
293.192651316
293.190228097
293.219695921
486.822109348
391.985878102
351.466440601
318.122117282
304.950229801
297.57436442
294.829222458
293.71756362
293.381903369
293.306967002
293.301495322
293.308866102
293.317256168
293.324288348
293.329829144
293.333692338
293.336390726
293.338150068
293.342141171
293.678154021
1636.72747878
1079.72171899
615.367530116
414.320739516
343.013843669
314.717116291
301.655762182
295.746884552
293.836012673
293.385987715
293.30976683
293.302514907
293.307049026
293.31220523
293.316489091
293.3190582
293.321700454
293.322539843
293.333336147
293.918680688
1687.64879232
1809.20218085
892.869295617
551.222604286
411.018951085
351.371142148
317.005107742
300.727223902
295.026552069
293.576276761
293.30019144
293.252507611
293.248702844
293.252104641
293.255715429
293.258001583
293.260251673
293.261203201
293.275750917
294.003208556
1565.53872107
2352.13260835
1164.63544671
727.111385044
507.471794501
403.753370013
339.186563448
308.682164531
297.311023203
294.094373527
293.386771346
293.238613265
293.214236839
293.214498615
293.217960691
293.22078128
293.222931016
293.22476358
293.2437503
294.035440695
1421.1689322
2416.74316466
1483.88367771
933.721532086
622.182338252
460.892822367
363.735117105
318.672200382
300.884415274
295.191534522
293.654083202
293.285835894
293.215193182
293.207077545
293.209732825
293.213012758
293.215412266
293.2182383
293.24482824
294.093268732
1292.90946134
2340.64833027
1844.55212122
1164.2605875
741.722676682
514.892500009
389.008459424
330.713367802
306.110427957
297.126252658
294.176928872
293.398708918
293.238858281
293.212110611
293.211942323
293.215115091
293.217810283
293.221511936
293.258037825
294.185282902
1191.22464748
2228.01293161
2185.53468682
1412.44570603
863.132155759
569.476651303
418.298660498
346.241334018
313.565988211
300.134500411
295.055672969
293.594802273
293.28009876
293.218108166
293.211624481
293.214018194
293.216913681
293.221600031
293.269432066
294.295860245
1109.81854388
2099.85601062
2360.96443869
1674.526439
997.982013887
635.485730924
456.435570124
366.947425777
323.774286882
304.433698403
296.431796186
293.917437913
293.349093613
293.226180816
293.207781635
293.208512506
293.211531344
293.217607668
293.278357079
294.420371799
1043.6829322
1966.16013577
2377.84138321
1945.31475535
1163.05243598
722.007570739
506.032348892
393.617571921
336.92443997
310.205892048
298.469453771
294.432779393
293.466116428
293.243651162
293.204589506
293.202108901
293.20516683
293.213189414
293.289199791
294.566028439
993.920707544
1837.29565913
2322.38988956
2184.10091241
1369.32259179
833.471077127
567.320993122
426.107775805
352.961760251
317.544457815
301.306118417
295.221841924
293.658017483
293.279325346
293.206417448
293.198040711
293.200896579
293.211513259
293.306156206
294.743142506
956.417989199
1714.48399693
2222.85842268
2295.64230736
1617.35131751
972.657588878
640.575336625
464.397771847
371.996974531
326.511310251
305.031008194
296.369316341
293.957706565
293.344098693
293.218073505
293.19953026
293.201671515
293.215688563
293.333670515
294.964087475
928.796378685
1598.36093318
2096.89993035
2301.41585381
1896.74749853
1147.78519827
729.96943853
509.883785975
394.538521763
337.192672452
309.6768506
297.950253752
294.40765789
293.454465514
293.248290514
293.21282241
293.213192748
293.231700045
293.38043633
295.247386421
912.164818401
1491.0809056
1956.39887448
2242.02485711
2147.50229764
1374.40659294
846.854120523
566.624270258
421.953581468
349.891576594
315.216534716
300.044430085
295.07631093
293.641216783
293.315535607
293.251433395
293.247742719
293.272199708
293.463172386
295.625870432
902.58867305
1390.83197257
1806.43803931
2129.017509
2246.93867752
1671.41681313
1014.41345244
644.265787634
456.859387863
365.256699106
321.730933868
302.692769824
296.021461005
293.95467951
293.456336846
293.343139277
293.329993333
293.362096035
293.612875069
296.156693506
896.178475473
1297.53671641
1656.19745518
1980.4238798
2228.98033895
2006.55538741
1258.96644769
756.148985039
503.145298904
384.319587862
329.449052869
305.949551446
297.313729393
294.488493672
293.743026706
293.542782259
293.507412977
293.548214898
293.88732669
296.935985985
890.79618165
1212.81998879
1513.25429589
1815.89410554
2129.62075592
2208.9315263
1588.04799531
919.008104784
564.590268633
407.334172626
338.411301642
309.876550589
299.141119749
295.436710856
294.31964871
293.957272081
293.868930627
293.91481145
294.383792173
298.109217786
882.452346437
1135.19699701
1381.9861738
1653.26789578
1986.74606609
2250.41031368
1957.31352039
1123.20500095
640.527450683
433.068521216
347.923825593
314.544067923
301.881742392
297.18442297
295.471934372
294.795050561
294.57781685
294.607148988
295.265494407
299.878949205
869.850060111
1065.39692442
1269.05956035
1512.49494103
1847.1878954
2208.91810311
2227.17173767
1314.57278224
709.156495519
455.630293614
357.824477419
320.560105674
306.219513884
300.366389103
297.73433554
296.438855952
295.920383624
295.857693704
296.753110001
302.495217496
855.298559763
1008.12974042
1181.9273335
1409.34663279
1744.43945836
2152.83516909
2339.45308127
1415.62090184
737.26638896
467.709900583
367.364019482
329.127733563
313.494823754
306.124039629
302.034742324
299.600551147
298.392332914
298.013714457
299.132194487
306.227234242
845.693040807
972.521750432
1132.88439295
1362.20230535
1712.26290289
2139.71571714
2324.38178877
1347.15491271
716.667437168
472.873928791
379.464648005
342.924311872
326.181316161
316.622316045
310.151559189
305.606476497
302.883703771
301.622296855
302.754689693
311.317623962
849.812627175
966.861395206
1132.27449713
1386.14550252
1771.48939473
2178.02890948
2084.39611192
1145.43374257
667.492385647
476.679969605
400.219246647
366.832961307
348.745465302
335.939200984
325.531619038
317.025470792
311.096887831
307.640228119
308.066888389
317.942023236
878.190452058
1000.49543208
1188.88282024
1488.22978657
1896.45923164
2199.69731448
1699.40396882
957.915955849
634.372475431
497.515521031
439.241242945
409.221527055
389.110238034
371.245797904
354.317165644
338.556511783
326.185855245
317.827637888
315.815800371
326.306762636
940.323279591
1079.90271546
1304.40117995
1647.53735063
2031.16578151
2135.19626708
1375.84774961
855.882172264
641.293500278
549.892809765
508.444518314
482.470778838
460.048581455
434.674802724
407.251228699
378.805300706
354.105815772
335.611582623
327.41353369
336.619554781
1040.55973937
1202.36654978
1459.0035586
1819.42246177
2145.21542706
1963.86293487
1225.68087085
853.885410273
705.90788364
647.940247314
623.641739802
604.940216382
580.934884041
545.315715559
501.744628455
452.28306567
405.094429538
367.020396661
345.534494186
349.454578446
1175.07916494
1354.15774487
1624.54977224
1966.41817218
2232.84184132
1857.34912691
1228.82352773
936.61831572
832.822473926
805.483135646
804.226381781
798.454947063
776.526487923
729.182708151
663.725586531
582.44807279
496.885228671
422.824565981
375.004614317
365.805118385
1329.50752815
1511.59333711
1770.59925957
2072.13597999
2288.90198503
1881.04382493
1355.34782827
1104.06606307
1033.65156305
1041.06410171
1070.95248223
1083.85900563
1066.68564742
1007.57206776
915.852308257
793.681919502
653.8303236
519.577680748
422.290675856
387.189920475
1482.21989651
1651.03292471
1880.01381371
2135.09935057
2317.31203595
2002.96522752
1570.1173179
1358.61128987
1324.46964584
1371.71806433
1432.40941864
1458.19195452
1436.43213774
1359.97457299
1239.4281507
1078.76743422
883.156139723
671.454387486
496.769601583
414.948835696
1610.96441238
1755.24660959
1946.18711623
2156.42917382
2315.09063863
2178.31016705
1865.35454652
1708.15291443
1707.45158786
1776.50863818
1838.85236325
1847.34561505
1793.4589834
1682.54148415
1531.30809087
1344.49281378
1120.30178901
852.409452727
591.156636312
445.502403281
1699.19971034
1816.00074983
1969.59378602
2138.91984981
2274.58767026
2259.0938812
2145.10858239
2081.13947325
2108.38090491
2164.4040472
2166.05844862
2085.64063937
1946.9267314
317.393877407
319.280896988
308.626947882
312.778448797
303.972822008
307.838680913
301.556048603
305.860908834
300.487905021
305.113340262
300.157968963
305.029667739
300.280612984
305.425451683
300.737898576
306.221634276
301.507932917
307.438019878
302.620555928
309.142870972
304.147790041
311.447724364
306.196586983
314.499852535
308.916502286
318.478150885
312.465997856
323.569568019
317.044869162
329.973202094
322.800607409
337.856817207
329.975170791
347.404478762
338.660251224
358.714107372
349.056158999
371.867691797
361.145308944
386.794812284
374.699210583
403.147260854
389.035723731
420.337535021
403.213320634
437.357682929
417.532240344
453.783036677
432.013512143
469.396598774
447.916626504
484.808590376
465.188990595
500.232749911
483.860418588
515.632926792
)
;

boundaryField
{
    inletfuel
    {
        type            fixedValue;
        value           uniform 294;
    }
    inletair
    {
        type            fixedValue;
        value           uniform 294;
    }
    outlet
    {
        type            zeroGradient;
    }
    axis
    {
        type            empty;
    }
    leftside
    {
        type            fixedValue;
        value           uniform 294;
    }
    burnerwall
    {
        type            zeroGradient;
    }
    front
    {
        type            wedge;
    }
    back
    {
        type            wedge;
    }
    procBoundary0to1
    {
        type            processor;
        value           nonuniform List<scalar> 
27
(
1654.68227316
1661.14289348
1675.32786596
1695.09100542
1785.86761714
1625.8460504
1465.90512971
1272.83901729
999.439115916
673.165994424
472.031297846
1740.20876249
1829.96196061
1947.80865548
2078.10186685
2189.70217155
2234.30449997
2241.60476668
2271.88535182
2331.17614125
2349.11928722
2227.33473232
2030.56360292
1785.86761714
1820.24755457
499.946224553
528.933899723
)
;
    }
}


// ************************************************************************* //
