/*--------------------------------*- C++ -*----------------------------------*\
  =========                 |
  \\      /  F ield         | OpenFOAM: The Open Source CFD Toolbox
   \\    /   O peration     | Website:  https://openfoam.org
    \\  /    A nd           | Version:  7
     \\/     M anipulation  |
\*---------------------------------------------------------------------------*/
FoamFile
{
    version     2.0;
    format      ascii;
    class       volVectorField;
    location    "0.05";
    object      U;
}
// * * * * * * * * * * * * * * * * * * * * * * * * * * * * * * * * * * * * * //

dimensions      [0 1 -1 0 0 0 0];

internalField   nonuniform List<vector> 
814
(
(0.907552385819 3.37088437672e-15 61.2892747668)
(-3.11896252661 3.74050037317e-16 60.711931937)
(4.28787988557 1.91768412074e-16 57.4425274148)
(0.844749032496 3.90192778956e-15 63.9245510635)
(-1.57213413543 7.97179573855e-16 62.7925528935)
(2.08444810878 2.54863724499e-16 57.7105066921)
(0.592367638252 -3.74768600533e-15 64.5431536805)
(-1.10283752631 -8.7009395702e-15 63.0459399881)
(1.31539266258 -1.01009809119e-14 56.3368257014)
(0.178573447697 -7.48197480521e-13 62.7303110708)
(-1.30187173496 -1.03773060858e-12 60.8353987529)
(2.04243429665 -3.04092524785e-12 50.634707588)
(0.0448524504984 -9.91479921876e-11 62.8744953841)
(-0.479635940466 -8.86829225124e-11 60.5776339916)
(0.560962235016 -1.18698399199e-11 49.3647703875)
(0.111770552886 -2.10158548249e-10 64.6667898102)
(-0.120811900532 -9.27575696389e-11 61.9400768493)
(0.766801604445 2.99575120064e-11 50.2528259998)
(0.00486706531526 -1.09754049077e-10 64.4858159845)
(-0.265841272279 -7.35505568157e-11 61.1735143504)
(0.301761112249 6.21102421769e-11 49.1440559848)
(0.0224938252744 -6.05072358382e-11 63.9391559953)
(-0.21067245805 -4.80267192398e-11 60.0401634421)
(0.175375594878 7.66456860748e-11 48.1694550856)
(0.0284669958234 -3.17090889023e-11 63.4981401269)
(-0.12354056003 -2.74309359596e-11 59.1323784255)
(0.141197925661 5.08692504922e-11 47.788051837)
(0.00275590803427 9.110384741e-11 62.8355432967)
(-0.0377130270611 -7.35289502381e-13 58.1929834255)
(0.129933987329 3.61623156497e-11 47.6900604427)
(0.00420905113842 3.26624158651e-11 61.8996503527)
(0.0244214894313 1.73667123218e-11 57.2279760115)
(0.105217193581 6.07281682565e-11 47.7413648554)
(0.0286170721907 3.17503427037e-11 60.6946414921)
(0.0739282213819 8.98460748933e-11 56.2324828281)
(0.101112335191 8.39287750223e-11 47.8269259431)
(0.057572746642 2.65992146789e-11 59.2152794156)
(0.116486376926 6.87390795383e-11 55.1378199023)
(0.10867461595 7.06748422803e-11 47.7892373896)
(0.0830143158433 -2.53892673131e-12 57.542446604)
(0.178895290307 -3.9709555885e-11 53.9576741053)
(0.186801655554 3.9435047977e-11 47.6138757735)
(0.0965094008147 1.07781786577e-10 55.7730319917)
(0.227649148942 -6.24211746593e-12 52.7198266139)
(0.264834349941 -3.67338628845e-11 47.3001789405)
(0.101984642674 3.26861614659e-11 53.9427013349)
(0.244696947832 3.15875919408e-12 51.404837906)
(0.299482729118 -9.52905975627e-12 46.8208396617)
(0.104927658649 9.28114602513e-12 52.1265650083)
(0.254440967708 4.41396901224e-12 50.0594625579)
(0.326528543626 1.8705599881e-12 46.2342910309)
(0.121259354728 4.00494608901e-12 50.4387972232)
(0.285863758289 6.93176663817e-12 48.7816171863)
(0.377465394493 1.36826529027e-11 45.6337172526)
(0.108001299965 3.73855712775e-12 48.886801554)
(0.268440386879 1.02235497558e-11 47.5728401319)
(0.369016565001 2.02369301104e-11 45.0033922723)
(0.0918266274051 4.56449830911e-12 47.4597937903)
(0.229585284922 1.32410696331e-11 46.4216259583)
(0.314803413224 2.44451168485e-11 44.3313515591)
(0.0767381290752 5.48662740449e-12 46.1543477448)
(0.188592655494 1.57887881734e-11 45.3358698363)
(0.255120715865 2.71251660134e-11 43.6372142593)
(0.0724809533324 3.02947637849e-11 44.9823676068)
(0.182488205913 9.99251095708e-11 44.3351970765)
(0.253938340852 4.60653459799e-11 42.9487330061)
(0.0606203263558 1.67909250334e-11 43.8086974439)
(0.151615738999 4.42552229601e-11 43.2979025818)
(0.214259248825 3.69399014255e-11 42.1546962085)
(0.0592395461633 -4.56628059827e-11 42.6140986707)
(0.145342265853 1.88366400326e-11 42.210175936)
(0.209546640352 6.66424468511e-11 41.2627179656)
(0.0513841252288 -4.28205008335e-13 41.4932548779)
(0.132802198831 1.44292436106e-11 41.1848897919)
(0.195245692927 2.89281939313e-11 40.4051310574)
(0.0432713654277 4.53716474805e-11 40.5072360647)
(0.107150825719 -5.57087755969e-11 40.278352084)
(0.156645560416 -6.2741309205e-11 39.6502526546)
(0.043497788479 -1.02470670258e-11 39.6079054559)
(0.111122622816 -3.82985994897e-11 39.4563316183)
(0.164251518019 -5.13207912603e-11 38.9714657576)
(0.0442123500461 -1.93255201247e-11 38.6666931471)
(0.115503194954 -5.71503023307e-11 38.5728344028)
(0.176269105339 -1.04268870732e-10 38.2091949985)
(0.0568128092587 -1.47298596891e-11 37.4488563931)
(0.145612921519 -4.01199477092e-11 37.4055921155)
(0.224262993552 -5.23020948073e-11 37.1411733318)
(0.0624320610244 -3.13068997768e-11 35.9249090654)
(0.163098597887 -9.4958842707e-11 35.9087124269)
(0.255560344776 -4.29327684331e-11 35.7147470902)
(0.0739428729198 -1.20435249424e-11 34.0098573586)
(0.191070822298 -2.99073572374e-11 34.0163589441)
(0.302351512189 -1.30634996614e-11 33.8733586661)
(0.0787942803597 2.43633328277e-12 31.9719772109)
(0.20276239725 9.53165686529e-12 31.9828647704)
(0.317308282864 3.18286076863e-11 31.8689859047)
(-1.37743691581 -3.21482665938e-11 10.4571854342)
(-0.223228742394 -2.60525883223e-11 15.5942830722)
(0.444402608368 -1.89496453322e-11 26.4736542166)
(-0.145801034881 -1.40482905834e-11 29.622287805)
(-0.166623387591 -6.49467778172e-12 31.9107487296)
(-0.10592920559 -3.0996093197e-12 34.2502659783)
(-0.0775325135357 -9.17223960128e-13 36.2272928405)
(-0.0648359375033 8.42975505963e-12 37.8964817787)
(-0.0212565440201 2.26799365439e-11 39.3156823829)
(0.024776018774 2.97161342426e-11 40.3879269745)
(0.11996918127 2.81191363143e-11 41.1818014163)
(0.230789718806 2.16631853423e-11 41.6917743994)
(0.288719487649 2.50903745496e-11 41.9639841555)
(0.337540583151 2.07803317366e-11 42.0886671409)
(0.405955687582 3.71429726998e-11 42.1476591675)
(0.397772203817 3.59069238212e-11 42.0905631653)
(0.336875563983 3.78301539941e-11 41.9018010385)
(0.272762558989 3.9610807465e-11 41.6117423816)
(0.282978948306 3.54957025364e-11 41.247258248)
(0.250411745232 3.20825163025e-11 40.7078522216)
(0.253840231442 4.02496662131e-11 40.0258238496)
(0.238718353201 2.25593543721e-11 39.3564071956)
(0.194446616032 -3.74125629688e-11 38.7806015391)
(0.202079656682 -5.18551074335e-11 38.2790570222)
(0.223600384338 -6.53279382617e-11 37.6688480171)
(0.290558590946 -2.36843343571e-11 36.7293925423)
(0.341561463143 -7.42000183089e-12 35.3946021064)
(0.405162386022 1.13700614267e-11 33.6218585917)
(0.424468686964 6.80734563311e-11 31.6603212943)
(-0.0455492431196 -5.37347277053e-12 2.25704429576)
(-0.0886238735834 -3.75254255637e-11 2.34994452366)
(-0.164529383262 -5.68717222393e-12 2.27613385688)
(-0.230022670873 -1.39611039547e-12 2.32070364306)
(-0.302077847967 -3.72250418514e-13 2.25925196214)
(-0.351944932941 -1.02201738776e-13 2.26090259883)
(-0.405138820218 -5.7263146471e-14 2.22228734269)
(-0.428850488284 -1.34813047524e-13 2.20790234059)
(-0.448044660569 -3.51967900648e-13 2.1823718161)
(-0.447064233849 -1.22929515354e-13 2.16696714207)
(-0.436328135327 -1.04163778862e-13 2.1512469729)
(-0.412092485239 -2.82841451722e-13 2.13957605471)
(-0.380524907221 -2.45083815022e-13 2.1299376075)
(-0.33747539377 -4.44057167251e-14 2.12204538025)
(-0.293775535136 -5.89701168246e-15 2.11712603887)
(-0.232744824228 -6.1344673486e-16 2.11103446139)
(-0.189613887953 -2.19829008138e-18 2.11088958862)
(-0.113188537358 9.2093673185e-15 2.10629089249)
(-0.0763662015868 1.45904097663e-13 2.11257379361)
(-0.0241500746596 2.91134051546e-15 2.1086419096)
(0.207821347105 -8.13511637813e-12 2.57833251859)
(-0.151755105556 -6.65512507033e-11 2.62111980293)
(-0.229737583877 -1.29487296989e-11 2.67690327301)
(-0.299183546589 -4.04182071594e-12 2.72986104844)
(-0.424175991603 -1.31977002695e-12 2.67165041298)
(-0.44709632997 -4.45936230177e-13 2.6817869683)
(-0.530009690178 -5.13740730772e-13 2.59587827563)
(-0.542949572555 -2.2940011129e-12 2.55776996804)
(-0.568869699254 -1.06827143902e-11 2.48684984145)
(-0.557580795988 -1.36710117412e-12 2.44381952046)
(-0.541726236284 -1.3102832392e-12 2.39940508601)
(-0.506841566169 -6.72332036596e-12 2.36672188204)
(-0.465703272797 -5.60862018033e-12 2.33951048935)
(-0.409443863262 -4.33004363996e-13 2.31763426123)
(-0.355988841271 -4.45051873518e-14 2.3033921528)
(-0.277149256864 -5.04041217729e-15 2.28724905193)
(-0.227676998622 -1.02177995224e-14 2.28579109854)
(-0.126939243037 1.16272480878e-13 2.27384670654)
(-0.0894703261931 3.86592445611e-12 2.29818844616)
(-0.0512541571184 4.37631423661e-14 2.28153472783)
(0.0228172961145 -1.60313955708e-11 2.71514163191)
(-0.0647040589491 -6.30065194199e-11 3.58704202449)
(-0.053357838026 -1.70058979629e-11 3.04733427416)
(-0.248740653591 -6.02534745896e-12 3.25549750391)
(-0.408510199075 -2.16371195218e-12 2.99746757894)
(-0.47098717749 -7.99730770402e-13 3.00993640039)
(-0.585983858889 -8.42444866381e-13 2.85918885676)
(-0.587323506888 -2.95015380118e-12 2.80040454175)
(-0.61581084221 -9.34776737051e-12 2.69141851922)
(-0.589137992954 -2.18365221333e-12 2.62711319394)
(-0.568111255432 -1.87932371086e-12 2.55978854816)
(-0.524780206719 -6.53763971395e-12 2.51155883302)
(-0.47903255234 -5.55121519483e-12 2.47098418732)
(-0.416925917007 -7.41473403448e-13 2.43874268676)
(-0.361839189823 -8.60842734586e-14 2.41723278394)
(-0.276556058848 -2.29524764573e-14 2.39393820809)
(-0.228917753095 -2.12066027844e-13 2.39075377437)
(-0.116089327361 1.60672874088e-13 2.37359800723)
(-0.0869325994687 4.02469626111e-12 2.42095872095)
(-0.0613122525657 7.08924433625e-14 2.38269194024)
(-0.964830196996 -3.53816402118e-11 3.18839883493)
(-0.00960525894173 -5.83010252338e-11 3.67044228453)
(-0.574716698582 -1.95334086912e-11 3.3239930724)
(-0.318040758831 -7.7008560955e-12 3.55724239388)
(-0.627399743309 -3.23393501619e-12 3.27770036724)
(-0.523333175159 -1.42472942837e-12 3.26687319255)
(-0.662440916266 -1.55573134739e-12 3.06319400499)
(-0.621089673832 -3.51893027702e-12 2.99427396084)
(-0.64902841248 -8.05111607214e-12 2.85559608414)
(-0.600150309308 -2.92663403767e-12 2.77361512646)
(-0.573171818424 -2.42336169037e-12 2.68729630396)
(-0.520306294469 -6.55604354539e-12 2.62726137019)
(-0.471222893134 -5.50633633372e-12 2.57628190612)
(-0.404894311289 -1.07618599366e-12 2.53626493861)
(-0.350658152455 -1.291109831e-13 2.5089549422)
(-0.261446181685 -1.249780197e-13 2.48050570419)
(-0.218676052234 -2.70848220203e-12 2.47475082314)
(-0.0919660636068 1.7428903546e-13 2.45430650285)
(-0.0771427784117 5.68137190657e-12 2.50974529083)
(0.166790617177 3.50689063979e-14 2.4632124607)
(1.73676759158 7.56981052407e-12 6.91247296971)
(1.36014304255 -6.7914695163e-11 4.91051728393)
(0.429579168641 -2.8164851829e-11 4.6393103834)
(-0.101964667465 -1.07310361823e-11 4.06175051556)
(-0.618632420124 -4.69120067156e-12 3.75439951983)
(-0.612105537149 -3.609209396e-12 3.55700493044)
(-0.746824055202 -1.052004906e-11 3.30085804229)
(-0.656675399518 -1.01965938374e-11 3.1661955984)
(-0.688927998298 -7.47475874782e-12 3.00156470578)
(-0.616324654864 -3.69399401167e-12 2.90577150733)
(-0.582189300191 -3.73889029669e-12 2.80528173946)
(-0.518198965681 -1.18456962404e-11 2.73613219781)
(-0.465411652231 -6.00970778585e-12 2.67701360778)
(-0.394507415535 -1.4175102997e-12 2.630945974)
(-0.34071256158 5.21763721428e-14 2.59860414041)
(-0.247669491009 -1.80655954718e-13 2.56617964602)
(-0.209039983772 -2.65502286016e-12 2.55605336236)
(-0.0703229810958 1.58175510715e-13 2.53335462434)
(-0.0607246540166 5.72645904082e-12 2.56691970661)
(0.266016299557 -2.86127339781e-12 2.52867548007)
(0.59251103857 -6.15316629309e-11 14.1488057126)
(0.43137734435 -1.01289047131e-10 9.35193502731)
(-0.063102447855 -3.42763275912e-11 6.80481820512)
(-0.714032730844 -1.23375129079e-11 5.05118495781)
(-0.918554381857 -6.24013578067e-12 4.44373073274)
(-0.874035081264 -6.11270173808e-12 3.92299407181)
(-0.911085484784 -1.25347630734e-11 3.59159450175)
(-0.760712836882 -1.6393089772e-11 3.33282725877)
(-0.751806931227 -7.86812100618e-12 3.14716636961)
(-0.65097287998 -4.92570712605e-12 3.03508586284)
(-0.608282843647 -7.99567636805e-12 2.92488736098)
(-0.530748089081 -1.18116571597e-11 2.84754715959)
(-0.472430269136 -1.09324847998e-11 2.78145224826)
(-0.395299540414 -1.7581747787e-12 2.72999590264)
(-0.339983250468 3.35426761038e-12 2.69268910261)
(-0.242145092631 -1.16977919739e-13 2.65670494756)
(-0.205435437744 -2.51404180047e-12 2.64074780875)
(-0.0580440035268 1.56575375014e-13 2.61560149987)
(-0.0508638253832 7.21675593729e-12 2.6205171888)
(0.277471616334 -2.81585462475e-12 2.56449794406)
(-0.868138921182 -7.42315309422e-11 15.9904155806)
(-0.243975099775 -1.49567721297e-10 11.2831838971)
(-0.633532573517 -3.77973794286e-11 7.85500900493)
(-1.22904839493 -1.31998438945e-11 5.89265976774)
(-1.20455351483 -8.21550099848e-12 5.07535000828)
(-1.17513207598 -1.02265059188e-11 4.25560709141)
(-1.0712008733 -2.04679998578e-11 3.83634954529)
(-0.891990677342 -1.61491314195e-11 3.4770720967)
(-0.825902580357 -8.75988716188e-12 3.28865873042)
(-0.703718118751 -6.09647760679e-12 3.15441046436)
(-0.648274190355 -8.73347957059e-12 3.04258099799)
(-0.556133282782 -1.14909128154e-11 2.95831750195)
(-0.490170150979 -1.08681542559e-11 2.88678936886)
(-0.405331330293 -2.2373552286e-12 2.830757529)
(-0.346656064326 3.08703628281e-12 2.78876556723)
(-0.243491039834 -9.23816999796e-15 2.74973121675)
(-0.206899923273 -2.31853753964e-12 2.72727956682)
(-0.0539243132479 1.59567623196e-13 2.69988325754)
(-0.0492316733452 7.08005002694e-12 2.67949759272)
(0.257588376819 -2.57667040934e-12 2.60647514957)
(-0.905264931539 -7.4403990142e-11 18.0247910593)
(-0.665418140703 -9.48129853812e-11 13.0675430226)
(-1.16430487806 -3.65015086668e-11 9.082758533)
(-1.51202393337 -1.32415124342e-11 6.95428666037)
(-1.46824718813 -9.77764863378e-12 5.65787296935)
(-1.39564835166 -1.24779268532e-11 4.57899732811)
(-1.1916960738 -1.94040741209e-11 4.0277131549)
(-1.01276180528 -1.53068401362e-11 3.60930106017)
(-0.896869021155 -9.78443453745e-12 3.42143332468)
(-0.765037921681 -8.28657900618e-12 3.26610655235)
(-0.69177629754 -1.55047184233e-11 3.15728006115)
(-0.58790047525 -1.1505763989e-11 3.06757353514)
(-0.51297687016 -1.05136853167e-11 2.99217359789)
(-0.419830610584 -2.75378845094e-12 2.93255517089)
(-0.356702010022 2.56516323339e-12 2.88640123076)
(-0.248516638235 7.92110744178e-14 2.84496031184)
(-0.210986346913 -2.1216172055e-12 2.81598599039)
(-0.0558065660299 1.67082628995e-13 2.78710687232)
(-0.0532641466378 6.79782993544e-12 2.74553880653)
(0.222685893455 -2.24264155578e-12 2.66513846494)
(-0.845284492287 -6.88361229146e-11 20.3406342439)
(-0.907067435717 -7.28014486287e-11 14.6326672561)
(-1.43432787185 1.18972907297e-11 10.6905515228)
(-1.6869894247 -1.05658037219e-11 8.09603703977)
(-1.63526981994 -9.25308733995e-12 6.21999921028)
(-1.50956275181 -9.86122332709e-12 4.88744130408)
(-1.27848757492 -8.44492334146e-12 4.1976702742)
(-1.10927092312 -1.37732474677e-11 3.75665359504)
(-0.962664445192 -1.17003201523e-11 3.55197056049)
(-0.827644754408 -1.7838840538e-11 3.37993192622)
(-0.73416585297 -2.17612402734e-11 3.26872088451)
(-0.622112520213 -1.22184368919e-11 3.1749708856)
(-0.537721398925 -1.02319784554e-11 3.0973411142)
(-0.436336371531 -3.5024217204e-12 3.03531239852)
(-0.36818388365 1.67084903798e-12 2.98574807849)
(-0.255737296521 9.2247850152e-14 2.94264909685)
(-0.216530085254 -1.94565429777e-12 2.90765081624)
(-0.0620636330892 1.78370508695e-13 2.87826471381)
(-0.0605862146094 6.48378648798e-12 2.82008418537)
(0.188306597125 -1.92624043668e-12 2.74064017408)
(-0.789386686329 -4.89320736393e-11 22.5540398189)
(-1.0753006133 2.58905675273e-11 16.2785375647)
(-1.49745916778 1.94420634147e-11 12.4547434846)
(-1.76193080799 -6.1084656613e-12 9.30796796067)
(-1.71314810593 -7.92489915497e-12 6.83165492997)
(-1.56942559643 -1.01037748476e-11 5.22266277197)
(-1.35987286461 -1.4960659489e-11 4.40792098095)
(-1.19464891763 -1.27423498079e-11 3.93700292774)
(-1.03141959672 -1.25172985299e-11 3.69044746047)
(-0.890943188745 -1.81957245248e-11 3.50049968121)
(-0.776944433019 -2.10244556221e-11 3.37770693497)
(-0.657235329656 -1.31489016062e-11 3.28083510278)
(-0.563602972207 -1.07153940268e-11 3.20209118119)
(-0.454574771686 -8.03091099963e-12 3.13895540607)
(-0.381081672491 -2.6642849874e-12 3.08695784851)
(-0.265188998452 -1.17451545447e-13 3.04299410734)
(-0.223540526417 -1.79730163644e-12 3.00289887951)
(-0.0719481125658 1.94840780453e-13 2.97391566738)
(-0.0696871831436 6.1845066032e-12 2.90331989645)
(0.152825556501 -1.6683454788e-12 2.83047899418)
(-0.733679341253 -3.22854461342e-11 24.7200602233)
(-1.22144795624 2.21113845356e-11 18.0634736805)
(-1.46774236627 -2.28835216539e-11 14.3178974113)
(-1.76267909167 -1.89942906761e-12 10.657756142)
(-1.75941553689 -5.90038553372e-12 7.56618039759)
(-1.6354898431 -1.00572830244e-11 5.65124141791)
(-1.45596444965 -1.40424264629e-11 4.68339454712)
(-1.28710588945 -1.0259297798e-11 4.14892768509)
(-1.10908714708 -3.4301063206e-12 3.83863052963)
(-0.956448762413 -1.63730549434e-11 3.62621989902)
(-0.822193459765 -1.92230554261e-11 3.48625623181)
(-0.693240635818 -1.39919281551e-11 3.38540960435)
(-0.590934902079 -1.52595338396e-11 3.30643727962)
(-0.474719354848 -9.00710004539e-12 3.24345839469)
(-0.395722927977 -6.663869115e-12 3.19023178198)
(-0.277086292892 -4.17360075777e-13 3.14618700627)
(-0.232177310657 -1.68298405953e-12 3.10220007649)
(-0.0847892964004 2.10254051433e-13 3.0743038705)
(-0.0795507271996 5.73265530428e-12 2.99553042349)
(0.117555606901 -1.46710203241e-12 2.93123781075)
(-0.613775867306 -2.68632155092e-11 26.7945241777)
(-1.15581387969 -4.70979233842e-11 19.8578804061)
(-1.39152153959 -1.31489395402e-11 16.0740168146)
(-1.79152238753 3.90575159834e-12 12.1315439441)
(-1.80763823616 -3.54813764084e-12 8.46279497477)
(-1.71392419877 -1.21634048754e-11 6.18846546596)
(-1.56722570058 -2.16982728067e-11 5.01969812489)
(-1.38250196514 -9.93251441251e-12 4.38175568171)
(-1.19196241199 -4.7275942466e-12 3.99621314217)
(-1.0208845487 -1.40820042394e-11 3.75422406156)
(-0.869588378078 -1.65877189512e-11 3.59529976748)
(-0.729672249326 -9.63025106414e-12 3.48773273542)
(-0.619009395398 -1.47080585255e-11 3.41059196114)
(-0.496362987562 -9.43280969204e-12 3.34880052361)
(-0.411917248043 -6.92145157648e-12 3.29579461817)
(-0.29122076008 1.72013867359e-12 3.2524040597)
(-0.242316325708 -1.75603203336e-12 3.20583874118)
(-0.0996692902828 1.46851470046e-13 3.17940955306)
(-0.0895712688128 1.98419207109e-12 3.09635001707)
(0.0859568734693 -1.46294944253e-12 3.03997091514)
(-0.490708730527 -1.77737059481e-11 28.6530899334)
(-1.07051476347 -2.74921750539e-11 21.54959208)
(-1.32987334003 4.78900056614e-11 17.6258823972)
(-1.72983219562 1.46671764797e-11 13.6804474971)
(-1.83670340435 6.06630718175e-13 9.57595674249)
(-1.78633865605 -1.1629332745e-11 6.8468862715)
(-1.66068807981 -2.04546382861e-11 5.4163175666)
(-1.4712161981 -1.32415184382e-11 4.63030667325)
(-1.27017237622 -1.6423631808e-11 4.1635186421)
(-1.08246085014 -1.36844730554e-11 3.88339999236)
(-0.917208962365 -1.59468145059e-11 3.704814585)
(-0.765060493752 -1.51687325022e-11 3.58885657954)
(-0.645937377377 -1.4101940668e-11 3.514903541)
(-0.518556627018 -9.63351248629e-12 3.45509803122)
(-0.428942450228 -7.03234511156e-12 3.40388555769)
(-0.306980198369 1.34875856305e-12 3.36182823896)
(-0.253572476313 -5.94691550154e-12 3.31394621627)
(-0.115639552335 -6.81022357962e-14 3.28902717698)
(-0.0992925533954 1.37933395516e-12 3.20432749522)
(0.0595520312252 -4.58486452953e-12 3.15505372348)
(-0.339503512948 -3.1338255447e-12 30.38903257)
(-0.955055201234 1.37995332011e-11 23.2613702312)
(-1.27629336317 1.54322584299e-10 19.2153807503)
(-1.59185172271 3.35841297573e-11 15.3487060214)
(-1.83846088786 6.65062976147e-12 10.950747913)
(-1.8426778562 -1.19458311129e-11 7.66390277909)
(-1.73185334788 -2.76396859551e-11 5.88428391754)
(-1.54664714058 -1.56197657574e-11 4.90487546003)
(-1.33676993491 -1.82935954249e-11 4.34683392611)
(-1.13693253146 -1.55492128995e-11 4.01617593764)
(-0.960421219302 -2.17990910591e-11 3.81765718171)
(-0.796808278727 -1.62440671879e-11 3.69086170087)
(-0.670238980737 -1.40862070515e-11 3.61908713738)
(-0.539981444752 -1.03656462162e-11 3.56284357701)
(-0.445789554249 -1.26322492976e-11 3.51486391823)
(-0.323590655963 5.22298962315e-12 3.47476566591)
(-0.2655216119 -5.72425455745e-12 3.42660856794)
(-0.132062728746 -2.99194215328e-13 3.40292874534)
(-0.108363519404 1.22345440684e-12 3.31806467342)
(0.0382527560387 -4.78232943208e-12 3.27530386939)
(-0.14845197351 7.88510168871e-11 32.0168343223)
(-0.756631704294 6.28810664834e-11 24.9770645247)
(-1.07754471594 2.04737095033e-10 20.8247992467)
(-1.37406045347 8.91539144278e-11 17.0150547529)
(-1.8211979753 1.72318971076e-11 12.5140821494)
(-1.8706719507 -8.25666159777e-12 8.67245973788)
(-1.77319792061 -2.03911694263e-11 6.42850458428)
(-1.60934131911 -4.41408871629e-12 5.21805440973)
(-1.39198389545 -2.68916612815e-11 4.54631580559)
(-1.18385920366 -1.71750822037e-11 4.15507762282)
(-0.995789466945 -2.16651729124e-11 3.9309823158)
(-0.824798199857 -1.7544925553e-11 3.7939763101)
(-0.690059525544 -1.84496801267e-11 3.72331915089)
(-0.558402049679 -1.13788522305e-11 3.67271886017)
(-0.461296118774 -1.53215450083e-11 3.62913752377)
(-0.340166149934 3.81969971889e-12 3.59153020359)
(-0.277722542825 -4.99235659614e-12 3.54379885187)
(-0.148393361476 -4.76269565633e-13 3.5207849697)
(-0.116529808963 1.21393443027e-12 3.43644373345)
(0.0215605825423 -1.50515914471e-12 3.39907062311)
(-0.00410307773458 8.56667278861e-11 33.4562400929)
(-0.56259913911 1.03912485536e-10 26.6521795731)
(-0.884483974243 2.11377834018e-10 22.4156564417)
(-1.23907244059 1.43820636919e-10 18.6152339035)
(-1.65260764538 3.08628447915e-11 14.2473777253)
(-1.83191848686 -9.8119348716e-12 9.94403537046)
(-1.79521978813 -3.7108214811e-11 7.10713301935)
(-1.6451543407 -8.1919150081e-12 5.59890451219)
(-1.43262316276 -2.49563443155e-11 4.77110045135)
(-1.21737830452 -2.04736402255e-11 4.30537135962)
(-1.0187195396 -3.29060001491e-11 4.04911232383)
(-0.842210435174 -1.92321694575e-11 3.9003962934)
(-0.702365798845 -1.82203110558e-11 3.83103201818)
(-0.571345644411 -8.92030203434e-12 3.78569060372)
(-0.474091263198 -1.40554095936e-11 3.74776624696)
(-0.35574938566 1.94616658699e-12 3.71297021371)
(-0.289775760172 -4.27506297876e-12 3.66585511188)
(-0.16428668229 -6.09473188594e-13 3.64256521727)
(-0.123883051031 1.14841990287e-12 3.55884983952)
(0.00838107376645 -8.69632973572e-13 3.52556625219)
(0.118880749592 3.27203544202e-11 34.7612241536)
(-0.366696124308 1.3371907736e-10 28.3386844835)
(-0.666913360747 2.5743427251e-10 24.0614560049)
(-1.03454670914 1.91364344827e-10 20.2547461652)
(-1.36593550772 4.78205220501e-11 16.094221675)
(-1.77235128228 -7.80791478511e-12 11.5034185816)
(-1.78696389881 -3.49929849008e-11 8.03406269815)
(-1.65698183884 -1.27633596135e-11 6.07357049724)
(-1.45964039872 -2.28038725136e-11 5.03172573801)
(-1.23168801595 -2.161476218e-11 4.46604903979)
(-1.02541871814 -3.09642678517e-11 4.16686678232)
(-0.848791319824 -2.06943391574e-11 4.00950644951)
(-0.704681477389 -1.77047928251e-11 3.94131241611)
(-0.577196851314 -9.62323579967e-12 3.90161659696)
(-0.482311964491 -1.24440545736e-11 3.87091048761)
(-0.36941057818 3.22963969123e-13 3.83922398118)
(-0.301391558412 -3.78735756839e-12 3.79238319605)
(-0.179515683998 -7.21218994472e-13 3.76752119033)
(-0.130512256409 1.03203477906e-12 3.68380661135)
(-0.00105629891858 -8.21672217188e-13 3.65272742407)
(0.249039864985 1.08890286629e-10 35.9167115691)
(-0.203509318741 1.08109110542e-10 29.9097292216)
(-0.524466524292 2.13974173384e-10 25.5888445023)
(-0.811665284852 1.92706657637e-10 21.7367138863)
(-1.05686411032 6.31827107172e-11 17.730120677)
(-1.54215096259 -3.23267227671e-12 13.2358458213)
(-1.69683333507 -3.24469627718e-11 9.23231222767)
(-1.624703366 -1.92455825715e-11 6.66183806833)
(-1.44559824852 -3.32249508607e-11 5.33598457447)
(-1.21690524204 -2.28769317561e-11 4.63722020396)
(-1.00562003801 -2.88965014238e-11 4.28929903958)
(-0.8306397517 -2.57571888596e-11 4.12607305712)
(-0.691933766284 -1.39256868112e-11 4.06011160269)
(-0.571508920493 -1.03050814164e-11 4.02671038762)
(-0.483485475738 -1.14495862662e-11 4.00110233046)
(-0.379967557046 -9.30601329775e-13 3.97259908724)
(-0.312335588381 -3.48906597163e-12 3.92518664287)
(-0.194225793227 -8.31277535696e-13 3.89664738546)
(-0.13715059052 7.91454827797e-13 3.81171033406)
(-0.00906795658926 -9.6660519499e-13 3.78013073175)
(0.261015672881 5.20479829789e-11 36.8025329036)
(-0.15372640613 1.62695333432e-10 31.1935734438)
(-0.467035911065 2.05963923159e-10 26.8527981458)
(-0.686530345256 1.83505702605e-10 22.9623987886)
(-0.871016954418 6.70392295702e-11 19.0791761362)
(-1.15681960613 -3.74814455261e-11 14.9723059801)
(-1.51266737475 -3.12682804648e-11 10.730264089)
(-1.50787606916 -2.24958806204e-11 7.46669976287)
(-1.3487773959 -3.23968974058e-11 5.7080969136)
(-1.14409186067 -2.39916496984e-11 4.82718417276)
(-0.939428485198 -2.70959563137e-11 4.41919773162)
(-0.784004908163 -2.55712420027e-11 4.24925072526)
(-0.659609798124 -1.45506539433e-11 4.18777687518)
(-0.555369149676 -1.13965076814e-11 4.16040327662)
(-0.478299350162 -1.65737147578e-11 4.13744157679)
(-0.386649879496 -2.33046717415e-12 4.10899925554)
(-0.322944103696 -3.34949102541e-12 4.06036729236)
(-0.209156721021 -1.06401202605e-12 4.0268100195)
(-0.144921850824 -2.90472525643e-12 3.93850674544)
(-0.0146296006073 -4.14775704901e-12 3.90536733054)
(0.226577649626 6.09444141759e-11 37.4108044058)
(-0.116900484354 1.2153932994e-10 32.1891755527)
(-0.369512251087 2.2167520785e-10 27.8371003814)
(-0.510384542059 1.69239626265e-10 23.8824119427)
(-0.561452927217 6.72675707136e-11 20.0735169311)
(-0.642522168277 -3.08679247493e-11 16.373653753)
(-1.2037537515 -2.9667224489e-11 12.2734130892)
(-1.27277862371 -2.37062560266e-11 8.39943188163)
(-1.15740830892 -2.99454341313e-11 6.11404708146)
(-0.995477591147 -2.43245466776e-11 5.03609048213)
(-0.819936666759 -2.59065060546e-11 4.56215233689)
(-0.696759245371 -2.45695288103e-11 4.39694531574)
(-0.604078014212 -1.15789626216e-11 4.34248716812)
(-0.525397809814 -1.1832546096e-11 4.32081824604)
(-0.466253578565 -1.62656141911e-11 4.29622610371)
(-0.389873713695 -3.77251711427e-12 4.26039684033)
(-0.331876834203 -3.20508038301e-12 4.20461645345)
(-0.224652328121 -1.2938992858e-12 4.16149129383)
(-0.154653985372 -3.45737491116e-12 4.06773683974)
(-0.0217142967476 -4.57968272366e-12 4.03596185044)
(0.198314092645 6.42267309306e-11 37.7855208593)
(-0.0564751631263 1.24327297106e-10 32.9334348609)
(-0.24292335794 2.1746726717e-10 28.5577964022)
(-0.336952969008 1.50461765409e-10 24.4797211837)
(-0.377842219037 6.30095471457e-11 20.6592983456)
(-0.466999901158 -2.01640860085e-11 17.2563200243)
(-0.843212263512 -2.78394246192e-11 13.6621439196)
(-0.87888562436 -2.31185968612e-11 9.37437318346)
(-0.805454788942 -1.27525811464e-11 6.54216370319)
(-0.711924746558 -2.27251442713e-11 5.26758325757)
(-0.621108256564 -2.53646801961e-11 4.74341607672)
(-0.563480420974 -2.89589332031e-11 4.57540858583)
(-0.525352845733 -1.30206244638e-11 4.5256577757)
(-0.485556317396 -1.21599458882e-11 4.50417561737)
(-0.454070642554 -1.55980830883e-11 4.47048214013)
(-0.397103137291 -9.68806958718e-12 4.42136913018)
(-0.346277677867 8.56690772103e-13 4.35229241226)
(-0.24474841583 -1.34444519435e-12 4.29429464251)
(-0.166452799553 -3.43347142309e-12 4.19273641042)
(-0.0281530207293 -4.50071316988e-12 4.16287274132)
(0.242694579728 2.1400435628e-11 37.9492686515)
(0.0769186307701 1.33609041651e-10 33.4377967492)
(-0.0414161555754 1.4474554564e-10 29.0600067313)
(-0.0923681972555 1.19804622952e-10 24.8653174162)
(-0.1254002836 5.40450965478e-11 21.0429523668)
(-0.13267130151 -1.37592046704e-11 17.9175733523)
(-0.387551483403 -6.00866233124e-11 14.8238356898)
(-0.488109812351 -2.8603600759e-11 10.0885600164)
(-0.412541550854 -2.73112575765e-11 6.9074521866)
(-0.38370133423 -2.32612268648e-11 5.53538010598)
(-0.395666459063 -3.18388264135e-11 5.00915206685)
(-0.412706452111 -2.42483976771e-11 4.84412433603)
(-0.434963323977 -1.43452157769e-11 4.7877423716)
(-0.441649922706 -1.25849136486e-11 4.75453463325)
(-0.442402179876 -1.53254680912e-11 4.69635945675)
(-0.40666999223 -1.53918930927e-11 4.62057654942)
(-0.364679828729 4.45213657032e-12 4.526660977)
(-0.270039201354 -1.22606989329e-12 4.44476113747)
(-0.182918766895 -3.20970903997e-12 4.32984148087)
(-0.0396951249043 -4.36517094182e-12 4.29657067702)
(0.266874407283 3.10832234298e-11 37.8279612186)
(0.206342156738 9.52135905118e-11 33.605756792)
(0.159942448828 1.03828168126e-10 29.2748242253)
(0.13155968057 8.72451383246e-11 25.0388294747)
(0.0841890543385 4.12623694932e-11 21.2057417673)
(0.153983158905 -1.01120802237e-11 18.1414507772)
(-0.0587832274888 -5.6774275836e-11 14.7862735046)
(0.00828347390936 -3.31544004578e-11 10.0312124388)
(0.086720055207 -3.11296068075e-11 7.06083487738)
(0.00217121130177 -2.52101162761e-11 5.83806902136)
(-0.127592779013 -2.56273999886e-11 5.31428255111)
(-0.252444782401 -2.32194346357e-11 5.1792067194)
(-0.351407163445 -1.507743351e-11 5.09410835768)
(-0.412755963991 -1.30734037787e-11 5.0323860192)
(-0.453866438732 -1.52556159018e-11 4.93797377557)
(-0.438668043836 -1.55528370614e-11 4.82467268408)
(-0.402618526278 3.2896641894e-12 4.69948977667)
(-0.310978358095 -1.04971326566e-12 4.58599256039)
(-0.211655025975 3.02541211395e-13 4.45803149829)
(-0.0580860954268 -4.18550536104e-12 4.42034706017)