/*--------------------------------*- C++ -*----------------------------------*\
  =========                 |
  \\      /  F ield         | OpenFOAM: The Open Source CFD Toolbox
   \\    /   O peration     | Website:  https://openfoam.org
    \\  /    A nd           | Version:  7
     \\/     M anipulation  |
\*---------------------------------------------------------------------------*/
FoamFile
{
    version     2.0;
    format      ascii;
    class       volScalarField;
    location    "0.1";
    object      alphat;
}
// * * * * * * * * * * * * * * * * * * * * * * * * * * * * * * * * * * * * * //

dimensions      [1 -1 -1 0 0 0 0];

internalField   nonuniform List<scalar> 
814
(
0.000192953068566
0.000117396269849
1.47526074948e-05
0.000157431858038
9.67097341099e-05
1.2571832832e-05
0.000143953502779
9.20230198662e-05
1.189824408e-05
0.000121742831912
8.34870006028e-05
2.408873191e-05
0.000109004974193
8.06504673963e-05
3.95366620955e-05
9.87730460601e-05
8.04821290476e-05
5.67951524303e-05
9.35170088163e-05
8.5739030937e-05
7.59784472171e-05
9.47642291964e-05
9.60230498517e-05
9.6760373405e-05
0.00010263813527
0.000111093171935
0.00011876887519
0.000117104202408
0.000130115498278
0.000141211744096
0.000136962646499
0.000151475207145
0.000163169352527
0.000160048345946
0.000173261072581
0.000183711186476
0.000182883565194
0.000193256841518
0.00020115545133
0.000202086932902
0.000208922971545
0.000213332707728
0.000214266667618
0.000218002223608
0.000218453050871
0.000216893988345
0.000217970687637
0.000214775786531
0.000209049041359
0.000208325886246
0.000202500357202
0.000193485833389
0.000191578856534
0.000184586855069
0.000176005062835
0.00017376420265
0.000167181548515
0.000162567964971
0.00016091074144
0.000155785755631
0.000157374792436
0.000156419747503
0.000153372958813
0.000160661122591
0.000160979935206
0.000160472918102
0.000174014632649
0.00017536558489
0.000177475890137
0.000194046208631
0.000196733187613
0.00020098311322
0.000219841396949
0.000222128818553
0.000226723147677
0.000239872960404
0.000242314101392
0.00024562051552
0.000254788807686
0.000255292260669
0.000256840963008
0.00025770617941
0.000258308970758
0.000258269489338
0.00025615877476
0.000255413668754
0.000254821359999
0.00024889042294
0.000248818813778
0.000247824209288
0.000252862373508
0.000251721099845
0.000251076428993
0.000265446953874
0.0002656356881
0.000264514473813
0.000436574927426
3.88973711735e-05
5.64463189059e-05
7.71625057615e-05
9.78843633558e-05
0.000119295810425
0.000140995833178
0.000162209036175
0.000181672215754
0.000197296147973
0.00020700554502
0.000209256400459
0.000202987249705
0.000189090942373
0.00017121557191
0.000155505052287
0.000147001896804
0.000147794748472
0.000158653927767
0.000179179108538
0.000205345994269
0.000230962785795
0.000248524987776
0.000257075709456
0.00025743308764
0.000252840868436
0.00024628214173
0.000249347838115
0.000263260698473
2.82667809659e-05
0.00016925531182
0.000244955698683
0.000271828856146
0.000291506757714
0.000311508973417
0.000333342668544
0.000357023205711
0.000378938969897
0.000398247003197
0.000412798153349
0.000422457304225
0.000426581367595
0.000426241893419
0.000421944987833
0.000415745068325
0.000408989793664
0.000401967421264
0.000381067304281
0.000112401758226
3.28394524982e-05
0.00012943253076
0.0002252649709
0.000267290187565
0.000301951832884
0.00033098042931
0.000356394474161
0.000382246590049
0.000405376372101
0.000424192871679
0.000438117748905
0.000445881089162
0.000448090932108
0.00044473807647
0.000437703264258
0.000427888269099
0.00041840742026
0.000407882783313
0.000373634861861
0.000114270920716
7.03971864698e-05
0.000117065602105
0.000183526936748
0.00026117540616
0.000299723967687
0.00034090210181
0.000371006843151
0.000400479496657
0.000424832596498
0.000442837287629
0.00045513029352
0.000460843909087
0.000460992258444
0.000455699668464
0.000446680304257
0.000435179168496
0.000423835894486
0.000411880815793
0.000368893336296
0.000115829304541
4.60656410319e-05
5.9802446262e-06
3.02615306028e-05
0.000152633446812
0.000236248105746
0.000312962396071
0.000359829263608
0.000401590791904
0.000434011110345
0.000455359518203
0.000467794389693
0.000472252283839
0.000470799173588
0.000464275092805
0.000453801856061
0.000441382344517
0.000428557511721
0.000415968770323
0.000365605841733
0.000129717892801
1.02178082831e-05
3.49845159974e-06
1.44041294833e-06
3.95215054945e-06
3.33808073488e-05
0.000137304143687
0.000274677932845
0.000362386177892
0.000422298234282
0.0004576113751
0.000475963746321
0.000481353540447
0.000479262024887
0.000471968399142
0.000460420516272
0.000447272408288
0.000433222988538
0.000419850488542
0.000363703506058
0.000134176954904
1.90362876058e-05
5.40801135481e-06
1.73960733227e-06
2.36113043146e-06
2.00493698684e-05
9.4213953396e-05
0.000206970409811
0.000304455029401
0.000387975678974
0.000446420739257
0.000478598839971
0.000488716602579
0.000487415281652
0.000479645223897
0.000467238783961
0.000453240513584
0.000438124925
0.000423299664814
0.000360967536078
0.000140558925856
3.40517555907e-05
8.21860915856e-06
2.20296253522e-06
2.45553020052e-06
1.79397614458e-05
7.50606798755e-05
0.000158568436244
0.000246795603815
0.000343534643911
0.000424137163946
0.000474784903563
0.000494104511274
0.000495576714503
0.00048779447491
0.000474630408796
0.000459636746213
0.000443489483955
0.000426793284809
0.000356855355188
0.00014679128786
5.67436579032e-05
1.37208787998e-05
2.81579662182e-06
2.80120169314e-06
1.70998154016e-05
5.92526677674e-05
0.000119300007988
0.000198369127823
0.000299860985174
0.000395679624897
0.000464283679877
0.000496501842958
0.000503335925567
0.000496508252288
0.000482742004641
0.000466697805233
0.000449445138757
0.000430775732906
0.000352155705574
0.000151652484529
8.52095013504e-05
2.07732508398e-05
3.34518717748e-06
3.1805472995e-06
1.50047443342e-05
4.36048831772e-05
8.7796304012e-05
0.000159959124707
0.000259487915258
0.000364689888106
0.000447510574823
0.000494543889016
0.000509650496051
0.0005053979797
0.000491459647979
0.000474430749564
0.00045595207735
0.000435226206533
0.000347612880834
0.000155345723267
0.000112934577055
2.94626309394e-05
4.17710317048e-06
3.32849404421e-06
1.14347153662e-05
3.01704174708e-05
6.42625607874e-05
0.000129025313654
0.000224155079052
0.000332286466274
0.000425358912522
0.000487269089656
0.000513282976669
0.000513789162965
0.000500538803929
0.000482736637947
0.000462926358035
0.000439916680733
0.000343158448163
0.000158532654054
0.000136888138553
4.05532949273e-05
6.2552316403e-06
3.41406464658e-06
8.11097107347e-06
2.0589580805e-05
4.75506440221e-05
0.000104125284156
0.000192244951109
0.00029940856289
0.0003993146146
0.000474523977865
0.000513172429079
0.000520872042556
0.000509665535523
0.000491519774176
0.000470327238512
0.000444654803528
0.000338042061141
0.00016126852724
0.000156107507095
5.25021344118e-05
9.02127150746e-06
3.91446657699e-06
6.43974936518e-06
1.481230256e-05
3.5894415285e-05
8.35620084972e-05
0.00016363254625
0.000265572422944
0.000371005990401
0.000456811281918
0.000508576858923
0.00052573256185
0.000518400210432
0.000500656890356
0.000478149788464
0.000449342565228
0.000332012002406
0.0001634688753
0.000169073985002
6.242850733e-05
1.20873946324e-05
4.92240104159e-06
6.23117583077e-06
1.1716622118e-05
2.75890856321e-05
6.6264885248e-05
0.000136920339041
0.000233395917892
0.000340808731137
0.000434823047113
0.000499095905489
0.000527408115568
0.000526105627519
0.000509930042148
0.000486375943342
0.000453948584795
0.000325546872478
0.000165166787749
0.000174880434328
6.90184462016e-05
1.50441106713e-05
6.44796386807e-06
7.19490722511e-06
1.04063868825e-05
2.16497598346e-05
5.18443450836e-05
0.000112576594861
0.000202859244486
0.000308284506277
0.000409393004057
0.000484623034345
0.000525023986286
0.00053195419431
0.000518969123499
0.000494942760806
0.000458490883342
0.000319339266818
0.000166496785843
0.000173225997249
7.11093301988e-05
1.76640428728e-05
8.68504705085e-06
9.35626121798e-06
1.051333904e-05
1.77373515497e-05
4.01336131466e-05
9.0382416944e-05
0.000172461121653
0.000275028077368
0.000380418021114
0.000465227066646
0.00051792361343
0.000535013969972
0.000527232270554
0.000503714741638
0.000463035809221
0.000313924812714
0.000167563860718
0.000164331248686
6.99335764802e-05
2.085534182e-05
1.21398905733e-05
1.27558433759e-05
1.20601812401e-05
1.58773972509e-05
3.09463527065e-05
6.95574599599e-05
0.000141379905583
0.000239707671327
0.000347660231164
0.000441103248034
0.000505746225019
0.000534414409723
0.000534010562809
0.000512454680826
0.000467696254779
0.000309675265151
0.000168439461441
0.000150554865117
6.79366162948e-05
2.58761830623e-05
1.77940220113e-05
1.71583866852e-05
1.53223856229e-05
1.6260251658e-05
2.44300347933e-05
5.04605193833e-05
0.000109046106703
0.000201742516283
0.000310325017572
0.000412708201987
0.000488515195828
0.000529497933567
0.000538491324543
0.000520781770227
0.00047260876519
0.000306881088117
0.000169207232477
0.000136400176567
6.85954428911e-05
3.44921180642e-05
2.6287302226e-05
2.25070484046e-05
2.0631430768e-05
1.91893975137e-05
2.15326792348e-05
3.5714553948e-05
7.83440078201e-05
0.000161756906322
0.000270725886712
0.000380423719431
0.000466647850803
0.000519886092287
0.000539814813039
0.000528118145974
0.000477884603979
0.000305804010601
0.000169972698561
0.000127302125057
7.4630550964e-05
4.8001823188e-05
3.87331312591e-05
3.1122680506e-05
2.79847158345e-05
2.48059474141e-05
2.25538612782e-05
2.75092068176e-05
5.53161059133e-05
0.000126207445847
0.000232965982355
0.000345542525178
0.000441214810085
0.000505354327545
0.000536989379127
0.000533597517575
0.000483517054022
0.00030670971997
0.000170855866491
0.00012625821786
8.82501329315e-05
6.75356296752e-05
5.77145861243e-05
4.69720001806e-05
3.68787799031e-05
3.25936218441e-05
2.62630074217e-05
2.45726028891e-05
4.19489331426e-05
0.000101063450444
0.000201179717201
0.000312319807917
0.000412182805141
0.000485145903434
0.000528497297866
0.000535854467945
0.00048920653427
0.000309885329158
0.00017200021362
0.000134574965486
0.000110454824368
9.50424390053e-05
8.43413073811e-05
6.80989871368e-05
4.90122951247e-05
4.09539556567e-05
3.06566391912e-05
2.4282233506e-05
3.6846124317e-05
8.84669958068e-05
0.000177633880524
0.000279937786438
0.000376556266179
0.000456505102239
0.000511392882508
0.000532389177566
0.000494072412941
0.000315639766517
0.00017359278168
0.00015330481282
0.000141338381213
0.000129964698161
0.000115075037559
8.8890112034e-05
5.95892868374e-05
4.76854504059e-05
3.36879526769e-05
2.50227340129e-05
3.82755734779e-05
8.4400763143e-05
0.000156551197491
0.000241416977278
0.000329493790373
0.000412967802555
0.000480297121105
0.000518770632631
0.000495923592978
0.00032416612602
0.000175882061035
0.000180716145309
0.000177102430964
0.000165494970748
0.000141093645803
0.000101634845386
6.4089592708e-05
5.16026207815e-05
3.40197904502e-05
2.79675843851e-05
4.54971701699e-05
8.10507236742e-05
0.000129793881886
0.000190938348554
0.000264667935437
0.000346211121081
0.000426942560088
0.000487866182743
0.00049047681704
0.000335326638892
0.000179212649465
0.000211101255417
0.000209749002357
0.000192196663818
0.000154836503873
0.000103588266199
6.24052854203e-05
5.0680228579e-05
3.42241894878e-05
3.42501928159e-05
5.05628084352e-05
7.13355416781e-05
9.77517312819e-05
0.000134489260297
0.000187280881099
0.000259067108667
0.000345791210431
0.000431920410504
0.000470670296292
0.000347630382378
0.00018399603676
0.000236221011894
0.00023021248762
0.000202000754759
0.000152710924081
9.64471700691e-05
5.75719246438e-05
4.68029067781e-05
3.68079806769e-05
4.09299868696e-05
5.18296325612e-05
6.23665261391e-05
7.34900634323e-05
9.00963868777e-05
0.000118822373988
0.000168299279035
0.000245271578477
0.000344969999729
0.000427386438181
0.00035744809265
0.000190764117298
0.000250428581956
0.000237579651006
0.000201761180003
0.000147765903926
9.27395737517e-05
5.72984000764e-05
4.73915246462e-05
4.14470639513e-05
4.56961697006e-05
5.29907377322e-05
5.92727854331e-05
6.38264440016e-05
6.8844568821e-05
7.87768067195e-05
0.000101914816149
0.000152357698697
0.00024255902497
0.000357343287028
0.000357670036886
0.000199683388094
0.00025485065521
0.000236409853984
0.000196734477416
0.000142656305699
9.17768223957e-05
6.05886468175e-05
5.09024460247e-05
4.85425620569e-05
5.21015896049e-05
5.77764196105e-05
6.34155255708e-05
6.65360739878e-05
6.76912962183e-05
6.78847669471e-05
7.19188933374e-05
9.23518386261e-05
0.000151326371517
0.000266365266305
0.000341061824924
0.000210673842192
0.000253186030294
0.000234120142239
0.000197270433308
0.00014866215042
0.00010332357217
7.42605081533e-05
6.19480627268e-05
6.13609895541e-05
6.46442110003e-05
6.94102918787e-05
7.35098621339e-05
7.60558651757e-05
7.69105655494e-05
7.50592817434e-05
7.02192808435e-05
6.97995736198e-05
9.6072475309e-05
0.000186316070764
0.00030916139257
0.000222146321736
0.000247896192115
0.000230546235817
0.000199236855275
0.000158801238842
0.000121934806404
0.000100082502804
9.23496516281e-05
9.20336785536e-05
9.38051094861e-05
9.40829746742e-05
9.15581106611e-05
8.96490593375e-05
8.84466823762e-05
8.70511950331e-05
8.17287866767e-05
7.1676777977e-05
7.3959285225e-05
0.000133348061971
0.000271237137159
0.000233323332789
0.00024185396425
0.000228596347266
0.000206137738632
0.000178337208755
0.000154752179248
0.00014366290692
0.000141931764977
0.000140794367156
0.000134868961215
0.000124575600843
0.000112164240785
0.000101205747134
9.551788247e-05
9.47702964584e-05
9.26979538494e-05
8.18045791763e-05
7.14749614989e-05
0.000110767477465
0.000248271343992
0.000242208922982
0.000246197085378
0.000238338616704
0.00022655235262
0.000212781529478
0.000200376736173
0.000190317187413
0.000179453784145
0.000163876672666
0.000143810126254
0.000122701218275
0.000103535853113
9.08321937698e-05
8.69860068745e-05
9.13639513439e-05
9.69532680982e-05
8.91895637083e-05
7.42120416833e-05
0.000107582955183
0.000243840391007
0.000248572041079
0.00025954526635
0.000251033223378
0.000238800762689
0.000223493622866
0.000206056679539
0.000186923281187
0.00016659713398
0.000144266486251
0.000121307425685
0.000102854704349
8.73744847374e-05
7.67903241501e-05
7.45620886068e-05
0.000199596514935
0.000102917806827
0.000168364813488
0.000136587723253
0.000170681223891
0.000157721661833
0.000168538620312
0.000155981144913
0.000166299752803
0.000147811841474
0.000163796157718
0.00013816449019
0.000161548745479
0.000128341848804
0.000159240142241
0.000118840466985
0.000156783376362
0.000109855082399
0.000154126834548
0.000101471395145
0.000151293294849
9.37098635379e-05
0.000148315932486
8.65669785592e-05
0.000145217526102
8.00493316997e-05
0.000142074441684
7.41419577962e-05
0.000138988812281
6.88198868419e-05
0.000136057103519
6.40584326669e-05
0.000133365648481
5.98378275587e-05
0.000130997814852
5.61423264179e-05
0.000129039207013
5.29591700879e-05
0.000127592220852
5.02791877076e-05
0.000126769203295
4.80906531989e-05
0.00012677358558
4.63995255328e-05
0.000127783239782
4.51885185507e-05
0.000130100163734
4.44609913064e-05
0.000133561471175
4.40824432478e-05
0.000137966532239
4.39634256449e-05
0.000141699488292
4.37943548731e-05
0.000143582572784
4.33190898224e-05
)
;

boundaryField
{
    inletfuel
    {
        type            calculated;
        value           nonuniform List<scalar> 3(0.000818102770307 0.000818029231319 0.000818163628896);
    }
    inletair
    {
        type            calculated;
        value           nonuniform List<scalar> 
20
(
0.000389890084826
0.000389884395994
0.000389876969367
0.00038986690467
0.000389857029761
0.000389848494643
0.000389839757137
0.000389826614663
0.000389805153689
0.00038977552685
0.000389745294619
0.000389721969073
0.000389703898702
0.000389681928415
0.000389655547061
0.000389635424022
0.000389621613202
0.000389607377693
0.000389597142953
0.000389594159232
)
;
    }
    outlet
    {
        type            calculated;
        value           nonuniform 0();
    }
    axis
    {
        type            empty;
    }
    leftside
    {
        type            compressible::alphatWallFunction;
        Prt             0.85;
        value           nonuniform List<scalar> 
33
(
0
0
4.9970716543e-06
5.28333307429e-06
5.55960007995e-06
0
0
0
0
0
0
0
0
0
0
0
0
0
0
0
0
0
0
0
0
0
0
0
0
0
0
0
0
)
;
    }
    burnerwall
    {
        type            compressible::alphatWallFunction;
        Prt             0.85;
        value           uniform 0;
    }
    front
    {
        type            wedge;
    }
    back
    {
        type            wedge;
    }
    procBoundary0to1
    {
        type            processor;
        value           nonuniform List<scalar> 
27
(
0.000209634926911
0.000207787709118
0.000206378048806
0.000204109236154
8.28651996912e-05
9.53234453584e-05
9.02938738987e-05
7.64982077771e-05
0.00012210279182
0.000265550622123
0.000250389541285
0.00020050804443
0.000194151041135
0.000186660712605
0.000178760762772
0.000170072033775
0.000159103382361
0.000146592862087
0.000131313729428
0.000111100918483
9.05172241051e-05
7.55589465132e-05
6.88218636893e-05
8.28651996912e-05
7.03822126912e-05
0.000142612357512
4.22976445406e-05
)
;
    }
}


// ************************************************************************* //
