/*--------------------------------*- C++ -*----------------------------------*\
  =========                 |
  \\      /  F ield         | OpenFOAM: The Open Source CFD Toolbox
   \\    /   O peration     | Website:  https://openfoam.org
    \\  /    A nd           | Version:  7
     \\/     M anipulation  |
\*---------------------------------------------------------------------------*/
FoamFile
{
    version     2.0;
    format      ascii;
    class       volScalarField;
    location    "0.1";
    object      dQ;
}
// * * * * * * * * * * * * * * * * * * * * * * * * * * * * * * * * * * * * * //

dimensions      [1 2 -3 0 0 0 0];

internalField   nonuniform List<scalar> 
814
(
6.46082648797e-10
2.34524590038e-09
3.99239184819e-09
4.689963045e-08
2.20008455732e-07
1.47950075688e-06
1.59323299117e-06
1.12609133427e-05
0.000179173970776
6.14054145886e-05
0.000871613490703
0.0384794052983
0.000358515460062
0.00506910738884
0.0906750366695
0.000546793923517
0.00497110751787
0.0404249968141
0.000541154704207
0.00368754703865
0.0163974833743
0.000450680993896
0.00231498254601
0.00641269958284
0.000322571862669
0.00129147267133
0.0025097874249
0.000201444278064
0.000664096789708
0.00103846085003
0.000112220260373
0.000326928222501
0.000479930691813
5.77648785089e-05
0.00016074434324
0.000250604656863
2.89366978675e-05
8.33110500379e-05
0.000150793111267
1.53439046364e-05
4.88701728854e-05
0.000107301313192
9.57652034723e-06
3.46493951782e-05
8.97384748617e-05
7.5006811243e-06
2.96327367393e-05
8.34250536187e-05
7.19521439699e-06
2.93651367758e-05
8.43422211549e-05
8.00511239952e-06
3.26796283032e-05
9.31755813265e-05
9.47939244042e-06
3.79391655726e-05
0.000104626660044
1.0931981711e-05
4.23189399228e-05
0.000110200544861
1.18240048869e-05
4.38926360623e-05
0.000106573249994
1.18711100802e-05
4.23903820219e-05
9.62347958456e-05
1.15798913141e-05
4.01410924646e-05
8.7070753847e-05
1.20137528311e-05
4.15097868119e-05
9.00513916719e-05
1.56645376899e-05
5.49705554705e-05
0.000123704254521
2.21410970505e-05
7.84226996708e-05
0.000178246929565
2.87613058014e-05
0.000100789954414
0.000226501786218
2.77322011949e-05
9.46596920937e-05
0.000201762563137
2.25818469172e-05
7.46346410553e-05
0.000151238595117
1.74419614695e-05
5.6312841799e-05
0.000108499664437
2.53282651566e-05
8.03743920054e-05
0.000151480112925
0.000620445699953
0.00191896688085
0.00338770701132
0.00706927909479
0.315017972778
0.0871275043164
0.0239383930528
0.00709816796933
0.00247313388351
0.00113117114079
0.000630626902166
0.000383205440035
0.000267645933912
0.00021730822212
0.000196742545688
0.000186474199433
0.000186691351487
0.000202504821247
0.00021781917614
0.000214696171745
0.000191694925303
0.000161331771298
0.000140239332084
0.000147575542721
0.000211610703027
0.000307930607978
0.000386093736017
0.000325124046002
0.000229794350318
0.000155947007081
0.000213559573561
0.00437477664833
1.93353627184e-05
6.97710185363e-06
6.22675211633e-06
5.50924704147e-06
3.98563373461e-06
2.42648217321e-06
1.14758932659e-06
3.73429909509e-07
1.1116494455e-07
3.02217609169e-08
7.41576847402e-09
1.62577909978e-09
3.14251767931e-10
5.31567179767e-11
7.77214775924e-12
9.68953321906e-13
1.01930852248e-13
8.71367526211e-15
6.04004321998e-16
5.66727650741e-17
0.000552613214516
0.000202576922575
0.00012613944531
8.14461730936e-05
4.80826168952e-05
2.22808360779e-05
6.80044986324e-06
1.9455313155e-06
5.17448772334e-07
1.26663931902e-07
2.83830357801e-08
5.70743026988e-09
1.01832222451e-09
1.59838631664e-10
2.18286426495e-11
2.57264903182e-12
2.57472097511e-13
2.13842594915e-14
1.47319916448e-15
1.25265316565e-16
0.00408839200823
0.00118329422477
0.000748623285819
0.000464944850774
0.000184154431898
5.42124891676e-05
1.58467579889e-05
4.4013796705e-06
1.13502092113e-06
2.6781335596e-07
5.81910677583e-08
1.13386288838e-08
1.95576760721e-09
2.96196768179e-10
3.89224612488e-11
4.42806716886e-12
4.27712062697e-13
3.49194375918e-14
2.36531265297e-15
1.81993935643e-16
0.195979569274
0.238399301064
0.0317655463114
0.00347271390067
0.000679633980186
0.000205025211059
6.09910971846e-05
1.69107242271e-05
4.26759026085e-06
9.72206268807e-07
2.06270868968e-07
3.96258342227e-08
6.74827102242e-09
1.00675950835e-09
1.29978771132e-10
1.45565502679e-11
1.38519068776e-12
1.13641620321e-13
7.79260860483e-15
8.29922741388e-16
0.593511437828
0.255491616639
1.01604853688
0.141556096078
0.0145546391116
0.00178854293717
0.000248647915707
6.16950378211e-05
1.48446440496e-05
3.22124831156e-06
6.68200987175e-07
1.28752940454e-07
2.21938274194e-08
3.33835791938e-09
4.33502636475e-10
4.88965767016e-11
4.70439190653e-12
3.96889372409e-13
2.87481886684e-14
4.74503130974e-15
0.0916587822304
0.099870808763
1.22440375216
0.222013089604
0.024086190957
0.00340409670549
0.00072942604234
0.000160759096673
4.21000489279e-05
9.14713461148e-06
1.89127443004e-06
3.73039512236e-07
6.67725371575e-08
1.04088836919e-08
1.39505037344e-09
1.62079918316e-10
1.61155886597e-11
1.41766457385e-12
1.11627349104e-13
2.46769296031e-14
0.019600483751
0.0796771486921
1.1669571612
0.209359938133
0.023601670222
0.004179991736
0.00121090343247
0.000400099605812
9.14052755309e-05
2.15015842855e-05
4.56841171707e-06
9.39730717256e-07
1.78202693225e-07
2.94269659045e-08
4.15998416088e-09
5.07593073578e-10
5.30682411914e-11
4.92431771849e-12
4.26650705049e-13
1.09041361648e-13
0.00884307093063
0.0751925170757
1.24895081121
0.195437218632
0.0205303491392
0.00436017828337
0.00170629194021
0.000703507237137
0.000175956953491
4.35984236183e-05
9.58063427967e-06
2.07497893423e-06
4.21413322963e-07
7.47789595167e-08
1.13247480629e-08
1.47366451524e-09
1.64218747732e-10
1.62253593993e-11
1.54954059679e-12
4.16149175456e-13
0.00718432610211
0.0701782721017
1.22618335351
0.171014477246
0.0183360780795
0.00443473274325
0.00213868908575
0.000985455716904
0.000320338094647
7.20739291284e-05
1.76710811748e-05
4.09602765419e-06
8.94100452405e-07
1.71707071898e-07
2.81412698736e-08
3.94930592444e-09
4.73907851779e-10
5.0220124498e-11
5.27429016807e-12
1.40890546327e-12
0.00616230706687
0.0522955906673
0.717611332872
0.182108944927
0.0203230916709
0.0047494528577
0.00244547991157
0.00124169516617
0.000460181688541
0.000114751775622
3.03064151354e-05
7.4158558433e-06
1.72896799077e-06
3.59959130878e-07
6.42244024036e-08
9.79475409345e-09
1.27514446218e-09
1.45758573634e-10
1.67797370013e-11
4.32320793155e-12
0.00420205444147
0.0291376119435
0.324227622606
0.298311629591
0.0306557418302
0.00570537505447
0.00265018865743
0.00143375047759
0.00059481596859
0.000169903964109
4.86546786225e-05
1.25108487336e-05
3.0948922402e-06
6.97205629925e-07
1.35754020623e-07
2.26055101794e-08
3.20998759456e-09
3.97723360101e-10
5.01237676777e-11
1.23071922353e-11
0.00272838964877
0.0184196472901
0.208935999501
0.495427636645
0.0523572092363
0.00767367307006
0.00284554417461
0.00158154898021
0.000704087869533
0.0002546181023
6.98987568575e-05
1.98771389856e-05
5.20279753267e-06
1.26197676706e-06
2.68155813649e-07
4.88818107181e-08
7.59948111336e-09
1.02491394146e-09
1.41525872513e-10
3.30238499063e-11
0.00211532624091
0.0152798633999
0.165821947744
0.666015128949
0.0812897143805
0.0111319402164
0.00318281418131
0.00173255885719
0.000829659398227
0.000333272814745
0.000100379075243
3.0463257453e-05
8.33002382299e-06
2.15930064959e-06
4.99636397196e-07
9.97717135236e-08
1.70196033214e-08
2.5069221685e-09
3.79679412094e-10
8.45298074201e-11
0.00186509010187
0.0136938210393
0.135588820188
0.754503692157
0.105062466017
0.0157123549466
0.00384079461318
0.00195192644694
0.000972124392732
0.000406568717858
0.000148260777186
4.30350561293e-05
1.28230191161e-05
3.531674433e-06
8.85844605653e-07
1.93611380904e-07
3.62675325277e-08
5.84827304916e-09
9.71415791167e-10
2.0821436748e-10
0.0017418696833
0.0122959254788
0.106186593466
0.754211429077
0.116983907762
0.0208689643788
0.00521041947697
0.00239065476099
0.00116963493867
0.000500952708272
0.000197222525743
6.17902725656e-05
1.94364129388e-05
5.58686978214e-06
1.50736738888e-06
3.59718319159e-07
7.39514433754e-08
1.30719479912e-08
2.37835743243e-09
4.96763378765e-10
0.00162745004533
0.0106725242415
0.0766661074982
0.432457840218
0.130032578445
0.0281943689409
0.00834006195068
0.0034840964475
0.00156179497402
0.000645787116791
0.000259205441363
8.85900279344e-05
2.88925066228e-05
8.63657101346e-06
2.48272913118e-06
6.44320042724e-07
1.45173427848e-07
2.81401042592e-08
5.59546088355e-09
1.15394626746e-09
0.00158607614612
0.00960215989852
0.0563898742504
0.254093170568
0.185052907157
0.0483633815596
0.0163126434712
0.00644062578477
0.00252630757945
0.000939987080691
0.000350939838223
0.000131342048292
4.1376916212e-05
1.32107710892e-05
3.9905362907e-06
1.12141574796e-06
2.76781147009e-07
5.88143601624e-08
1.2734775681e-08
2.62564659323e-09
0.00167322293276
0.00923127453042
0.0455332008776
0.182003685655
0.359367023604
0.106206647424
0.0363410144131
0.0136186396503
0.00474114096242
0.00154600595509
0.000512931271041
0.000185386785688
6.01007303093e-05
2.01981518287e-05
6.34623265945e-06
1.92704956223e-06
5.21176259649e-07
1.21194202786e-07
2.83971217293e-08
5.9127268224e-09
0.00170446613652
0.00817272165889
0.0322469306281
0.10493370317
0.35796341178
0.286618214035
0.0899565724584
0.0294821664622
0.00900327019157
0.002548657372
0.000744061205199
0.000248181507649
9.02854266341e-05
2.97716180427e-05
1.03295501153e-05
3.37985467493e-06
1.00056559939e-06
2.53232982538e-07
6.34832329976e-08
1.34233652304e-08
0.00154955243972
0.00632769762249
0.0208440325824
0.0603068549996
0.187341038479
0.794310168466
0.236079388796
0.0649260619125
0.01640179364
0.00379529587729
0.000980681443399
0.000320493039868
0.000126271981267
4.75698507956e-05
1.84361853801e-05
6.46890757453e-06
2.06593291727e-06
5.59633132073e-07
1.47153759325e-07
3.15504214528e-08
0.00125627429568
0.00436554176016
0.0127445442768
0.0350421693442
0.104740405783
0.407512441824
0.552643969278
0.134484569619
0.0261484981073
0.00463159197344
0.00113900273901
0.000420765864487
0.000192597890345
9.21548397923e-05
3.84773815982e-05
1.48568689822e-05
4.85808817135e-06
1.36127841152e-06
3.66015394618e-07
7.90192620721e-08
0.000978619143836
0.00310790039596
0.0089280030188
0.0262756030372
0.0880704260347
0.368614451048
0.810099045463
0.169104658901
0.0258041488626
0.00425711255883
0.00141203832269
0.000713060346976
0.000397520383563
0.000216581113038
0.000100980910652
4.15098695437e-05
1.34650530651e-05
3.68079806369e-06
9.8666564784e-07
2.13749381991e-07
0.000830253499162
0.00271183737362
0.00870689140478
0.0296623257812
0.109998294332
0.47224523643
0.706857553212
0.101276655636
0.011916917259
0.00412463711768
0.00266365906654
0.00178123980869
0.00111085962575
0.000625794505539
0.000316929994872
0.000129399529556
4.2945659282e-05
1.09236488436e-05
2.81137698955e-06
6.11517272258e-07
0.000924799477144
0.00344059273938
0.0126172581135
0.0466661829359
0.176484744521
0.746985171372
0.430130627365
0.0475173184497
0.0104525484965
0.00848841528677
0.00750644582648
0.00568145562643
0.00369846678798
0.00209160162122
0.00103782534899
0.000446552383012
0.00014245797273
3.56171259559e-05
8.18125806186e-06
1.77280822161e-06
0.00141489934935
0.00571804211224
0.0218634348619
0.0823827795229
0.315102573551
1.2494959565
0.28390248788
0.0436427333684
0.0214183594063
0.0226959198824
0.0228454006952
0.0189260690747
0.013122339434
0.00760024166121
0.00372077269035
0.00154769253431
0.000525895807749
0.000118234152825
2.40760497754e-05
5.00931273802e-06
0.00206442085431
0.00822872320635
0.0308029515441
0.111896314356
0.395920612543
1.30800910831
0.282210993246
0.0780925897633
0.0618070886501
0.069334225934
0.0723694647576
0.062180004796
0.0452702260596
0.0275734696967
0.0138921475093
0.00563532625783
0.00185497000835
0.000404884755294
7.28447184118e-05
1.32716591337e-05
0.002530491915
0.00972074708903
0.0348620681834
0.119289237068
0.382838320308
1.10549784475
0.393403091476
0.199277641878
0.204073543976
0.23570695065
0.24424332858
0.212660628893
0.156639331641
0.0954465639034
0.0487038292911
0.0202904709233
0.00648575717506
0.00149045838063
0.000202258578736
3.26113256448e-05
0.00197068420481
0.00679488821433
0.0219667329997
0.066895469889
0.189705058172
0.487234630498
0.906370454351
0.632884615369
0.68145742713
0.754143743925
0.732740642475
0.627871148612
0.465759470889
0.290992447859
0.150372177523
0.0629023352269
0.0201395293694
0.00444669073999
0.000517590915592
6.98295242497e-05
0.00129062305217
0.00398183001309
0.0115741754642
0.0320433470956
0.0828322823098
0.193902062706
0.398434357824
0.671727643631
0.898076395296
1.14274226929
1.57582466484
1.51762977597
1.06163559962
0.670934038294
0.360787397436
0.156035403043
0.0508366752625
0.0106091207383
0.00128725236972
0.000110432166465
0.000807830403716
0.00222242887807
0.00580353991962
0.014680824162
0.0359216945261
0.0817422968529
0.163940778443
0.278026968423
0.420756661501
0.624927943787
0.924551880875
1.47864821008
1.6839742439
0.999652288919
0.546963755736
0.248024336476
0.0835202796705
0.0175959424412
0.0020109413209
0.000152062295045
0.00110034926724
0.00305429237146
0.00820108340913
0.0209087479421
0.0500020015293
0.11150980988
0.232623386515
0.456275506703
0.808326109158
1.4034016163
2.20377503723
1.76031127412
1.18950966633
0.814671756833
0.503631613949
0.248565973209
0.0886786779913
0.0198166345421
0.00226751421016
0.000164529993137
0.0187909253068
0.0381719311617
0.0744386549812
0.142050075993
0.264523709184
0.480432143346
0.861649130029
1.54729361649
2.50173390454
1.52451438223
0.997009880436
0.710918356301
0.539487657953
6.24991325745e-16
1.48240920687e-15
2.50645229578e-15
2.97344451154e-15
8.68242178239e-15
6.57637434936e-15
2.96284507264e-14
1.73483714536e-14
8.93145804903e-14
4.36629332826e-14
2.42389190892e-13
1.03781392914e-13
6.05065504988e-13
2.34142515082e-13
1.42913595624e-12
5.12549735004e-13
3.25183849825e-12
1.10037178533e-12
7.22720705856e-12
2.33890203798e-12
1.58394097515e-11
4.95294464326e-12
3.46059155374e-11
1.05393863827e-11
7.58031608949e-11
2.26715447642e-11
1.66553903354e-10
4.92403646617e-11
3.68589092467e-10
1.0816824009e-10
8.32013648352e-10
2.42564741533e-10
1.95509315277e-09
5.64521604865e-10
4.8957361209e-09
1.39031726099e-09
1.3234667951e-08
3.66964965226e-09
3.7979304114e-08
1.02423937817e-08
1.11601258218e-07
2.93603033993e-08
3.20647775782e-07
8.24682887473e-08
8.53280138169e-07
2.16149882015e-07
2.05613196818e-06
5.0367123234e-07
4.24129804025e-06
9.91108534874e-07
7.20313876602e-06
1.63797376826e-06
9.78692326914e-06
2.13813362884e-06
1.03881669537e-05
2.19311194782e-06
)
;

boundaryField
{
    inletfuel
    {
        type            zeroGradient;
    }
    inletair
    {
        type            zeroGradient;
    }
    outlet
    {
        type            zeroGradient;
    }
    axis
    {
        type            empty;
    }
    leftside
    {
        type            zeroGradient;
    }
    burnerwall
    {
        type            zeroGradient;
    }
    front
    {
        type            wedge;
    }
    back
    {
        type            wedge;
    }
    procBoundary0to1
    {
        type            processor;
        value           nonuniform List<scalar> 
27
(
0.00433305498271
0.0130263144966
0.0220437369651
0.0269151726833
0.424008045241
0.318013482599
0.183097420106
0.0666968222813
0.0144109661926
0.00170939045755
0.000132723289459
0.104264930917
0.180550614213
0.296770761625
0.480801801897
0.773971248022
1.24979152695
1.06561724423
0.73244175698
0.507773894943
0.369136438792
0.292057430114
0.246539610196
0.424008045241
0.214968022423
8.41072861253e-06
1.79710920495e-06
)
;
    }
}


// ************************************************************************* //
