/*--------------------------------*- C++ -*----------------------------------*\
  =========                 |
  \\      /  F ield         | OpenFOAM: The Open Source CFD Toolbox
   \\    /   O peration     | Website:  https://openfoam.org
    \\  /    A nd           | Version:  7
     \\/     M anipulation  |
\*---------------------------------------------------------------------------*/
FoamFile
{
    version     2.0;
    format      ascii;
    class       volScalarField;
    location    "0.1";
    object      ed::R_O2;
}
// * * * * * * * * * * * * * * * * * * * * * * * * * * * * * * * * * * * * * //

dimensions      [1 -3 -1 0 0 0 0];

internalField   nonuniform List<scalar> 
814
(
-5.10443285944e-07
-6.17627361876e-07
-6.30844604141e-07
-5.85864484106e-05
-9.16106117881e-05
-0.000369634490043
-0.00314684824754
-0.007413933354
-0.0707782993584
-0.11272883605
-0.533356890041
-14.1215107043
-0.632944530607
-2.98268876152
-31.9714684931
-0.928311457593
-2.81244134482
-13.6984581993
-0.883457772334
-2.00585117793
-5.34091480195
-0.707463102622
-1.21062917413
-2.00778423312
-0.486846775972
-0.64924575332
-0.755323727588
-0.29227653261
-0.320894721812
-0.300382159919
-0.156498492307
-0.151822472935
-0.133420910827
-0.0774150047451
-0.0717338130207
-0.0669541870783
-0.0372618938206
-0.0357237810813
-0.0387165191593
-0.0189825697188
-0.0201341188632
-0.0264740094058
-0.0113810878129
-0.0137143159317
-0.0212733762802
-0.0085619027068
-0.0112658719578
-0.0189973883153
-0.00788689972941
-0.0107206697225
-0.0184430151326
-0.0084234203376
-0.0114528963195
-0.019557223125
-0.00957267653401
-0.0127598362818
-0.0210736606357
-0.0105933660838
-0.0136575527479
-0.0212995164447
-0.0109961844075
-0.0135954220789
-0.019772198144
-0.0105987859509
-0.0126066110081
-0.017146308517
-0.00992928587597
-0.0114662697871
-0.0149049171432
-0.00989668272993
-0.0113928744528
-0.0148151091356
-0.0124000415513
-0.014499288193
-0.0195617524717
-0.0168438722221
-0.019879988675
-0.0270919297851
-0.0210288541617
-0.0245565064575
-0.0330890429624
-0.0194909113562
-0.0221703120728
-0.0283363164505
-0.0152573416571
-0.0168049877927
-0.0204219192284
-0.0113262100079
-0.0121869484301
-0.0140829780257
-0.0157937674921
-0.016703564625
-0.0188822671346
-0.370234555921
-0.381646032371
-0.404135283465
-2.15898936975
-92.0343677984
-24.4787052115
-6.47159937994
-1.84614026227
-0.618610049855
-0.272044016614
-0.145805425219
-0.0851718481308
-0.0571816854794
-0.0446227221436
-0.0388213677701
-0.0353459088638
-0.0339785629011
-0.0353744816931
-0.0365111555672
-0.0345372417323
-0.0296079212823
-0.023939111289
-0.0200003797298
-0.020233660305
-0.0278927432089
-0.0390155234251
-0.0470207989491
-0.0380694844698
-0.0258732435416
-0.0168802684334
-0.0222019379951
-0.435294771085
-0.000685130236441
-0.000154767040566
-9.42254823975e-05
-5.98286076051e-05
-3.21152701892e-05
-1.48532918028e-05
-5.4306950416e-06
-1.38464880589e-06
-3.26418633515e-07
-7.08812024399e-08
-1.39905761377e-08
-2.48178225385e-09
-3.90083873216e-10
-5.38832165863e-11
-6.45699436037e-12
-6.61840439821e-13
-5.73995412755e-14
-4.05508736591e-15
-2.32784408985e-16
-1.81223991388e-17
-0.0309582660394
-0.00710487994226
-0.00301809683395
-0.0013985181147
-0.000612612538363
-0.000215656245721
-5.08852636409e-05
-1.14065495589e-05
-2.40248062665e-06
-4.69731419867e-07
-8.46688288493e-08
-1.3776153719e-08
-1.99871414599e-09
-2.56190061581e-10
-2.86748555653e-11
-2.77853671433e-12
-2.29254612482e-13
-1.57354154444e-14
-8.9776045637e-16
-6.33370034587e-17
-0.361723065591
-0.0656027078859
-0.0283171245887
-0.0126222365536
-0.00370968501041
-0.000829654097028
-0.000187484857813
-4.08016657736e-05
-8.33239485856e-06
-1.57037154708e-06
-2.74469801602e-07
-4.32734413742e-08
-6.06954616563e-09
-7.50644526496e-10
-8.08440886732e-11
-7.56176624372e-12
-6.02161330008e-13
-4.06279278368e-14
-2.27908764407e-15
-1.45497974907e-16
-15.9698144682
-12.2257259567
-1.11488907636
-0.0875748743987
-0.0127225221916
-0.00291611703257
-0.000670682245973
-0.00014570849324
-2.91195808377e-05
-5.29865638869e-06
-9.04301862154e-07
-1.40564811861e-07
-1.94656437914e-08
-2.3714665629e-09
-2.50932920407e-10
-2.31049338198e-11
-1.8126257156e-12
-1.22894383364e-13
-6.97898925886e-15
-6.16700277683e-16
-45.6718418237
-12.1600660812
-33.1822367925
-3.38874687391
-0.261163747249
-0.024445827125
-0.00262920747439
-0.000511216908849
-9.74131051179e-05
-1.68841805063e-05
-2.8172912144e-06
-4.39242720448e-07
-6.15683748658e-08
-7.56263923053e-09
-8.04870794029e-10
-7.46403946497e-11
-5.9204029733e-12
-4.12774901928e-13
-2.47610649627e-14
-3.39097513833e-15
-6.8004640962
-4.57508638741
-38.2690277686
-5.07453115697
-0.414499045115
-0.0447037895846
-0.00741470046936
-0.00128097615402
-0.000265685957499
-4.61092690217e-05
-7.66882073688e-06
-1.22391724419e-06
-1.78144838551e-07
-2.26774666513e-08
-2.49100281628e-09
-2.37943913326e-10
-1.95049062495e-11
-1.41797061614e-12
-9.24654188879e-14
-1.69600240521e-14
-1.40196148222
-3.51055137928
-35.0391486636
-4.59124942942
-0.389872127656
-0.0527320105258
-0.0118316862466
-0.00306535850193
-0.000554736883621
-0.000104236226504
-1.78151204558e-05
-2.96518027331e-06
-4.57235864402e-07
-6.16575932481e-08
-7.14375782177e-09
-7.16657765777e-10
-6.17707860449e-11
-4.73686014269e-12
-3.39884956098e-13
-7.20737772567e-14
-0.60988802222
-3.19005292924
-36.0624753127
-4.11961539471
-0.325586835101
-0.0528270407672
-0.0160224294806
-0.00518195399571
-0.00102691656722
-0.000203263298264
-3.59307476206e-05
-6.29668313199e-06
-1.03988470178e-06
-1.50685509733e-07
-1.87031435195e-08
-2.00099391613e-09
-1.83832457073e-10
-1.50103164228e-11
-1.1871715045e-12
-2.64536730056e-13
-0.477421269412
-2.86733811207
-34.0454235784
-3.46278563158
-0.278986005146
-0.0515839384534
-0.0192967151532
-0.00697839154465
-0.00179767369052
-0.000323147746297
-6.37354939323e-05
-1.19539342674e-05
-2.12184644095e-06
-3.32760030294e-07
-4.46972376088e-08
-5.15725798062e-09
-5.10204515151e-10
-4.46811397601e-11
-3.88620274934e-12
-8.61330061324e-13
-0.39432131654
-2.05843589049
-19.1452616653
-3.53550218557
-0.296388812141
-0.0530193467864
-0.0211980280665
-0.00845235739683
-0.00248306772462
-0.000494771177293
-0.000105122323324
-2.08141143135e-05
-3.94607114175e-06
-6.70883145111e-07
-9.81042583074e-08
-1.23010567032e-08
-1.32026340366e-09
-1.24718640874e-10
-1.18904249032e-11
-2.54181858381e-12
-0.258824379836
-1.10532284957
-8.31431658821
-5.54693954256
-0.428282858159
-0.0611111098359
-0.0220670250771
-0.0093806729312
-0.00308580966261
-0.000704456748343
-0.000162300847524
-3.37699391284e-05
-6.79318252435e-06
-1.24969811164e-06
-1.99430326779e-07
-2.73032243859e-08
-3.19635711719e-09
-3.27287265021e-10
-3.41591194627e-11
-6.95901918741e-12
-0.161718676552
-0.673304077875
-5.15347825203
-8.82775385839
-0.70084696431
-0.0788593095246
-0.022756626268
-0.0099445375943
-0.00351173241592
-0.00101509717353
-0.000224231002827
-5.159900695e-05
-1.09828146051e-05
-2.17543399815e-06
-3.78857926078e-07
-5.67802943292e-08
-7.27757387799e-09
-8.11121947804e-10
-9.27576057428e-11
-1.7958388384e-11
-0.12061217566
-0.537834859163
-3.93534309342
-11.3826730229
-1.04305240894
-0.109753673173
-0.0244429456424
-0.010468030572
-0.00397786058318
-0.00127752952772
-0.000309659958048
-7.60506240164e-05
-1.69110490499e-05
-3.57979045035e-06
-6.78881221075e-07
-1.11457294936e-07
-1.56748307223e-08
-1.90805263649e-09
-2.39321362019e-10
-4.4207924385e-11
-0.102261456346
-0.463825917742
-3.09635555249
-12.3769193611
-1.29265631924
-0.148604177466
-0.028317714033
-0.0113301423147
-0.00447996979885
-0.00149844283018
-0.000439798639278
-0.000103319568523
-2.5035704179e-05
-5.63085561244e-06
-1.15757101677e-06
-2.08009234109e-07
-3.2123448837e-08
-4.28082902241e-09
-5.88871168005e-10
-1.0472527084e-10
-0.0917954854047
-0.400464236685
-2.33304885844
-11.8801617574
-1.38037211476
-0.189293083511
-0.0368685349868
-0.0133283945539
-0.00518012729859
-0.00177496974306
-0.000562540346832
-0.00014265978471
-3.64944272385e-05
-8.56663555297e-06
-1.89434563753e-06
-3.71676286818e-07
-6.29943377603e-08
-9.20219175006e-09
-1.38657367527e-09
-2.40292868e-10
-0.0823877909215
-0.334026863627
-1.62040852469
-6.54443949365
-1.47144615637
-0.245166225105
-0.0566050117619
-0.0186495141779
-0.0066457607858
-0.00219944012771
-0.000710854234432
-0.000196684054815
-5.21710802714e-05
-1.2735880879e-05
-3.00067394736e-06
-6.40256978165e-07
-1.18930335627e-07
-1.90514210635e-08
-3.1372733862e-09
-5.36818354415e-10
-0.077087505747
-0.28868813409
-1.14638721422
-3.69732240497
-2.00768111451
-0.402727210953
-0.106089242156
-0.0330745387222
-0.0103242122249
-0.00307667157874
-0.000925276928857
-0.00028038697013
-7.18502953063e-05
-1.87351851523e-05
-4.63840834453e-06
-1.07169048413e-06
-2.18068320012e-07
-3.82944402961e-08
-6.86686407217e-09
-1.17470399474e-09
-0.0780474480389
-0.266607368045
-0.890410728915
-2.54805452088
-3.73847707149
-0.845874129968
-0.226113693997
-0.0670136331236
-0.0185959626753
-0.00486152048261
-0.0012999718396
-0.000380521847366
-0.000100359920217
-2.75471950563e-05
-7.09414472185e-06
-1.77110798641e-06
-3.94903587675e-07
-7.58900467673e-08
-1.47262474736e-08
-2.54407747241e-09
-0.0763066809761
-0.226826676712
-0.606816197752
-1.41377380641
-3.57558413773
-2.18341021637
-0.534831849714
-0.138841042355
-0.0338677563675
-0.00769730022786
-0.0018124250858
-0.000489776880547
-0.000144970693918
-3.90478854501e-05
-1.11047399028e-05
-2.98743524594e-06
-7.29125108083e-07
-1.52501379607e-07
-3.16612010885e-08
-5.5546179892e-09
-0.066614246577
-0.168904870549
-0.377635106354
-0.78222353594
-1.80054224685
-5.79990352533
-1.34186285515
-0.292505969783
-0.0591549998369
-0.0110076311154
-0.00229578317862
-0.000608062665529
-0.000194957746528
-5.99987483566e-05
-1.90605169124e-05
-5.49892213392e-06
-1.44784484425e-06
-3.24121063385e-07
-7.05813934593e-08
-1.25559085212e-08
-0.0518964543241
-0.112162907865
-0.222397928889
-0.4377291257
-0.969033755516
-2.86024393663
-3.01066932367
-0.580502310125
-0.0905031575619
-0.0129050522087
-0.0025627715071
-0.000767458076082
-0.000285916534179
-0.000111767591654
-3.82556346547e-05
-1.21454930426e-05
-3.27430400497e-06
-7.58229559764e-07
-1.68837389251e-07
-3.02430813703e-08
-0.0388735304184
-0.0768888886201
-0.15009153386
-0.316118542904
-0.784343883835
-2.48920511412
-4.24128407432
-0.701582325223
-0.0858548160719
-0.0114011460915
-0.00305362466604
-0.00125017655247
-0.000567340356238
-0.000252563880819
-9.65450587717e-05
-3.26338948036e-05
-8.72782020862e-06
-1.97171764942e-06
-4.37713034761e-07
-7.86770207332e-08
-0.0317238451472
-0.0645976601047
-0.140973028593
-0.343570517758
-0.942624979474
-3.0678272366
-3.56341057827
-0.405012277741
-0.0381643867716
-0.0106176291405
-0.00553436800396
-0.00300072204088
-0.00152371663358
-0.000701537586662
-0.000291336363302
-9.78261076714e-05
-2.67701934972e-05
-5.62752191222e-06
-1.19946696551e-06
-2.16471924531e-07
-0.0339923974607
-0.0788834926753
-0.196625355992
-0.520035702134
-1.45453185245
-4.66857437748
-2.09108909433
-0.183097081863
-0.0321634467201
-0.0209698818464
-0.0149650798659
-0.00918708587139
-0.00487204160491
-0.00225299658859
-0.000917041523928
-0.000324588286982
-8.53948461915e-05
-1.76461114163e-05
-3.35689674274e-06
-6.03537394771e-07
-0.0500151470662
-0.126096048918
-0.327655374856
-0.882587374021
-2.49689354195
-7.51660605885
-1.33003041848
-0.161623598231
-0.0631754719041
-0.0536759692397
-0.0435988863982
-0.0293160969101
-0.0165754075691
-0.00785813144389
-0.00315839923232
-0.00108133363687
-0.000303105353622
-5.63325617425e-05
-9.50056266128e-06
-1.64009784814e-06
-0.0701579467396
-0.174470951278
-0.443794659185
-1.15241543205
-3.01682627164
-7.56911094705
-1.26977223522
-0.277038250419
-0.174263044542
-0.156528077645
-0.131759343644
-0.0919439186151
-0.0546671425197
-0.0273060636783
-0.0113138324702
-0.00378205646665
-0.00102769357315
-0.000185497920223
-2.76440760264e-05
-4.17893194114e-06
-0.0826682158627
-0.198138774252
-0.482864751846
-1.18120115758
-2.80532143274
-6.15109884127
-1.69751816489
-0.676079414312
-0.549168315394
-0.507145242363
-0.42336428316
-0.299208968818
-0.180071434401
-0.0901754211652
-0.0379550575758
-0.0130631030132
-0.00345216151642
-0.000656484884104
-7.38141779899e-05
-9.87542275159e-06
-0.0619093732105
-0.133217600362
-0.292711800181
-0.637347039294
-1.33730670683
-2.60584195236
-3.7487679901
-2.05401809082
-1.75224311792
-1.5492009241
-1.21151217722
-0.841372809135
-0.509229272628
-0.261405153099
-0.111688510699
-0.0387547838735
-0.0102891876635
-0.00188246226674
-0.000181647297248
-2.03362811193e-05
-0.0389957467518
-0.0751087455989
-0.148435750265
-0.293883871734
-0.562068791311
-0.997889580173
-1.58434679108
-2.09272335371
-2.21534286297
-2.25111514724
-2.49668218415
-1.9465272658
-1.10891926394
-0.574321694772
-0.255017668462
-0.091736879078
-0.0248977153936
-0.0043155776037
-0.000434381562208
-3.09294678921e-05
-0.0234715480498
-0.0403323404706
-0.071647066191
-0.129671338356
-0.234788809445
-0.405146657277
-0.627552394336
-0.833421248041
-0.998403005602
-1.18403280881
-1.40865232936
-1.82250211909
-1.68847876131
-0.8199951688
-0.369455903014
-0.139239370412
-0.0392060157318
-0.00687786007935
-0.000652515223295
-4.09583089999e-05
-0.0307110091925
-0.0532656821272
-0.0973451443046
-0.177674104583
-0.314567689994
-0.531989238205
-0.856871273994
-1.31577287936
-1.84493701111
-2.55793507142
-3.23096565376
-2.08865027232
-1.14821252367
-0.642752768148
-0.326623023036
-0.133790569317
-0.0399731599332
-0.00744676087224
-0.000707562360181
-4.26197261808e-05
-0.502054527903
-0.637582338389
-0.846856651154
-1.15791088568
-1.59764456434
-2.2018520332
-3.05062247327
-4.29116895041
-5.49503138661
-2.67714321891
-1.41017778499
-0.81451046667
-0.502826650421
-2.03686431136e-15
-4.7343774237e-15
-7.85618256152e-15
-9.13303336295e-15
-2.6172844305e-14
-1.9426733697e-14
-8.58961349158e-14
-4.92863224592e-14
-2.49023160276e-13
-1.19297930287e-13
-6.49953466937e-13
-2.72703609071e-13
-1.56035138739e-12
-5.91701256145e-13
-3.54441165621e-12
-1.24568620912e-12
-7.75621560904e-12
-2.57194812328e-12
-1.65783557929e-11
-5.25756470593e-12
-3.49429682351e-11
-1.07074395833e-11
-7.34210842321e-11
-2.19122398902e-11
-1.54670409419e-10
-4.53316537256e-11
-3.26831583007e-10
-9.4687008873e-11
-6.95601900393e-10
-2.00040174838e-10
-1.51007173802e-09
-4.31412808193e-10
-3.41258255282e-09
-9.65591249796e-10
-8.21829984682e-09
-2.28703836646e-09
-2.13660838409e-08
-5.80537359485e-09
-5.89666330255e-08
-1.55830385243e-08
-1.66638488036e-07
-4.29590994222e-08
-4.60448116018e-07
-1.16044388304e-07
-1.17839123433e-06
-2.92504754766e-07
-2.73082081605e-06
-6.55486443102e-07
-5.41731182768e-06
-1.24043408802e-06
-8.84805358889e-06
-1.97147752489e-06
-1.15613900936e-05
-2.47484167685e-06
-1.18014807972e-05
-2.44115245041e-06
)
;

boundaryField
{
    inletfuel
    {
        type            calculated;
        value           uniform 0;
    }
    inletair
    {
        type            calculated;
        value           uniform 0;
    }
    outlet
    {
        type            calculated;
        value           nonuniform 0();
    }
    axis
    {
        type            empty;
    }
    leftside
    {
        type            calculated;
        value           uniform 0;
    }
    burnerwall
    {
        type            calculated;
        value           uniform 0;
    }
    front
    {
        type            wedge;
    }
    back
    {
        type            wedge;
    }
    procBoundary0to1
    {
        type            processor;
        value           uniform 0;
    }
}


// ************************************************************************* //
