/*--------------------------------*- C++ -*----------------------------------*\
  =========                 |
  \\      /  F ield         | OpenFOAM: The Open Source CFD Toolbox
   \\    /   O peration     | Website:  https://openfoam.org
    \\  /    A nd           | Version:  7
     \\/     M anipulation  |
\*---------------------------------------------------------------------------*/
FoamFile
{
    version     2.0;
    format      ascii;
    class       volScalarField;
    location    "0.1";
    object      ed::R_H2;
}
// * * * * * * * * * * * * * * * * * * * * * * * * * * * * * * * * * * * * * //

dimensions      [1 -3 -1 0 0 0 0];

internalField   nonuniform List<scalar> 
814
(
-6.43198766812e-08
-7.78259149346e-08
-7.94913916211e-08
-7.38235420217e-06
-1.15436590414e-05
-4.65768587253e-05
-0.000396527678568
-0.000934214029616
-0.00891862350196
-0.0142047217248
-0.0672071713727
-1.77942163619
-0.0797559989048
-0.375842289638
-4.02865698779
-0.116974559404
-0.354389773464
-1.7261136866
-0.111322641583
-0.252753055938
-0.672997355213
-0.0891459262374
-0.15254881655
-0.252996636126
-0.0613465304677
-0.0818100814317
-0.0951767421585
-0.0368291464535
-0.0404352638245
-0.0378505193726
-0.0197200433489
-0.0191308280577
-0.0168120862149
-0.00975490068259
-0.00903902575353
-0.00843675521797
-0.00469529227133
-0.00450147794478
-0.00487858652748
-0.00239195338058
-0.00253705764778
-0.00333593381895
-0.0014341067554
-0.00172811188585
-0.00268061306048
-0.00107886721487
-0.00141958864967
-0.00239382064052
-0.000993811520225
-0.00135088887146
-0.00232396525065
-0.00106141734502
-0.00144315519313
-0.00246436423843
-0.00120623268271
-0.001607839928
-0.00265544731537
-0.00133484760974
-0.00172095927736
-0.00268390692721
-0.00138560589301
-0.00171313032344
-0.00249145278498
-0.0013355305557
-0.00158853233599
-0.00216056999812
-0.00125116827013
-0.00144484035545
-0.00187813702128
-0.00124706001679
-0.00143559196491
-0.00186682050457
-0.00156250295652
-0.00182702457692
-0.0024649349718
-0.00212246064155
-0.00250503524134
-0.00341379665639
-0.00264980134654
-0.00309431333619
-0.00416948017821
-0.00245600843297
-0.00279363403883
-0.00357059918287
-0.00192254528738
-0.002117560897
-0.00257332276188
-0.00142719171951
-0.00153565154392
-0.00177456621501
-0.00199013917
-0.00210478077859
-0.00237931446451
-0.0466524717549
-0.048090407718
-0.050924230587
-0.272049674944
-11.5970556382
-3.08450976607
-0.81547252263
-0.23262822193
-0.0779497413642
-0.0342796899916
-0.018372632627
-0.0107323240786
-0.00720534300232
-0.00562281464854
-0.00489179827873
-0.00445386306747
-0.00428156670052
-0.00445746346914
-0.00460069333506
-0.00435196463604
-0.00373083141282
-0.00301651667945
-0.00252020546302
-0.00254960065391
-0.00351470545877
-0.00491626342134
-0.00592499122457
-0.00479705505751
-0.00326023258561
-0.002127046851
-0.00279761915427
-0.0548505715857
-8.63318090999e-05
-1.95018667844e-05
-1.18731533452e-05
-7.53887604976e-06
-4.04677713477e-06
-1.87163182154e-06
-6.84310372939e-07
-1.74476661549e-07
-4.11313202314e-08
-8.93159010117e-09
-1.76292284894e-09
-3.12724122175e-10
-4.91536421606e-11
-6.78970992753e-12
-8.13632175066e-13
-8.33971111858e-14
-7.23279454948e-15
-5.10972965046e-16
-2.93326700371e-17
-2.28356510874e-18
-0.00390098549388
-0.000895270864178
-0.000380303985804
-0.000176224303759
-7.71940076516e-05
-2.71743864838e-05
-6.41194423044e-06
-1.43731513606e-06
-3.02731492196e-07
-5.91898607173e-08
-1.0668939685e-08
-1.73590393438e-09
-2.51853733669e-10
-3.22819667172e-11
-3.61325777926e-12
-3.50117522829e-13
-2.88878878604e-14
-1.98278635214e-15
-1.13124892487e-16
-7.98096157595e-18
-0.0455799568968
-0.00826645818912
-0.00356818085704
-0.00159050127786
-0.00046744954624
-0.000104542954484
-2.3624569597e-05
-5.14133143331e-06
-1.04994741731e-06
-1.97879190565e-07
-3.4585358017e-08
-5.45279463832e-09
-7.64810649164e-10
-9.45871259455e-11
-1.01869922811e-11
-9.52842138748e-13
-7.5877073036e-14
-5.11943908409e-15
-2.87183003966e-16
-1.83338914648e-17
-2.01232247636
-1.54053781787
-0.140484809731
-0.0110351243259
-0.00160313805856
-0.000367453727158
-8.45112484406e-05
-1.83604184337e-05
-3.66929666834e-06
-6.67672462115e-07
-1.13949161166e-07
-1.77122740441e-08
-2.45282452068e-09
-2.98823475751e-10
-3.16195254992e-11
-2.91140374443e-12
-2.28405124932e-13
-1.54856607981e-14
-8.79407645962e-16
-7.77090950202e-17
-5.75501199603
-1.5322641561
-4.18122333523
-0.427008811823
-0.0329086903075
-0.00308036686807
-0.000331300861779
-6.44173592639e-05
-1.22748189287e-05
-2.12753980302e-06
-3.55000895251e-07
-5.53480443181e-08
-7.7581004352e-09
-9.52952141965e-10
-1.01420062996e-10
-9.4052779447e-12
-7.46017431577e-13
-5.20128905996e-14
-3.12008931991e-15
-4.27289590699e-16
-0.856912068563
-0.576496939713
-4.82219908571
-0.639430916655
-0.0522301462286
-0.00563302978498
-0.000934310692196
-0.0001614130904
-3.34785244371e-05
-5.81013127022e-06
-9.6633184855e-07
-1.54223218097e-07
-2.24476535641e-08
-2.85753951246e-09
-3.13885985707e-10
-2.99828082445e-11
-2.45777189982e-12
-1.7867547224e-13
-1.16513714724e-14
-2.13709668748e-15
-0.176658195202
-0.442357139404
-4.41520886476
-0.578533610383
-0.0491269605513
-0.0066446488916
-0.00149088570909
-0.000386259328426
-6.99012190532e-05
-1.31345859943e-05
-2.24484557312e-06
-3.73636082144e-07
-5.7615322255e-08
-7.76934265447e-09
-9.00169783381e-10
-9.03045262553e-11
-7.78360583891e-12
-5.9688170777e-13
-4.28281830009e-14
-9.08186392642e-15
-0.0768506971465
-0.401971808946
-4.54415608708
-0.519104005201
-0.041026507076
-0.00665662345092
-0.00201895238257
-0.000652967040903
-0.000129399580294
-2.56127774391e-05
-4.52755735977e-06
-7.93431696925e-07
-1.31033667448e-07
-1.89875617342e-08
-2.35674347739e-09
-2.52141002672e-10
-2.31643383203e-11
-1.89141816113e-12
-1.49592965314e-13
-3.33337127226e-14
-0.0601588423614
-0.361307198762
-4.28999167277
-0.436338278766
-0.0351544352544
-0.00649998276285
-0.002431538181
-0.000879332329262
-0.000226521051939
-4.0719162665e-05
-8.03117451601e-06
-1.5062899231e-06
-2.67369373202e-07
-4.19303862002e-08
-5.63220418439e-09
-6.4985514838e-10
-6.42897896795e-11
-5.6301757286e-12
-4.89692172429e-13
-1.08534375614e-13
-0.0496875934134
-0.259379144125
-2.41245384796
-0.445501137627
-0.0373473260821
-0.00668085552484
-0.00267111859175
-0.00106506364252
-0.000312886101623
-6.23450674839e-05
-1.32462411768e-05
-2.62274243337e-06
-4.97236061677e-07
-8.45365633152e-08
-1.23619096773e-08
-1.55003008559e-09
-1.66363593466e-10
-1.57155316207e-11
-1.49828724272e-12
-3.20289172879e-13
-0.0326139115775
-0.139279389767
-1.04766941278
-0.698958096149
-0.0539670152983
-0.00770048143787
-0.0027806190634
-0.00118203871563
-0.000388836335841
-8.8767101906e-05
-2.04511858329e-05
-4.25527846106e-06
-8.55994533126e-07
-1.57471810568e-07
-2.51297928255e-08
-3.44042144124e-09
-4.02766186309e-10
-4.12407746466e-11
-4.30431825019e-12
-8.76891259581e-13
-0.0203778277026
-0.0848416199221
-0.64937887279
-1.11236655507
-0.0883122406702
-0.00993689446694
-0.00286751424799
-0.00125309010684
-0.000442505959328
-0.000127910243545
-2.82548734542e-05
-6.50188151218e-06
-1.38392119255e-06
-2.74121827718e-07
-4.77390843529e-08
-7.15476455415e-09
-9.1703166103e-10
-1.02207757635e-10
-1.16881893188e-11
-2.26289846112e-12
-0.015198084642
-0.0677714307716
-0.495884243044
-1.43430650436
-0.131432823513
-0.0138298277559
-0.00308000377856
-0.00131905434752
-0.000501241781821
-0.000160978788324
-3.90195950524e-05
-9.58297795849e-06
-2.13092545125e-06
-4.51081808012e-07
-8.55443839171e-08
-1.40444975238e-08
-1.97515219971e-09
-2.40429668995e-10
-3.01563776351e-11
-5.57054686206e-12
-0.0128857493918
-0.05844572091
-0.390165201074
-1.55958937833
-0.162884883266
-0.0187252974662
-0.00356825513167
-0.00142768722115
-0.000564511499969
-0.000188815605387
-5.54180944717e-05
-1.30190798648e-05
-3.15469602551e-06
-7.09532182272e-07
-1.45863070587e-07
-2.62108027568e-08
-4.04780770884e-09
-5.39418192768e-10
-7.42024078878e-11
-1.31962094346e-11
-0.011566954574
-0.0504616497622
-0.29398254223
-1.49699400547
-0.173937764763
-0.0238524202851
-0.00464572595834
-0.00167948275092
-0.00065273686267
-0.000223660175636
-7.08845169146e-05
-1.7976257133e-05
-4.59858543382e-06
-1.07946359079e-06
-2.38702479106e-07
-4.68341412098e-08
-7.93778299751e-09
-1.15954868025e-09
-1.7471921026e-10
-3.02787950449e-11
-0.0103815109299
-0.0420900171837
-0.204184244071
-0.824650950988
-0.185413811734
-0.0308928764456
-0.00713267756931
-0.00234998575771
-0.000837418232281
-0.000277146789228
-8.95732355699e-05
-2.47837409154e-05
-6.57396725902e-06
-1.60482135846e-06
-3.78108564789e-07
-8.06774249243e-08
-1.49861595438e-08
-2.40062919261e-09
-3.95321170583e-10
-6.76433431627e-11
-0.00971363322791
-0.036376979961
-0.144453823329
-0.465891760528
-0.252983642368
-0.0507468023538
-0.0133680805695
-0.00416765252963
-0.0013009321024
-0.000387684865258
-0.000116592184869
-3.5330967883e-05
-9.05370343947e-06
-2.36078097563e-06
-5.84476005332e-07
-1.35041446675e-07
-2.74783268533e-08
-4.82540126445e-09
-8.65278988814e-10
-1.48021960831e-10
-0.00983459352171
-0.0335946294273
-0.112198768906
-0.321074950094
-0.471077572838
-0.106586806459
-0.0284921073786
-0.00844424588815
-0.00234323784636
-0.000612589893011
-0.000163806696482
-4.79487515481e-05
-1.26461408541e-05
-3.47116366837e-06
-8.93918141806e-07
-2.23173563865e-07
-4.97609641651e-08
-9.56274395965e-09
-1.85562323486e-09
-3.20573810644e-10
-0.00961524315332
-0.0285819488195
-0.0764636230554
-0.17814664114
-0.450551779472
-0.275126894072
-0.0673930279153
-0.0174950655018
-0.00426760420405
-0.000969920488852
-0.000228379843996
-6.17157467353e-05
-1.82674499047e-05
-4.92034129152e-06
-1.39928474091e-06
-3.7644038408e-07
-9.18755096373e-08
-1.92163756486e-08
-3.98956084969e-09
-6.99925640938e-10
-0.00839392003584
-0.0212833447784
-0.047584999431
-0.0985663300004
-0.226882512643
-0.730833551512
-0.169085294572
-0.0368580573455
-0.00745399616248
-0.00138704826842
-0.000289286772893
-7.66206878183e-05
-2.45662124667e-05
-7.56031512528e-06
-2.40177534124e-06
-6.92907524249e-07
-1.82439860412e-07
-4.08418082885e-08
-8.89381180691e-09
-1.58214342306e-09
-0.00653936222541
-0.0141334103136
-0.0280238916922
-0.0551573194517
-0.122105889863
-0.36041327675
-0.379368060975
-0.0731478658424
-0.0114041110814
-0.00162613827918
-0.000322929406337
-9.6705765696e-05
-3.60277365301e-05
-1.40835973557e-05
-4.82051144781e-06
-1.5304278384e-06
-4.12588108445e-07
-9.55428999127e-08
-2.1274841603e-08
-3.81086658942e-09
-0.00489837118349
-0.00968860590468
-0.0189127160932
-0.0398334276425
-0.0988335105449
-0.313659461067
-0.534435217667
-0.0884049019404
-0.0108183834214
-0.00143663425658
-0.000384780772632
-0.000157532097882
-7.14893559272e-05
-3.18250393643e-05
-1.21654382482e-05
-4.11212792331e-06
-1.09977412765e-06
-2.48451962349e-07
-5.51552918665e-08
-9.91392464267e-09
-0.00399745449477
-0.0081398142482
-0.0177637125694
-0.043292592815
-0.118778175962
-0.386570408448
-0.449017815044
-0.0510347387771
-0.00480901349544
-0.0013379049461
-0.000697373983213
-0.000378114624952
-0.00019200030379
-8.83992645292e-05
-3.67106777116e-05
-1.23268605052e-05
-3.37325534861e-06
-7.09112109772e-07
-1.51142290298e-07
-2.7277168442e-08
-0.00428330996406
-0.00993994173451
-0.0247763444012
-0.0655285967161
-0.183282476143
-0.588277163214
-0.263493705139
-0.0230716752485
-0.00405284775733
-0.00264237037007
-0.00188571799847
-0.0011576452205
-0.000613915637334
-0.000283895325361
-0.000115554458947
-4.09006821438e-05
-1.07604235916e-05
-2.22354910223e-06
-4.22995444293e-07
-7.60504680404e-08
-0.00630230268489
-0.0158890958893
-0.0412871593868
-0.111212964536
-0.314628263564
-0.947151599559
-0.167594314303
-0.0203658470848
-0.00796060732709
-0.0067635951286
-0.00549380327607
-0.00369405924215
-0.00208863197959
-0.000990186489535
-0.000397983193681
-0.000136256559916
-3.81936632398e-05
-7.09834671978e-06
-1.19714576644e-06
-2.06665253991e-07
-0.00884045418317
-0.0219847148149
-0.0559216244715
-0.145213426282
-0.38014388494
-0.953767629248
-0.160001308336
-0.0349090028092
-0.0219585169277
-0.0197237713346
-0.0166027156555
-0.0115856583283
-0.00688849077304
-0.00344077921446
-0.00142563205221
-0.000476568920064
-0.000129497489166
-2.33741998022e-05
-3.4833714341e-06
-5.26578357508e-07
-0.0104168466824
-0.0249670470287
-0.0608447640465
-0.148840654551
-0.353492608432
-0.775086928987
-0.213900666414
-0.0851913341848
-0.0691995355724
-0.063904297199
-0.0533472360866
-0.0377026880482
-0.0226904198241
-0.0113628137126
-0.00478263636711
-0.0016460539261
-0.00043499955653
-8.27222689599e-05
-9.30116813438e-06
-1.24438109198e-06
-0.00780106891394
-0.016786467494
-0.0368839935978
-0.0803107496941
-0.168511183978
-0.328356621865
-0.472374309682
-0.258822466552
-0.220796441767
-0.19521152523
-0.152660081898
-0.106019604561
-0.0641669014361
-0.032939109347
-0.0140736325321
-0.00488340818302
-0.00129651873164
-0.000237205080737
-2.28889909617e-05
-2.56253168524e-06
-0.00491377140464
-0.00946429385522
-0.0187040743115
-0.0370316838501
-0.0708250972027
-0.125741951174
-0.199640181444
-0.2636996347
-0.279150659195
-0.283658248923
-0.314601630816
-0.245277775495
-0.13973256632
-0.0723690596004
-0.0321342359449
-0.011559569715
-0.00313730835111
-0.000543796787855
-5.47355000706e-05
-3.89735670037e-06
-0.00295760002659
-0.00508219274652
-0.00902809496936
-0.0163396105342
-0.029585240291
-0.0510516716577
-0.0790765472408
-0.105017645199
-0.125806646824
-0.149197464922
-0.177501294671
-0.229649629604
-0.212761630326
-0.103325853408
-0.0465543553522
-0.0175452579762
-0.0049402669532
-0.000866664572375
-8.22220604142e-05
-5.16106971428e-06
-0.00386982918262
-0.00671189571908
-0.0122662553306
-0.0223883373744
-0.039638007954
-0.0670348364634
-0.107972533272
-0.165797752016
-0.232476602802
-0.322319977327
-0.407127134656
-0.263186394346
-0.144683826705
-0.0809919141308
-0.0411570749218
-0.0168586660978
-0.00503693316821
-0.000938350555618
-8.9158433472e-05
-5.37042137221e-06
-0.0632628270587
-0.0803403992345
-0.106710611872
-0.145905896748
-0.201315805671
-0.277450708327
-0.384402472684
-0.540721105182
-0.692417259427
-0.337341143355
-0.177693514102
-0.102634737716
-0.0633601205809
-2.56660955155e-16
-5.96568865611e-16
-9.89940914998e-16
-1.15083417846e-15
-3.29798464286e-15
-2.44792154216e-15
-1.08235899214e-14
-6.21046504076e-15
-3.13788806724e-14
-1.50324793678e-14
-8.18992589247e-14
-3.43628038392e-14
-1.96616571478e-13
-7.45590212965e-14
-4.4662380114e-13
-1.56966279233e-13
-9.77344291175e-13
-3.24085732294e-13
-2.08900347902e-12
-6.62494586257e-13
-4.4030893728e-12
-1.34922176966e-12
-9.25163522305e-12
-2.76111491003e-12
-1.94896904984e-11
-5.71214561475e-12
-4.11833551217e-11
-1.19313093182e-11
-8.7651321282e-11
-2.52066384869e-11
-1.90280939418e-10
-5.43614136687e-11
-4.30012295207e-10
-1.21672107013e-10
-1.03557054668e-09
-2.88184857646e-10
-2.69229494373e-09
-7.31522823379e-10
-7.43026045977e-09
-1.96358565936e-09
-2.09977627211e-08
-5.41318507513e-09
-5.80200912735e-08
-1.46225074378e-08
-1.48486582078e-07
-3.68579042438e-08
-3.44104943611e-07
-8.25964575252e-08
-6.82623982517e-07
-1.56304470584e-07
-1.11492448109e-06
-2.48421704767e-07
-1.45682626369e-06
-3.11849554777e-07
-1.48707958442e-06
-3.0760444675e-07
)
;

boundaryField
{
    inletfuel
    {
        type            calculated;
        value           uniform 0;
    }
    inletair
    {
        type            calculated;
        value           uniform 0;
    }
    outlet
    {
        type            calculated;
        value           nonuniform 0();
    }
    axis
    {
        type            empty;
    }
    leftside
    {
        type            calculated;
        value           uniform 0;
    }
    burnerwall
    {
        type            calculated;
        value           uniform 0;
    }
    front
    {
        type            wedge;
    }
    back
    {
        type            wedge;
    }
    procBoundary0to1
    {
        type            processor;
        value           uniform 0;
    }
}


// ************************************************************************* //
