/*--------------------------------*- C++ -*----------------------------------*\
  =========                 |
  \\      /  F ield         | OpenFOAM: The Open Source CFD Toolbox
   \\    /   O peration     | Website:  https://openfoam.org
    \\  /    A nd           | Version:  7
     \\/     M anipulation  |
\*---------------------------------------------------------------------------*/
FoamFile
{
    version     2.0;
    format      ascii;
    class       volScalarField;
    location    "0.1";
    object      ed::R_H2O;
}
// * * * * * * * * * * * * * * * * * * * * * * * * * * * * * * * * * * * * * //

dimensions      [1 -3 -1 0 0 0 0];

internalField   nonuniform List<scalar> 
814
(
5.74763162625e-07
6.95453276811e-07
7.10335995762e-07
6.59688026127e-05
0.00010315427083
0.000416211348769
0.00354337592611
0.00834814738362
0.0796969228604
0.126933557774
0.600564061414
15.9009323405
0.712700529512
3.35853105116
36.0001254809
1.045286017
3.16683111828
15.4245718859
0.994780413917
2.25860423387
6.01391215717
0.796609028859
1.36317799068
2.26078086925
0.54819330644
0.731055834752
0.850500469746
0.329105679063
0.361329985637
0.338232679292
0.176218535656
0.170953300993
0.150232997042
0.0871699054277
0.0807728387742
0.0753909422963
0.0419571860919
0.0402252590261
0.0435951056868
0.0213745230994
0.022671176511
0.0298099432247
0.0128151945683
0.0154424278175
0.0239539893407
0.00964076992168
0.0126854606074
0.0213912089558
0.00888071124963
0.012071558594
0.0207669803833
0.00948483768262
0.0128960515126
0.0220215873634
0.0107789092167
0.0143676762098
0.0237291079511
0.0119282136935
0.0153785120253
0.0239834233719
0.0123817903005
0.0153085524024
0.022263650929
0.0119343165066
0.0141951433441
0.0193068785151
0.0111804541461
0.0129111101426
0.0167830541645
0.0111437427467
0.0128284664177
0.0166819296402
0.0139625445079
0.01632631277
0.0220266874435
0.0189663328637
0.0223850239163
0.0305057264415
0.0236786555083
0.0276508197937
0.0372585231406
0.0219469197891
0.0249639461116
0.0319069156334
0.0171798869445
0.0189225486897
0.0229952419903
0.0127534017275
0.013722599974
0.0158575442407
0.0177839066621
0.0188083454036
0.0212615815991
0.416887027676
0.429736440089
0.455059514052
2.43103904469
103.631423437
27.5632149776
7.28707190257
2.0787684842
0.696559791219
0.306323706606
0.164178057846
0.0959041722094
0.0643870284817
0.0502455367921
0.0437131660488
0.0397997719312
0.0382601296016
0.0398319451622
0.0411118489022
0.0388892063683
0.0333387526951
0.0269556279684
0.0225205851928
0.0227832609589
0.0314074486677
0.0439317868464
0.0529457901737
0.0428665395273
0.0291334761272
0.0190073152844
0.0249995571494
0.49014534267
0.000771462045541
0.00017426890735
0.000106098635743
6.73674836548e-05
3.6162047324e-05
1.67249236243e-05
6.11500541454e-06
1.55912546744e-06
3.67549953746e-07
7.9812792541e-08
1.57534989867e-08
2.79450637602e-09
4.39237515376e-10
6.06729265138e-11
7.27062653544e-12
7.45237551007e-13
6.4632335825e-14
4.56606033096e-15
2.62117079023e-16
2.04059642475e-17
0.0348592515333
0.00800015080644
0.00339840081975
0.00157474241846
0.000689806546014
0.000242830632204
5.72972078714e-05
1.28438646949e-05
2.70521211885e-06
5.28921280584e-07
9.53377685343e-08
1.55120576534e-08
2.25056787966e-09
2.88472028298e-10
3.22881133445e-11
3.12865423716e-12
2.58142500342e-13
1.77182017965e-14
1.01088534886e-15
7.13179650347e-17
0.407303022488
0.073869166075
0.0318853054457
0.0142127378315
0.00417713455665
0.000934197051512
0.00021110942741
4.59429972069e-05
9.38234227587e-06
1.76825073764e-06
3.09055159619e-07
4.87262360126e-08
6.83435681479e-09
8.45231652442e-10
9.10310809544e-11
8.51460838247e-12
6.78038403044e-13
4.57473669208e-14
2.56627064803e-15
1.63831866372e-16
17.9821369445
13.7662637746
1.25537388609
0.0986099987245
0.0143256602501
0.00328357075973
0.000755193494414
0.000164068911674
3.27888775061e-05
5.9663288508e-06
1.01825102332e-06
1.58277085905e-07
2.19184683121e-08
2.67029003865e-09
2.82552445906e-10
2.60163375643e-11
2.04103084053e-12
1.38380044162e-13
7.85839690482e-15
6.94409372703e-16
51.4268538197
13.6923302373
37.3634601277
3.81575568573
0.294072437557
0.0275261939931
0.00296050833617
0.000575634268113
0.000109687924047
1.90117203093e-05
3.17229210965e-06
4.94590764766e-07
6.9326475301e-08
8.51559137249e-09
9.06290857025e-10
8.40456725944e-11
6.66642040488e-12
4.64787792528e-13
2.78811542826e-14
3.81826472903e-15
7.65737616476
5.15158332712
43.0912268543
5.71396207363
0.466729191343
0.0503368193696
0.00834901116155
0.00144238924442
0.000299164481936
5.19194002919e-05
8.63515258542e-06
1.37814046229e-06
2.00592492115e-07
2.55350061637e-08
2.80488880199e-09
2.67926721571e-10
2.19626781493e-11
1.59664608838e-12
1.0411679036e-13
1.90971207395e-14
1.57861967742
3.95290851868
39.4543575283
5.16978303981
0.438999088207
0.0593766594175
0.0133225719557
0.00345161783036
0.000624638102674
0.000117370812498
2.00599660289e-05
3.33881635545e-06
5.14851186657e-07
6.94269359025e-08
8.04392760515e-09
8.06962292032e-10
6.95543918838e-11
5.33374185046e-12
3.82713139099e-13
8.11556411831e-14
0.686738719367
3.59202473819
40.6066313998
4.63871939991
0.366613342177
0.0594836642182
0.0180413818631
0.00583492103661
0.00115631614751
0.000228876075703
4.04583049804e-05
7.09011482892e-06
1.17091836923e-06
1.69673071468e-07
2.10598869969e-08
2.2531349188e-09
2.06996795393e-10
1.69017345839e-11
1.33676446982e-12
2.97870442778e-13
0.537580111774
3.22864531083
38.3354152512
3.89912391034
0.3141404404
0.0580839212162
0.0217282533342
0.00785772387392
0.00202419474245
0.000363866908962
7.17666684483e-05
1.34602241905e-05
2.38921581415e-06
3.74690416494e-07
5.03294417932e-08
5.807113129e-09
5.7449430483e-10
5.03113154887e-11
4.37589492177e-12
9.69864436938e-13
0.444008909953
2.31781503461
21.5577155132
3.9810033232
0.333736138223
0.0597002023112
0.0238691466582
0.00951742103936
0.00279595382625
0.000557116244777
0.000118368564501
2.34368567469e-05
4.44330720343e-06
7.55419708426e-07
1.10466167985e-07
1.38510867888e-08
1.48662699713e-09
1.40434172494e-10
1.3388712146e-11
2.86210775669e-12
0.291438291413
1.24460223934
9.36198600099
6.24589763871
0.482249873457
0.0688115912738
0.0248476441405
0.0105627116468
0.00347464599846
0.000793223850249
0.000182752033357
3.80252175895e-05
7.64917705748e-06
1.40716992221e-06
2.24560119605e-07
3.07436458271e-08
3.5991233035e-09
3.68528039667e-10
3.84634377129e-11
7.83591044699e-12
0.182096504255
0.758145697797
5.80285712482
9.94012041346
0.78915920498
0.0887962039915
0.025624140516
0.0111976277011
0.00395423837525
0.00114300741707
0.000252485876281
5.81008884622e-05
1.23667357977e-05
2.44955582587e-06
4.26597010431e-07
6.39350588834e-08
8.19460553902e-09
9.13329705439e-10
1.04445795062e-10
2.02212868451e-11
0.135810260302
0.605606289934
4.43122733647
12.8169795273
1.17448523245
0.123583500929
0.027522949421
0.0117870849195
0.004479102365
0.00143850831604
0.0003486795531
8.56336019748e-05
1.90419745011e-05
4.03087225836e-06
7.64425604992e-07
1.25501792459e-07
1.7649982922e-08
2.14848230549e-09
2.69477739654e-10
4.9778471247e-11
0.115147205737
0.522271638652
3.48652075356
13.9365087394
1.45554120251
0.167329474932
0.0318859691646
0.0127578295359
0.00504448129882
0.00168725843557
0.00049521673375
0.000116338648388
2.81904002045e-05
6.34038779472e-06
1.30343408736e-06
2.34220036866e-07
3.61712565459e-08
4.82024721518e-09
6.63073575893e-10
1.17921480274e-10
0.103362439979
0.450925886447
2.62703140067
13.3771557629
1.55430987952
0.213145503797
0.0415142609452
0.0150078773048
0.00583286416126
0.00199862991869
0.000633424863747
0.000160636041843
4.10930126724e-05
9.64609914376e-06
2.13304811664e-06
4.18510428028e-07
7.09321207579e-08
1.03617404303e-08
1.56129288553e-09
2.70571663045e-10
0.0927693018513
0.376116880811
1.82459276876
7.36909044464
1.65685996811
0.276059101551
0.0637376893312
0.0209994999356
0.00748317901808
0.00247658691694
0.000800427470002
0.00022146779573
5.87450475305e-05
1.43407022375e-05
3.37878251214e-06
7.2093440309e-07
1.33916495171e-07
2.14520502561e-08
3.53259455679e-09
6.04461697578e-10
0.086801138975
0.325065114051
1.29084103755
4.1632141655
2.26066475688
0.453474013306
0.119457322725
0.0372421912518
0.0116251443273
0.00346435644399
0.00104186911373
0.000315717938013
8.09039987458e-05
2.10959661279e-05
5.22288434986e-06
1.2067319308e-06
2.45546646865e-07
4.31198415606e-08
7.73214306098e-09
1.32272595557e-09
0.0878820415607
0.300201997472
1.00260949782
2.86912947098
4.20955464433
0.952460936427
0.254605801376
0.0754578790117
0.0209392005217
0.00547411037562
0.00146377853608
0.000428470598914
0.000113006061071
3.10183587247e-05
7.98806286366e-06
1.99428155027e-06
4.4466455184e-07
8.54527907269e-08
1.65818707085e-08
2.86465128306e-09
0.0859219241294
0.255408625531
0.683279820808
1.59192044755
4.0261359172
2.45853711044
0.60222487763
0.156336107857
0.0381353605715
0.00866722071672
0.0020408049298
0.000551492627282
0.000163238143823
4.39682267416e-05
1.25040246437e-05
3.36387563002e-06
8.2100061772e-07
1.71717755255e-07
3.56507619382e-08
6.25454363014e-09
0.0750081666129
0.190188215328
0.425220105785
0.880789865941
2.02742475949
6.53073707684
1.51094814972
0.329364027128
0.0666089959994
0.0123946793838
0.00258506995151
0.000684683353347
0.000219523958994
6.75590634818e-05
2.14622922536e-05
6.19182965817e-06
1.63028470466e-06
3.64962871673e-07
7.94752052662e-08
1.41380519442e-08
0.0584358165495
0.126296318178
0.250421820582
0.492886445152
1.09113964538
3.22065721338
3.39003738464
0.653650175967
0.101907268643
0.0145311904878
0.00288570091344
0.000864163841778
0.000321944270709
0.00012585118901
4.30761461025e-05
1.3675920881e-05
3.68689211341e-06
8.53772459677e-07
1.90112230854e-07
3.40539479597e-08
0.0437719016018
0.0865774945248
0.169004249953
0.355951970547
0.88317739438
2.80286457519
4.77571929199
0.789987227163
0.0966731994934
0.0128377803481
0.00343840543867
0.00140770865035
0.000638829712165
0.000284388920184
0.00010871049702
3.67460227269e-05
9.82759433627e-06
2.22016961176e-06
4.92868326627e-07
8.85909453759e-08
0.035721299642
0.0727374743529
0.158736741163
0.386863110573
1.06140315544
3.45439764505
4.01242839331
0.456047016518
0.0429734002671
0.0119555340866
0.00623174198717
0.00337883666583
0.00171571693737
0.000789936851191
0.000328047041014
0.000110152968177
3.01434488458e-05
6.33663402199e-06
1.35060925581e-06
2.43749092973e-07
0.0382757074248
0.0888234344098
0.221401700393
0.58556429885
1.63781432859
5.2568515407
2.35458279947
0.206168757111
0.0362162944775
0.0236122522165
0.0168507978644
0.0103447310919
0.00548595724224
0.00253689191396
0.00103259598288
0.000365488969126
9.61552697832e-05
1.98696605185e-05
3.77989218703e-06
6.79587862811e-07
0.0563174497511
0.141985144808
0.368942534243
0.993800338558
2.81152180551
8.46375765841
1.49762473278
0.181989445316
0.0711360792312
0.0604395643683
0.0490926896743
0.0330101561523
0.0186640395487
0.00884831793343
0.003556382426
0.00121759019679
0.000341299016862
6.34309084623e-05
1.06977084277e-05
1.84676310213e-06
0.0789984009228
0.196455666093
0.499716283657
1.29762885833
3.39697015658
8.5228785763
1.42977354356
0.311947253229
0.19622156147
0.176251848979
0.148362059299
0.103529576943
0.0615556332928
0.0307468428928
0.0127394645224
0.00425862538672
0.00115719106232
0.000208872120025
3.11274474605e-05
4.70551029865e-06
0.0930850625451
0.22310582128
0.543709515892
1.33004181213
3.15881404117
6.92618577026
1.9114188313
0.761270748497
0.618367850967
0.571049539562
0.476711519247
0.336911656866
0.202761854225
0.101538234878
0.0427376939429
0.0147091569393
0.00388716107295
0.000739207153064
8.31153461243e-05
1.11198038436e-05
0.0697104421244
0.150004067856
0.329595793779
0.717657788988
1.50581789081
2.93419857422
4.22114229978
2.31284055738
1.97303955969
1.74441244933
1.36417225912
0.947392413695
0.573396174064
0.294344262446
0.125762143231
0.0436381920565
0.0115857063952
0.00211966734748
0.000204536288209
2.28988128045e-05
0.0439095181564
0.0845730394541
0.167139824576
0.330915555584
0.632893888514
1.12363153135
1.78398697253
2.35642298841
2.49449352217
2.53477339616
2.81128381497
2.19180504129
1.24865183026
0.646690754373
0.287151904407
0.103296448793
0.0280350237447
0.00485937439156
0.000489117062279
3.48268245925e-05
0.0264291480764
0.0454145332171
0.0806751611603
0.14601094889
0.264374049736
0.456198328935
0.706628941577
0.93843889324
1.12420965243
1.33323027373
1.58615362403
2.05215174869
1.90124039164
0.923321022207
0.416010258366
0.156784628389
0.044146282685
0.00774452465172
0.000734737283709
4.61193787142e-05
0.0345808383752
0.0599775778463
0.109611399635
0.200062441957
0.354205697948
0.599024074668
0.964843807266
1.48157063138
2.07741361392
2.88025504875
3.63809278841
2.35183666667
1.29289635038
0.723744682279
0.367780097958
0.150649235415
0.0450100931014
0.00838511142786
0.000796720793653
4.7990147553e-05
0.565317354962
0.717922737624
0.953567263026
1.30381678243
1.79896037001
2.47930274153
3.43502494595
4.83189005559
6.18744864604
3.01448436227
1.58787129909
0.917145204386
0.566186771002
2.29352526651e-15
5.33094628931e-15
8.84612347652e-15
1.02838675414e-14
2.94708289478e-14
2.18746552392e-14
9.67197248372e-14
5.54967875e-14
2.80402040948e-13
1.34330409655e-13
7.31852725862e-13
3.0706641291e-13
1.75696795887e-12
6.66260277442e-13
3.99103545735e-12
1.40265248836e-12
8.73355990021e-12
2.89603385558e-12
1.86673592719e-11
5.92005929219e-12
3.93460576079e-11
1.2056661353e-11
8.26727194552e-11
2.46733548002e-11
1.74160099917e-10
5.10437993403e-11
3.68014938128e-10
1.06618318191e-10
7.83253221675e-10
2.25246813325e-10
1.70035267744e-09
4.85774221861e-10
3.84259484803e-09
1.08726335681e-09
9.2538703935e-09
2.57522322411e-09
2.40583787847e-08
6.53689641823e-09
6.63968934853e-08
1.75466241836e-08
1.87636250757e-07
4.83722844974e-08
5.18468207292e-07
1.30666895742e-07
1.32687781641e-06
3.2936265901e-07
3.07492575966e-06
7.38082900627e-07
6.0999358102e-06
1.3967385586e-06
9.96297806997e-06
2.21989922966e-06
1.30182163573e-05
2.78669123162e-06
1.32885603816e-05
2.74875689716e-06
)
;

boundaryField
{
    inletfuel
    {
        type            calculated;
        value           uniform 0;
    }
    inletair
    {
        type            calculated;
        value           uniform 0;
    }
    outlet
    {
        type            calculated;
        value           nonuniform 0();
    }
    axis
    {
        type            empty;
    }
    leftside
    {
        type            calculated;
        value           uniform 0;
    }
    burnerwall
    {
        type            calculated;
        value           uniform 0;
    }
    front
    {
        type            wedge;
    }
    back
    {
        type            wedge;
    }
    procBoundary0to1
    {
        type            processor;
        value           uniform 0;
    }
}


// ************************************************************************* //
