/*--------------------------------*- C++ -*----------------------------------*\
  =========                 |
  \\      /  F ield         | OpenFOAM: The Open Source CFD Toolbox
   \\    /   O peration     | Website:  https://openfoam.org
    \\  /    A nd           | Version:  7
     \\/     M anipulation  |
\*---------------------------------------------------------------------------*/
FoamFile
{
    version     2.0;
    format      ascii;
    class       volScalarField;
    location    "0.1";
    object      epsilon;
}
// * * * * * * * * * * * * * * * * * * * * * * * * * * * * * * * * * * * * * //

dimensions      [0 2 -3 0 0 0 0];

internalField   nonuniform List<scalar> 
814
(
17413.702452
21727.4285057
55911.1818085
22049.5706908
26153.9014843
47782.3497889
23535.3577321
29603.8980763
45360.7350855
28430.8126593
50982.1700431
142171.802379
35888.8534776
76417.6413391
228304.248086
45899.4878928
105350.912844
283173.382625
58361.7732928
134186.304977
311516.220994
73270.6311543
160687.591308
321159.111752
90463.3233572
182928.626949
317130.925744
108291.565405
197391.633542
301563.457056
123628.980665
201300.147484
277514.296284
133103.029313
194626.171401
248421.241361
134433.471806
179128.247133
216002.97602
127228.083701
157260.802682
181455.474875
112633.969668
131382.904261
146171.559772
92928.7956832
103756.834568
111835.289477
71222.7250823
76959.8341354
80629.7344648
50993.3760657
53773.6125832
54971.7105855
35070.0917241
36403.0000577
36639.295925
24440.8800761
25179.6782116
25283.130719
18186.4432806
18733.4739629
18975.1547216
14828.5423619
15336.7561752
15769.644686
13206.8939667
13735.0556094
14354.2787363
12531.29005
13062.0967128
13783.456541
12188.1028826
12667.1090888
13356.3279639
11720.537273
12090.8996253
12620.5363141
10979.0686876
11221.7084901
11542.334896
9895.23863632
10030.4622184
10192.5281145
8627.14356104
8696.40848324
8768.67068311
7467.77566802
7497.05410606
7515.91873641
6983.83248068
6996.4505089
6990.82119392
7260.42945405
7249.85125538
7180.31044671
1244.67296592
107162.392249
205880.392748
269846.171482
297783.025782
301416.902046
287868.699139
264843.829515
237359.916934
206607.511555
173370.187855
138984.159602
105328.453669
74946.2784074
50431.2815595
33511.845405
23418.9102352
18012.2564426
15449.063526
14492.1012426
14188.5279854
13817.9138822
12948.9298558
11680.6091908
10216.5682667
8749.92146543
7480.6758942
6953.97923415
7076.90264371
0.813137047377
0.351209813217
0.316204908657
0.318808535937
0.293669778423
0.267521446919
0.23188245733
0.200455461394
0.172271251974
0.148502404237
0.12875114687
0.112374541661
0.0987977484068
0.0880189103148
0.0792851901795
0.0726751111954
0.06782021723
0.0643153572187
0.0653368837746
0.227880626345
0.980454453645
0.824509030041
0.894868168737
0.753005331718
0.611371556653
0.489882672728
0.380961003
0.300839278792
0.241068881742
0.196026935082
0.162575438713
0.136291848015
0.115837714099
0.0997564085768
0.0873135745562
0.0777499220441
0.0709977115751
0.0661063820242
0.0690051793901
0.237297679909
3.49453773597
2.01922691761
1.55885128336
1.49677333288
1.04493654117
0.767806940027
0.540153985307
0.39225624122
0.295148163303
0.229124935994
0.183961783274
0.150591705647
0.125535221925
0.106439218404
0.0917831439162
0.0808027086471
0.0728792932457
0.0675367906683
0.0715140223693
0.246646384687
607.986009566
42.16795593
7.83697057873
3.45369326826
2.07714628197
1.33845928413
0.826085001533
0.531302937
0.365828148599
0.266249711201
0.205299956776
0.16373122609
0.133968345111
0.112171879324
0.0955697423001
0.0835200722327
0.0745912367932
0.0691621643184
0.0734344816957
0.349419463686
13445.7813266
2782.77266554
269.999543479
38.6597823882
10.3146856602
3.42455296343
1.51286683608
0.777199782458
0.472644376682
0.314242885879
0.230130707861
0.177783563645
0.142633324109
0.11786932811
0.0993206388031
0.0861654378074
0.0763161369741
0.0707112952755
0.0757401782898
0.440032810536
30886.6498437
4125.90453652
412.510715217
55.623961814
13.9623752425
4.96565183279
2.1891525045
1.09892191771
0.621365837738
0.380036856489
0.262151752629
0.194731637074
0.152639787273
0.124153351135
0.103413530678
0.0889156443501
0.0781534035799
0.0720921417949
0.0791002478296
0.558248871123
50034.5764582
5435.77518761
465.569149571
57.5481617449
14.587863686
5.80730170183
2.80761870828
1.47839577419
0.808401606465
0.467505167323
0.304025600007
0.216186519101
0.164780194369
0.13149260253
0.108097621817
0.0919736932913
0.0802219834333
0.0735830576788
0.0833550326861
0.664363858275
76711.4300285
8622.52514485
567.759498161
60.2014678745
14.6599417001
6.30201255406
3.35014285633
1.86136207182
1.01616233893
0.574074130165
0.356542616737
0.243213600001
0.179644502067
0.140245555629
0.113548156307
0.0954970073778
0.082604734748
0.0754217073972
0.0882375978245
0.743244940222
105311.615831
12048.477283
614.733247468
61.3245309893
14.9065750698
6.72393940428
3.80300017956
2.20527143836
1.22272005674
0.694305441975
0.419611694274
0.276521364982
0.197711987308
0.150662352697
0.119867710297
0.0995372977786
0.0853050340797
0.0776193273013
0.0935590216918
0.794453996253
125046.089319
15489.8431976
766.057853828
70.6890610682
16.381287597
7.18290115438
4.14787344118
2.48542052466
1.42240990406
0.823481307399
0.493047507297
0.316757020412
0.219531714682
0.163041787984
0.127190904861
0.104131393001
0.088313702647
0.0801087819149
0.0990987708256
0.826289450694
133518.652925
19660.6747554
1267.44353185
103.877769749
20.3247910658
7.83032859092
4.43311838474
2.71979559041
1.61227993662
0.958309559618
0.576240128606
0.36433608822
0.245759532299
0.177804703581
0.13574651064
0.109372525079
0.0916608954045
0.0828650353678
0.104900566089
0.841755778331
132136.175507
23046.5723846
1862.00279212
156.588377535
26.6548385198
8.81875798958
4.73693552393
2.93415200823
1.79495874983
1.09104820491
0.667251397099
0.419379310418
0.277069256226
0.195459309876
0.145855911666
0.115419159831
0.0954207519782
0.0859044621815
0.111097029783
0.8427683068
122275.418707
24588.0357782
2381.34714466
215.973703955
35.1590408648
10.3679467571
5.13680647178
3.14369513933
1.96085746063
1.22123964365
0.762628856878
0.481168602921
0.313854620848
0.216542724158
0.157913930794
0.122491039053
0.0997057528917
0.0892607206906
0.117671514823
0.832034961449
106158.363224
23922.7885115
2639.77430901
269.082184032
46.0039965574
12.7957914674
5.73233289685
3.3731119877
2.11619838538
1.34771840106
0.858044142724
0.548773232539
0.356313389919
0.241644037096
0.172389907759
0.130883232709
0.104675182281
0.0929865090309
0.124477140634
0.812820993228
86335.4340689
20812.5225872
2500.34669146
301.683376878
60.5027484927
16.8037285638
6.78139441226
3.70308125304
2.28464092257
1.4710059467
0.95501901804
0.620837928971
0.404303669758
0.271268014793
0.189814892864
0.140981377801
0.110553266645
0.0971691017389
0.131358296421
0.788151239977
65278.2051856
16426.9482504
2172.30605176
329.898620372
83.9655181428
24.2129545294
8.97454493005
4.37111265543
2.54816743409
1.61507868528
1.05672766835
0.696858353752
0.457566630485
0.305726839294
0.210801023163
0.153278173785
0.117651746659
0.101946675983
0.138210308235
0.760288003657
46044.0730631
12051.9846412
1805.93358851
364.979092716
126.116492545
40.3965386854
14.071718151
5.9744341696
3.09154044471
1.83627200693
1.17551030523
0.776032224173
0.515553064603
0.345250389514
0.236025165623
0.168408642354
0.126399322136
0.107529079126
0.144995965869
0.730584638021
31132.2726601
8760.20420708
1613.36544487
467.534279517
206.15413701
78.164145854
26.4502422821
9.8065720989
4.25797836113
2.22331131838
1.32871900943
0.862051258594
0.577339481091
0.38991399242
0.266174311309
0.187246506482
0.137398015455
0.114231244734
0.151758923156
0.699884652123
21624.6749576
6953.27043657
1800.38481445
707.233283125
361.901492634
165.909888335
55.5315831337
18.1191608473
6.44204045487
2.81321303796
1.51531869013
0.953555275381
0.641218473948
0.440294730085
0.30242793951
0.211012342393
0.151522591731
0.122528783658
0.15864919642
0.668860420697
16373.4587203
6494.39122156
2381.47965502
1165.16956985
636.669696087
329.186037216
117.803805236
33.5059578797
9.72689627708
3.49594288724
1.69922140577
1.04375019239
0.71118753695
0.498983250973
0.347184152197
0.241543890559
0.170159188176
0.133154841077
0.165958674748
0.638127748062
13889.6565443
7076.05680794
3439.92972239
1955.40624087
1083.17221928
537.193172896
211.638715999
52.8904650233
12.468070418
3.88732781609
1.82369569493
1.14248008542
0.800534417415
0.574219982818
0.406295328634
0.282508763439
0.195530578788
0.147327489186
0.174185260843
0.608306925698
13223.5737469
8466.45111078
5039.00979366
3037.39254233
1579.35046047
691.558634595
272.562055426
59.5895318427
12.1413142116
3.78188264109
1.94661749687
1.30110959344
0.93931853115
0.684253641054
0.489936800046
0.340139389782
0.23135890086
0.167043343116
0.184162629651
0.580031488603
13539.6999115
10165.3795541
6728.69561153
3962.81201336
1831.05718935
706.282095311
249.843522199
43.0137526259
8.59923063348
3.59957133585
2.29386454459
1.64392581798
1.2028455717
0.872328258193
0.620622199544
0.427429102918
0.284647402657
0.195807807372
0.197295305338
0.554102019976
14006.3204996
11458.5695366
7796.37146905
4278.24745377
1729.06241692
582.320414097
168.936733224
27.8986747139
7.76693563531
4.59832326293
3.38945805813
2.47962871053
1.77237148973
1.23505988626
0.847391943681
0.567053318161
0.366755360183
0.239331863372
0.21598253291
0.531558845503
13911.3243304
11556.1823963
7621.81176735
3839.17884737
1399.93554564
416.102967372
111.323652603
24.8143614254
10.2386396174
7.69276884597
6.32748334733
4.68072499348
3.2050033482
2.07343869789
1.30894854724
0.821137615721
0.503905840949
0.308481866194
0.244276084468
0.51383059843
12908.6893065
10667.1438885
6918.49678635
3392.97150057
1221.9464094
366.90844102
108.859620348
33.1915333476
18.3106654942
15.7296895464
14.203809008
11.0410876867
7.48325903031
4.42904987029
2.45709257957
1.34980833366
0.752242884302
0.422800964185
0.288475635293
0.502834904392
11449.6868158
9380.97098416
6062.48302757
2974.69958612
1111.32924067
367.705936794
131.056900996
58.3672522413
41.6202711702
38.7157300014
36.5090857555
29.8795086871
21.1608113339
12.2784890199
5.94121580461
2.6991110547
1.27599735709
0.627110698689
0.360234815128
0.501457726176
9919.33315087
8215.4834212
5531.16884065
2940.85842646
1269.28114546
511.592391819
228.814110406
135.811775589
112.435872278
105.860477236
96.9488115896
80.4441911947
59.0692120636
36.0915426088
17.2373786909
6.5786039738
2.44706070344
0.985836358085
0.467052557242
0.511386446855
8486.91321617
7168.85665262
5080.84647689
2976.69258197
1510.60248252
774.331891932
468.361075744
356.532181317
308.152123862
270.649254314
227.190857291
181.702202934
134.898914641
88.3887930366
45.8138979991
16.9580912158
5.04031901394
1.5998480841
0.618208865228
0.534824666562
7276.64521343
6369.98468461
4900.58685603
3328.86408479
2128.6651579
1435.17568539
1068.5306954
836.722992083
646.056975285
484.48262768
355.369724671
263.011815947
196.96490097
140.431048318
83.5525444976
33.4340822486
8.78547615466
2.30445894252
0.759487696682
0.561123645413
6793.02870329
6196.64836672
5247.46645111
4147.38126925
3126.70333337
2290.38586181
1627.21434622
1099.95108538
712.104462197
448.2267341
284.071799671
191.841079592
146.193675907
125.496550269
96.2292224644
43.5859768732
10.9053555854
2.69510736527
0.833691433324
0.577783714556
6771.53404242
6032.32583803
5006.25652016
3848.92886363
2750.08220339
1835.36328526
1156.16400294
682.106694175
396.814731652
232.239344228
137.56211916
88.1241085751
68.9712898575
1.4802272729
3.08365851593
7.35714651334
4.08477761982
8.22665944907
4.71012125207
7.80764681801
4.65444583304
7.03746055622
4.40901144512
6.17131900756
4.12041142602
5.39380844341
3.82706156164
4.72562701891
3.54349456674
4.16631824088
3.27547355975
3.69996188754
3.02549713505
3.31059626511
2.79414599706
2.98266751219
2.58129764272
2.70314702633
2.3871402026
2.4635211064
2.21122479885
2.2577028999
2.05281089694
2.080648739
1.91116899121
1.9281091779
1.78571783829
1.79663118832
1.67600712423
1.68340246799
1.58166885521
1.58628855701
1.50247417453
1.50359292193
1.43814514445
1.43439705471
1.38892430694
1.37933198364
1.35443521643
1.34011615949
1.33488063085
1.32076075716
1.32645547297
1.32356281356
1.32669133895
1.34741951744
1.32664698874
1.38758484104
1.31880918708
)
;

boundaryField
{
    inletfuel
    {
        type            turbulentMixingLengthDissipationRateInlet;
        mixingLength    0.005;
        phi             phi;
        k               k;
        value           uniform 1630.0935556;
    }
    inletair
    {
        type            turbulentMixingLengthDissipationRateInlet;
        mixingLength    0.005;
        phi             phi;
        k               k;
        value           uniform 0.0603738353925;
    }
    outlet
    {
        type            inletOutlet;
        inletValue      nonuniform 0();
        value           nonuniform 0();
    }
    axis
    {
        type            empty;
    }
    leftside
    {
        type            epsilonWallFunction;
        value           nonuniform List<scalar> 
33
(
1.4802272729
3.08365851593
0.227880626345
0.237297679909
0.246646384687
3.08365851593
4.08477761982
4.71012125207
4.65444583304
4.40901144512
4.12041142602
3.82706156164
3.54349456674
3.27547355975
3.02549713505
2.79414599706
2.58129764272
2.3871402026
2.21122479885
2.05281089694
1.91116899121
1.78571783829
1.67600712423
1.58166885521
1.50247417453
1.43814514445
1.38892430694
1.35443521643
1.33488063085
1.32645547297
1.32669133895
1.32664698874
1.31880918708
)
;
    }
    burnerwall
    {
        type            epsilonWallFunction;
        value           nonuniform List<scalar> 7(55911.1818085 47782.3497889 45360.7350855 0.813137047377 0.980454453645 3.49453773597 1244.67296592);
    }
    front
    {
        type            wedge;
    }
    back
    {
        type            wedge;
    }
    procBoundary0to1
    {
        type            processor;
        value           nonuniform List<scalar> 
27
(
3192.48643441
3146.97361868
3043.66553824
2917.72454354
71.5360695307
74.6917017973
38.8800827095
9.24289316002
2.33553330526
0.76040098736
0.567435948082
2646.58926389
2198.83230288
1702.93550107
1236.82300181
851.534353889
558.441241311
362.803291193
228.10397425
134.215189716
77.3555821675
48.0293145771
35.0617618331
71.5360695307
32.4608924601
1.43838514058
1.296125123
)
;
    }
}


// ************************************************************************* //
