/*--------------------------------*- C++ -*----------------------------------*\
  =========                 |
  \\      /  F ield         | OpenFOAM: The Open Source CFD Toolbox
   \\    /   O peration     | Website:  https://openfoam.org
    \\  /    A nd           | Version:  7
     \\/     M anipulation  |
\*---------------------------------------------------------------------------*/
FoamFile
{
    version     2.0;
    format      ascii;
    class       volScalarField;
    location    "0.1";
    object      H2;
}
// * * * * * * * * * * * * * * * * * * * * * * * * * * * * * * * * * * * * * //

dimensions      [0 0 0 0 0 0 0];

internalField   nonuniform List<scalar> 
814
(
0.999999967883
0.999999974894
0.999999990263
0.999996382513
0.999996154178
0.999996819481
0.999799166413
0.999654451212
0.999137232698
0.993307780621
0.979244334374
0.827120419055
0.982469510002
0.955542822953
0.799517492466
0.966864023373
0.927450922679
0.765369923688
0.945683889937
0.894931438064
0.735442953299
0.917667177338
0.857742684646
0.707555393882
0.880861823124
0.815583594904
0.678906655888
0.834680394121
0.769269076156
0.64873702613
0.78122777548
0.72093116271
0.617786542768
0.724497917739
0.67287691687
0.586756458607
0.668538086977
0.626620494802
0.555723856473
0.615667122622
0.582480582686
0.524223415225
0.565678450204
0.539258851364
0.490760922161
0.516784374288
0.495117008012
0.45372961818
0.467303195016
0.448901330772
0.412716026431
0.417420440402
0.401454581815
0.369492262787
0.369889985997
0.356071832049
0.328162134216
0.328787902498
0.31705910116
0.293355040397
0.296729975177
0.287087169947
0.267644602869
0.273930747363
0.266281797586
0.250906649565
0.258512993392
0.252581717695
0.240660698989
0.248234227555
0.243635595065
0.234315419664
0.240311913731
0.236533617382
0.2287385325
0.23261973635
0.229196058954
0.22202030975
0.224860028853
0.221604947145
0.214728998209
0.218755323412
0.215865972443
0.209719563046
0.213197783357
0.210768058954
0.205573576011
0.204711798391
0.202779599733
0.198642349609
0.186220443197
0.184625163059
0.181227708452
0.130468727154
0.129132875787
0.126308198224
0.304026798055
0.408057923366
0.477182084376
0.513788351342
0.530891048652
0.533356787932
0.52630073701
0.514127275436
0.498894665699
0.480880207297
0.459876046232
0.434548313592
0.40372367871
0.367719283807
0.329195293697
0.292929824465
0.263638322007
0.243487781
0.231937575495
0.225949674709
0.222653720865
0.218718150074
0.212565850852
0.2055232523
0.201422555022
0.198527712458
0.193046396404
0.176596457921
0.122565141963
3.04681655935e-06
2.35834200416e-06
1.13766559841e-06
4.63753385228e-07
1.68909434996e-07
5.62538106612e-08
1.71371451097e-08
4.86400642943e-09
1.27438514169e-09
3.05574844937e-10
6.59515905322e-11
1.2668655907e-11
2.13401838209e-12
3.12183429992e-13
3.92161679914e-14
4.16730199174e-15
3.71040803381e-16
2.66826288243e-17
1.47939676745e-18
3.3497974635e-20
0.000157408964764
6.59481332539e-05
1.96106092497e-05
5.73215396112e-06
1.63740018264e-06
4.64905545063e-07
1.2903637107e-07
3.37061990575e-08
8.16675633096e-09
1.81134296336e-09
3.64346173026e-10
6.53178283193e-11
1.03048311221e-11
1.41800001145e-12
1.6829563435e-13
1.70853745413e-14
1.45864995449e-15
1.0242862231e-16
5.47348601178e-18
1.15159545347e-19
0.00240671326129
0.000290856092518
7.36267324379e-05
1.98140434333e-05
5.24285937066e-06
1.4529181417e-06
4.0752062953e-07
1.08036842429e-07
2.61885829378e-08
5.71860330491e-09
1.13071990168e-09
1.98262845478e-10
3.04618991556e-11
4.06771279998e-12
4.67064187049e-13
4.59537241143e-14
3.80229712071e-15
2.62671176475e-16
1.35492869678e-17
2.60985756884e-19
0.0444119714572
0.00130845903254
0.000234917066495
5.32832117953e-05
1.16695716337e-05
3.75265008935e-06
1.16605422465e-06
3.32451409275e-07
8.31371199728e-08
1.81572755442e-08
3.57608835201e-09
6.25346987831e-10
9.5586222123e-11
1.26375711378e-11
1.43224131133e-12
1.39113717101e-13
1.13783903845e-14
7.89176635306e-16
4.0769434732e-17
9.83714058852e-19
0.127766310086
0.0433560758379
0.00291405782788
0.000307040861731
5.90581476456e-05
1.44752281949e-05
3.01211514056e-06
9.21695252897e-07
2.41809139799e-07
5.34375466934e-08
1.06212210907e-08
1.89428011016e-09
2.95772639327e-10
3.96597470123e-11
4.54142643357e-12
4.45625275039e-13
3.69599473632e-14
2.63499528278e-15
1.42133383159e-16
4.90408852342e-18
0.1864072704
0.064149466024
0.00480913412045
0.000473265947278
8.05875559708e-05
2.03081189932e-05
6.45896047354e-06
1.8004625301e-06
5.53233045237e-07
1.3120793963e-07
2.71775654321e-08
5.08354532371e-09
8.34522740516e-10
1.16847488502e-10
1.38800276418e-11
1.4081680016e-12
1.21039305644e-13
9.00400147268e-15
5.17573566314e-16
2.22971541602e-17
0.227128668692
0.0738137698505
0.00532729771093
0.000496665687896
8.18024401502e-05
2.22763109247e-05
8.46305936809e-06
3.44746407059e-06
9.58362704692e-07
2.61069934926e-07
5.84158001333e-08
1.17542417812e-08
2.07872727836e-09
3.1131418301e-10
3.9240633668e-11
4.1995124388e-12
3.80665425937e-13
2.98955782002e-14
1.8427599292e-15
8.8774892415e-17
0.269347626013
0.0938635342552
0.00572740293911
0.000481293912791
7.59031282164e-05
2.17404722564e-05
9.865012355e-06
4.84106791829e-06
1.49473645232e-06
4.45133759664e-07
1.07658483529e-07
2.35911049215e-08
4.56262098944e-09
7.43151053648e-10
1.01080637716e-10
1.15939771965e-11
1.12377010787e-12
9.39986448238e-14
6.21396194132e-15
3.13120378821e-16
0.302501954379
0.112296630615
0.00577943067454
0.000459471195442
7.16992229376e-05
2.05892286329e-05
1.05274673471e-05
5.61302021798e-06
2.27112016122e-06
6.20336132193e-07
1.73013876519e-07
4.19266919376e-08
8.9290234615e-09
1.59724362825e-09
2.37191528428e-10
2.95067511608e-11
3.09091368072e-12
2.77209937275e-13
1.96248387471e-14
9.98056047956e-16
0.324268027344
0.128864197163
0.00787876323205
0.000544881956322
7.94372461592e-05
2.02337891643e-05
1.05270136643e-05
6.07463522601e-06
2.77623232597e-06
8.39376860632e-07
2.57275923937e-07
6.77415315199e-08
1.58152978687e-08
3.12082782508e-09
5.09977595127e-10
6.94013477443e-11
7.92008104538e-12
7.65691179661e-13
5.79638783034e-14
2.91758129299e-15
0.337745830717
0.146369843581
0.0163092951655
0.000953170328198
0.000111886872724
2.20390754745e-05
1.02004729701e-05
6.17590726533e-06
3.10572839777e-06
1.06528609338e-06
3.5751896973e-07
1.01240502115e-07
2.5734327982e-08
5.60467233561e-09
1.01249117743e-09
1.5164965796e-10
1.89690723295e-11
1.98607763924e-12
1.60627843866e-13
7.9822993162e-15
0.34476300497
0.162212797638
0.0276468859692
0.00175889493386
0.000180450128694
2.69992225991e-05
9.94557267807e-06
6.08868471207e-06
3.2109113612e-06
1.38868671119e-06
4.44871970777e-07
1.41719150299e-07
3.90250816231e-08
9.34865428551e-09
1.87119184053e-09
3.09802220991e-10
4.26754212625e-11
4.85920038872e-12
4.20006975237e-13
2.072682388e-14
0.344887876611
0.17155353585
0.0381809330732
0.00278928589501
0.000283214305648
3.63257603702e-05
1.01925690345e-05
6.01481205397e-06
3.3508716753e-06
1.59190013106e-06
5.56363330128e-07
1.90888295449e-07
5.59775646488e-08
1.4640473717e-08
3.24599470493e-09
5.95670070762e-10
9.06776639043e-11
1.12696505095e-11
1.0425375003e-12
5.16166065182e-14
0.338422090654
0.174569934764
0.0453955921958
0.00389126153132
0.000400137104581
4.91958366364e-05
1.13443614599e-05
6.14195170222e-06
3.50666849071e-06
1.7101495493e-06
7.22416277498e-07
2.36669499506e-07
7.67513216978e-08
2.17573957759e-08
5.32640156649e-09
1.08478707538e-09
1.82930114401e-10
2.48928007287e-11
2.46998734738e-12
1.24207198475e-13
0.324495680347
0.170029012858
0.0484044332725
0.00500624084292
0.000515314839409
6.53402187165e-05
1.43049583542e-05
6.80989503361e-06
3.77298860714e-06
1.86780414571e-06
8.46566222722e-07
2.98678630019e-07
1.03192092835e-07
3.10511342892e-08
8.33114658473e-09
1.88218889885e-09
3.52086574487e-10
5.259744068e-11
5.61269313988e-12
2.90338566337e-13
0.302978547771
0.15953328995
0.0490306769065
0.00681690802066
0.000674975212609
9.19849974562e-05
2.16340022098e-05
8.86590466891e-06
4.4283276745e-06
2.11914263264e-06
9.79116210167e-07
3.77070895269e-07
1.35588771042e-07
4.30261107354e-08
1.25185827035e-08
3.12919382003e-09
6.49825772576e-10
1.06828932598e-10
1.2294983628e-11
6.62102298027e-13
0.27563283014
0.14569510508
0.0486837722981
0.00996226190214
0.00114846085427
0.000173067034786
4.155777917e-05
1.44224421591e-05
6.05300010435e-06
2.64081715919e-06
1.15446460461e-06
4.92445337302e-07
1.71412661795e-07
5.86743755376e-08
1.82141449319e-08
5.01791849431e-09
1.15868000878e-09
2.10146855558e-10
2.61519251245e-11
1.48133951264e-12
0.246664320126
0.132682710134
0.0496720867685
0.0151554588688
0.00271536170714
0.000446395013222
9.75428357164e-05
2.76996928484e-05
9.30991900526e-06
3.5731954824e-06
1.44627797243e-06
6.09915099374e-07
2.1978261292e-07
7.9675130605e-08
2.60228651045e-08
7.87562565609e-09
2.0264513096e-09
4.06242507369e-10
5.47164921928e-11
3.28508598447e-12
0.221514479649
0.124111842617
0.0559426075196
0.0240330772909
0.00774544566972
0.00149931636006
0.000274884884945
5.94382443083e-05
1.50058269317e-05
4.80539051015e-06
1.78831989968e-06
7.16116673033e-07
2.93012977247e-07
1.0393604246e-07
3.77538559671e-08
1.24872452795e-08
3.58122826728e-09
7.92738374363e-10
1.15211999912e-10
7.35588280464e-12
0.204275800814
0.124221970898
0.0684917245526
0.0379192632444
0.0187613819802
0.00506582851335
0.000845595200617
0.000138739863766
2.5118575723e-05
6.1059519322e-06
2.0584379397e-06
8.22065048528e-07
3.63774248946e-07
1.46458710651e-07
5.94869866306e-08
2.13366523045e-08
6.72604990406e-09
1.62556143941e-09
2.52386297774e-10
1.70802342306e-11
0.195811638033
0.132701950441
0.0858738930916
0.0554911376285
0.0326139843642
0.0126341638347
0.00220184265727
0.000301647403152
3.90137780474e-05
6.9651182381e-06
2.20744885566e-06
9.72622291353e-07
4.88691516226e-07
2.47592020517e-07
1.07765512321e-07
4.29722623175e-08
1.41534428003e-08
3.63328810274e-09
5.94697946108e-10
4.23332157695e-11
0.194711938248
0.145067799239
0.104312558069
0.0726091598717
0.0444279518687
0.0183178622091
0.00322635114201
0.000374577636135
3.91520818094e-05
6.64203213598e-06
2.63399677263e-06
1.47169689788e-06
8.66422326045e-07
4.9274123185e-07
2.3892867146e-07
1.02581888904e-07
3.42970879834e-08
8.89286972571e-09
1.51949688219e-09
1.13530390674e-10
0.196983935584
0.156378568529
0.118573469224
0.0836588737334
0.0491945319154
0.0179186316321
0.00257423209796
0.000219908350209
2.05602713827e-05
7.1857639959e-06
4.71298195519e-06
3.14144822568e-06
1.97185868366e-06
1.14202182923e-06
6.05426803305e-07
2.62022984929e-07
9.2391471655e-08
2.33393681344e-08
4.09213766414e-09
3.22638239224e-10
0.199298591683
0.163345059977
0.12530070034
0.085816320526
0.0458131291583
0.0128570759779
0.00139669618624
0.000109153949204
2.1361420759e-05
1.54973790842e-05
1.19508654941e-05
8.1674716559e-06
5.0500667254e-06
2.87048396482e-06
1.49802747178e-06
7.01747358057e-07
2.4692041384e-07
6.50265356679e-08
1.11507496925e-08
9.3074193823e-10
0.198043595389
0.162647810455
0.122248745167
0.0785217189642
0.036336672001
0.00760560419968
0.000889401519865
0.000110272874926
4.9284197523e-05
4.24995425818e-05
3.37203538489e-05
2.28418731435e-05
1.37577572931e-05
7.51646626725e-06
3.793079472e-06
1.7468328549e-06
6.88379195624e-07
1.75394704272e-07
3.01294415969e-08
2.62028390967e-09
0.192989534117
0.157810939929
0.116008230202
0.07113188478
0.0309805906212
0.0065153084589
0.000960945734179
0.000223996464696
0.000157528607065
0.000140595299708
0.000112177982759
7.27024105015e-05
4.0958388042e-05
2.0789381201e-05
9.82299519871e-06
4.29512534695e-06
1.70263704748e-06
4.58950258711e-07
8.09489503259e-08
6.90973230949e-09
0.186620103487
0.151821968465
0.110088679452
0.066294278363
0.0292127639478
0.00762146861857
0.00156656765056
0.000670174357014
0.000588598980806
0.000550463790654
0.000444607702651
0.000288063617679
0.000153434250947
6.75464730557e-05
2.70179211564e-05
1.05182502863e-05
3.90179950242e-06
1.20380170035e-06
1.89997933022e-07
1.6812433234e-08
0.184227412249
0.152081818192
0.113334936925
0.0727317278703
0.0374912881852
0.0144584257315
0.0043537696995
0.00252214751847
0.00229133803926
0.00209956039571
0.00164496054014
0.00108137560505
0.000581008626896
0.000246357449321
8.47454849865e-05
2.60886044118e-05
8.18414648668e-06
2.47727049384e-06
3.95683189146e-07
3.52614260135e-08
0.183619881804
0.155249738489
0.120579431382
0.0835860858408
0.0504350339839
0.0272625341165
0.0152033453273
0.0106264425924
0.00880116182903
0.00718334160304
0.0049854591612
0.00310101314149
0.00165315285815
0.000729600214442
0.00024906636181
6.61967013182e-05
1.61209000214e-05
4.16243203906e-06
7.90268367531e-07
5.38139051231e-08
0.180942971845
0.157842085136
0.129177218825
0.0978827176989
0.0685995920738
0.04642344118
0.0325129424746
0.0242043272686
0.018509693214
0.0138592901595
0.00960993200396
0.00567746368983
0.0027735829063
0.00123617786873
0.000450857536443
0.000119407402048
2.45280437829e-05
5.50980900122e-06
1.04414788088e-06
7.10076948114e-08
0.166381982772
0.147475062305
0.1242091802
0.099235337415
0.0754080472211
0.0550095900066
0.0388605305154
0.0264765126367
0.0172167589116
0.0105518176677
0.00591208373383
0.00318208045988
0.00180249279488
0.000987658220448
0.000436067888838
0.000127319689783
2.54659671941e-05
5.63155834534e-06
1.07873561574e-06
7.38570396937e-08
0.114481251508
0.100681068374
0.0843277893726
0.0670607910156
0.0503653508874
0.035391458138
0.022983030681
0.013216373164
0.00658425792307
0.00326945675976
0.00175093241391
0.00105184809771
0.000690355717565
1.97883825611e-18
2.28961604748e-18
3.13211379803e-18
4.40937182612e-18
9.91515635554e-18
9.36684301763e-18
3.31570353142e-17
2.37422423195e-17
1.00520808512e-16
5.74449861556e-17
2.77984874931e-16
1.31299211304e-16
7.08890024042e-16
2.84907716032e-16
1.70812007286e-15
5.99870418021e-16
3.95057201858e-15
1.23875382672e-15
8.88594344529e-15
2.53282859589e-15
1.9622110834e-14
5.15975636599e-15
4.30194566584e-14
1.0562749854e-14
9.42257992106e-14
2.18606305004e-14
2.06367980584e-13
4.56824269676e-14
4.53967276558e-13
9.65616759247e-14
1.0161523757e-12
2.08375762406e-13
2.36299064553e-12
4.66724536977e-13
5.84613912595e-12
1.10640401219e-12
1.55949811614e-11
2.81139867309e-12
4.41248782615e-11
7.55567570602e-12
1.2779098789e-10
2.08593500566e-11
3.61959393419e-10
5.64442348093e-11
9.49811573788e-10
1.42575757355e-10
2.25751786929e-09
3.20335045874e-10
4.58138567042e-09
6.08092728027e-10
7.61616592538e-09
9.70095904173e-10
1.00295200062e-08
1.22327488897e-09
1.0200802625e-08
1.21323617919e-09
)
;

boundaryField
{
    inletfuel
    {
        type            fixedValue;
        value           uniform 1;
    }
    inletair
    {
        type            fixedValue;
        value           uniform 0;
    }
    outlet
    {
        type            zeroGradient;
    }
    axis
    {
        type            empty;
    }
    leftside
    {
        type            zeroGradient;
    }
    burnerwall
    {
        type            zeroGradient;
    }
    front
    {
        type            wedge;
    }
    back
    {
        type            wedge;
    }
    procBoundary0to1
    {
        type            processor;
        value           nonuniform List<scalar> 
27
(
0.0446419677986
0.044134069953
0.0430562094401
0.0416103693104
0.000456271662237
0.000256150004824
8.93303907203e-05
1.84424693003e-05
4.27598973338e-06
8.43788070524e-07
5.80379481567e-08
0.0384896258418
0.0331553761511
0.0268501225521
0.0202676309263
0.013934773668
0.00828077194683
0.0044425231501
0.00235301814855
0.00125251448494
0.000711680763638
0.000454266880188
0.000319778041098
0.000456271662237
0.00023572315168
7.82086546738e-09
9.62282606504e-10
)
;
    }
}


// ************************************************************************* //
