/*--------------------------------*- C++ -*----------------------------------*\
  =========                 |
  \\      /  F ield         | OpenFOAM: The Open Source CFD Toolbox
   \\    /   O peration     | Website:  https://openfoam.org
    \\  /    A nd           | Version:  7
     \\/     M anipulation  |
\*---------------------------------------------------------------------------*/
FoamFile
{
    version     2.0;
    format      ascii;
    class       volScalarField;
    location    "0.1";
    object      H2O;
}
// * * * * * * * * * * * * * * * * * * * * * * * * * * * * * * * * * * * * * //

dimensions      [0 0 0 0 0 0 0];

internalField   nonuniform List<scalar> 
814
(
4.28521448258e-09
3.62852632747e-09
2.06682319005e-09
4.08909146131e-07
4.60819989564e-07
5.71307637193e-07
1.96581998823e-05
3.36432051142e-05
9.365071543e-05
0.000609019201091
0.00176197845576
0.0125697419322
0.00279590423479
0.00751064729109
0.0362545633352
0.00676024770088
0.0155242776138
0.0527844847475
0.0124432455713
0.0248106121415
0.0642203203893
0.0199482963068
0.0350399358257
0.0730041261217
0.0296417149434
0.0462400925647
0.0809873566236
0.0416196819323
0.0582756471665
0.0889298080318
0.0553471845571
0.0706887527028
0.0968997430637
0.0698350227365
0.0829557991659
0.104824792833
0.0840831397081
0.0947292053709
0.112723293202
0.0975231855052
0.105947235739
0.120727852573
0.11021960527
0.116923348126
0.129224013529
0.1226323179
0.128128544973
0.138622740287
0.135190789068
0.139857270714
0.149029418655
0.147848565526
0.151895599788
0.159993076304
0.159907120689
0.163407706598
0.170473384901
0.170333228655
0.173302631101
0.179299297546
0.178464847886
0.180904888982
0.185821127078
0.184248949837
0.186183860122
0.190070762161
0.188161265996
0.189661134962
0.192673797425
0.19076691421
0.191928192621
0.194279604331
0.192763229633
0.193712968954
0.195668876368
0.194689035753
0.195543789167
0.197330483255
0.196631582009
0.197439686187
0.199141250941
0.198182298334
0.198901348659
0.200427696963
0.199611593702
0.200219244165
0.201516786929
0.201784191137
0.202269490875
0.203307973182
0.206446919
0.206845554451
0.20769370043
0.218318419181
0.218592016119
0.219163121155
0.0307209447988
0.10315097095
0.119339262862
0.119599645419
0.117884353133
0.118004553805
0.120018977537
0.123194994202
0.127105731733
0.131698874081
0.137038028352
0.143468015923
0.151290356565
0.160423481844
0.170189181187
0.179379002899
0.186804488478
0.19192018096
0.194860151339
0.196386888366
0.197215919234
0.198173823326
0.199671861446
0.201404835142
0.202479560848
0.203272809954
0.204710973168
0.208847081196
0.219912881877
5.99817373522e-06
5.04977573896e-06
3.89704469536e-06
2.59589165407e-06
1.50371436897e-06
7.53376338112e-07
3.30788015631e-07
1.27521852828e-07
4.34688591419e-08
1.30662277891e-08
3.43102217699e-09
7.81540292181e-10
1.53182367344e-10
2.57149203987e-11
3.67096442698e-12
4.65799760614e-13
2.72810469136e-13
2.14143003734e-12
1.88658506963e-11
5.19603149275e-11
0.000270352710236
0.000132798052692
7.1133513724e-05
3.90577425313e-05
2.01642008302e-05
9.06412633708e-06
3.60296142678e-06
1.24487357292e-06
3.79668402042e-07
1.02124086728e-07
2.4271867276e-08
5.02076011423e-09
8.9900923884e-10
1.38943895357e-10
1.84069697939e-11
2.23538844749e-12
1.95691083963e-12
2.26808479268e-11
3.08590984554e-10
2.3425312033e-09
0.00298709981919
0.000776317381555
0.000467441556092
0.000250043337423
0.000121107258142
5.14038062862e-05
1.94957764705e-05
6.37430776332e-06
1.80612642529e-06
4.4718758697e-07
9.92761540169e-08
1.93507960732e-08
3.28108981965e-09
4.81938620623e-10
6.08692598982e-11
7.15737017342e-12
8.13538723652e-12
1.26213593237e-10
2.58228294944e-09
5.92813279291e-08
0.0344421669486
0.0124256514053
0.0047542092142
0.00172525478283
0.000631990379931
0.000257290759483
9.19854264266e-05
2.91448686774e-05
7.90150976895e-06
1.84768683214e-06
3.92024649439e-07
7.41749633751e-08
1.22896259628e-08
1.76686884075e-09
2.18973702535e-10
2.52812997926e-11
2.99118034616e-11
5.38280664718e-10
1.61462727446e-08
1.54677097899e-06
0.187106693038
0.22904676015
0.114088209071
0.0278263648952
0.00699031391895
0.00182529493914
0.000381132257734
0.00011553262254
3.04272185606e-05
6.83948773514e-06
1.41315776276e-06
2.66582970462e-07
4.44704373625e-08
6.42738831613e-09
8.01529414356e-10
9.18692176979e-11
8.62065132542e-11
1.46296652996e-09
3.84406140102e-08
1.99735059495e-06
0.200821369536
0.231446231733
0.171470212986
0.0479166004423
0.0126058131916
0.00369884506233
0.00119560919864
0.000303118022457
8.84219695369e-05
2.06352227961e-05
4.33153238925e-06
8.40951422649e-07
1.45583408064e-07
2.17808879274e-08
2.80297200919e-09
3.25246193782e-10
2.08775213648e-10
3.03315825417e-09
6.919937812e-08
2.66096904482e-06
0.194858505484
0.229630662554
0.191861705695
0.0565603231064
0.0166096507896
0.00591399640274
0.00220868855767
0.000776784815588
0.000190476105264
5.01886696738e-05
1.1182212266e-05
2.29373281856e-06
4.22041803349e-07
6.6905993852e-08
9.07627799434e-09
1.09028433668e-09
4.66282219613e-10
5.38277084854e-09
1.05314733566e-07
3.23089822692e-06
0.184838366821
0.224590523507
0.198040296087
0.059396997882
0.0203740103572
0.00861240751662
0.00361884089091
0.00141312345471
0.000372425068318
0.00010607649566
2.51170970425e-05
5.494229088e-06
1.08843548924e-06
1.85731708685e-07
2.69796339122e-08
3.41918256319e-09
1.02449695404e-09
8.77153584536e-09
1.4617651179e-07
3.66655231132e-06
0.176524416424
0.220123172833
0.203173565002
0.0642072081178
0.0257995323411
0.0121516174959
0.00541144674313
0.00214046608836
0.00073523708198
0.000186659183739
5.01630757252e-05
1.18459819846e-05
2.53713342842e-06
4.70001265157e-07
7.38861754374e-08
1.00160943653e-08
2.29520488621e-09
1.36067561721e-08
1.93962869421e-07
4.05460846907e-06
0.171063208645
0.217255622235
0.220163240489
0.076987285283
0.0341261387226
0.0166531838283
0.00756023819349
0.00309951294596
0.00117417108545
0.00032626713336
9.4823009011e-05
2.36870777453e-05
5.44224711775e-06
1.09729230583e-06
1.87898000093e-07
2.75002348891e-08
5.30712975166e-09
2.0460863519e-08
2.51664405341e-07
4.48208825009e-06
0.167779556658
0.214577352325
0.233617283184
0.0985466817877
0.0453795307136
0.0220026841957
0.010059839099
0.0042871019345
0.00175119252136
0.00054123585246
0.000169861656222
4.46762445372e-05
1.09202106242e-05
2.39187396543e-06
4.4748602526e-07
7.11227347385e-08
1.2583227932e-08
3.02515962348e-08
3.23243695316e-07
4.98314257798e-06
0.166102868662
0.211339482737
0.235404502599
0.12443369729
0.0581861505919
0.0279536552247
0.0129237801231
0.00575016004479
0.00242111759139
0.000935591440691
0.000272577178043
8.02367289491e-05
2.07922604664e-05
4.91738913221e-06
1.00569288962e-06
1.74190006672e-07
3.01013470411e-08
4.45867229461e-08
4.13107969455e-07
5.56427584197e-06
0.166112748132
0.209197189297
0.234492650256
0.151308584981
0.0716981031298
0.0344696994286
0.0162524212716
0.00754922509143
0.00334488341424
0.00140070996409
0.000443751399698
0.000140465173507
3.80822590205e-05
9.63138674756e-06
2.14842588764e-06
4.06042797507e-07
7.1475137208e-08
6.65011557376e-08
5.25747246835e-07
6.23293444959e-06
0.167767700765
0.20853559547
0.234076864123
0.17737486141
0.0860614841518
0.041886221473
0.0202475992029
0.0097680567373
0.00452265426202
0.00195107337757
0.000756761907278
0.000226032828237
6.75588360848e-05
1.81338180324e-05
4.38727198439e-06
9.0448965446e-07
1.66447636578e-07
1.02087589573e-07
6.66193933088e-07
7.00431296263e-06
0.1713052015
0.209760371954
0.234709702092
0.201741667363
0.102226043048
0.0507023277569
0.0252317292017
0.0125533971605
0.00603030900098
0.00272759483863
0.00114645867223
0.000371806973925
0.00011859273254
3.3132669791e-05
8.60922396441e-06
1.93187526827e-06
3.77397704971e-07
1.64005003952e-07
8.41083918065e-07
7.9021911418e-06
0.176766694807
0.212497244225
0.235960334444
0.220772105908
0.122328578203
0.0619769559117
0.031866209431
0.0162523524979
0.00805517621669
0.00378752606005
0.0016790664571
0.000605506802635
0.000202440023147
5.91189249477e-05
1.63066603068e-05
3.9665159177e-06
8.30194630904e-07
2.78831323884e-07
1.06002722204e-06
8.95509448638e-06
0.183697902825
0.216022778966
0.236855944549
0.229252784469
0.150021153912
0.0793556954542
0.0416873247648
0.0217019491397
0.0109495737609
0.00528092042541
0.00238488218087
0.000995158169882
0.000326520276484
0.000103821593128
2.99181490431e-05
7.84566497175e-06
1.77144793005e-06
5.02417104675e-07
1.3382772092e-06
1.01907494959e-05
0.191023163157
0.219261694011
0.236873745223
0.233128608706
0.188655739769
0.108717018072
0.0578175609763
0.0302674864189
0.0152559832382
0.00741062008859
0.00340502671726
0.00149240347761
0.00052523577133
0.000179206107001
5.34860762217e-05
1.50354798565e-05
3.6795995784e-06
9.52586557687e-07
1.70293472244e-06
1.16381048872e-05
0.197381288638
0.221447012023
0.236290775962
0.238004783658
0.2254414199
0.155139871807
0.0838579946437
0.0431872043712
0.0213194523056
0.0102114645413
0.00470722051814
0.00207761403894
0.000857456532483
0.000286296661993
9.43136502297e-05
2.81640564082e-05
7.48628014356e-06
1.88046787258e-06
2.20742229182e-06
1.33331593012e-05
0.201755857265
0.221561017291
0.234242504891
0.238745512103
0.235224294509
0.206918013941
0.120433325952
0.0603652166719
0.0286199213763
0.0133074243923
0.00613944797519
0.00279182621227
0.00124003519624
0.000459796653383
0.00016610503159
5.25338703602e-05
1.5092761246e-05
3.83050005008e-06
2.96466450564e-06
1.53236031075e-05
0.203929869246
0.219615851905
0.230708395743
0.23671515088
0.238065460408
0.227197234662
0.154707574089
0.0762227145612
0.0343585605452
0.0157091429149
0.00742631800326
0.00357538010183
0.00169529217105
0.000763495359318
0.00028653787834
0.000101303203898
3.06467400826e-05
8.0013129873e-06
4.22595207147e-06
1.76771807894e-05
0.204241847938
0.216626515908
0.22646521118
0.233260441172
0.236545334639
0.228556840876
0.166923373713
0.0807555599017
0.0359778193074
0.0169669719219
0.00865092025188
0.00457473304448
0.00240189815354
0.00121811168373
0.000523404138927
0.000204764321687
6.46157335757e-05
1.70795220417e-05
6.56466735843e-06
2.05049905081e-05
0.203684033814
0.213807816999
0.222910252539
0.230308255213
0.234152841184
0.224211333393
0.155571486253
0.0728235463596
0.0337991044127
0.0179578002011
0.0105126764278
0.00629289339327
0.00368777660337
0.00203728612407
0.00102915103043
0.000421835284229
0.000144136436985
3.75027330948e-05
1.12829479917e-05
2.40131847924e-05
0.203078618636
0.211962436444
0.220888317146
0.228604654157
0.231149549563
0.213877430667
0.131300723868
0.0653731976474
0.0356733433496
0.0221225361119
0.0148609186446
0.00991227688013
0.0063200666792
0.0037391576816
0.00199474775792
0.000931750744198
0.000322324256574
8.68846048966e-05
2.130024378e-05
2.86188954995e-05
0.203313942055
0.211885266347
0.220880559704
0.228000776735
0.225978421699
0.196281195081
0.115740558636
0.0666986228119
0.0438854308746
0.032090354742
0.0242009257879
0.0175479467337
0.0119024812789
0.00736686333695
0.00408633554467
0.00197120007515
0.000780679182495
0.000201137704397
4.3427051793e-05
3.51504046213e-05
0.204481912466
0.212825150833
0.221716302655
0.227997901845
0.223626186807
0.193794950897
0.125637303947
0.083001396045
0.0633280150786
0.0523965320085
0.0436346721313
0.0335756465887
0.0237496274899
0.0151088964266
0.00856780341426
0.00419834426962
0.00173442958088
0.000470960127273
9.47772612746e-05
4.52321713996e-05
0.206010381172
0.214165180945
0.222881068811
0.228837744741
0.225109779323
0.202142739868
0.152268834594
0.116596913153
0.100533959083
0.0913429084646
0.0813410153962
0.0664371446361
0.0492883357217
0.0320741197553
0.0181905803714
0.00891472151208
0.00364946772196
0.00114413343973
0.000195413288176
6.16263268898e-05
0.206707389707
0.214423819608
0.223150990406
0.230742741829
0.233432308344
0.226443330599
0.206039798524
0.177024907829
0.164929171668
0.157746024799
0.146845585311
0.126617694094
0.0986973514918
0.0667673726011
0.0383556893023
0.0183354240597
0.00724767837803
0.00228894257019
0.000380764770973
8.72134234296e-05
0.206977095457
0.213940955374
0.222201357967
0.230368555021
0.236176110092
0.237195350301
0.232981660175
0.227051093587
0.224279641929
0.222520841887
0.218156570137
0.200142189794
0.167460168896
0.12220144268
0.0739295795512
0.0354268335851
0.0132392125467
0.00390519110776
0.000756086903849
0.000116462400429
0.207741044969
0.2134890108
0.220526715438
0.227972450557
0.234396015136
0.238235049132
0.239230475706
0.23864897898
0.237477966558
0.235447675334
0.232441371861
0.226484371159
0.20716526232
0.166862439973
0.111792671846
0.0561594970137
0.0198378623837
0.00547229935157
0.00105059703138
0.000149317388657
0.211382731136
0.216023836041
0.221600085366
0.227288822176
0.232126133507
0.235199167875
0.235851290405
0.233640927207
0.22906138932
0.220878332864
0.211577158685
0.200559512356
0.186377553058
0.165801651353
0.126237652541
0.0677048836294
0.0229986545789
0.00613570641369
0.00117269385851
0.000175292089296
0.221512293927
0.224035043125
0.226557257632
0.228305321935
0.228443531873
0.22603478446
0.219783299411
0.207992220981
0.193725225558
0.172006716212
0.151321367679
0.136793436782
0.130030709561
9.22899089368e-05
9.97022270663e-05
6.04537602444e-05
7.57772849366e-05
4.30093176081e-05
5.71595649268e-05
3.38457283741e-05
4.78021387419e-05
2.94633570771e-05
4.39912070048e-05
2.76694273254e-05
4.25956230846e-05
2.75048787816e-05
4.27175510655e-05
2.84341037432e-05
4.38990781527e-05
3.01751623051e-05
4.59456329683e-05
3.25804105779e-05
4.87739576551e-05
3.55871722903e-05
5.23750269308e-05
3.91549053261e-05
5.67755689508e-05
4.32765898694e-05
6.2024790243e-05
4.79939776904e-05
6.82256784936e-05
5.33874177764e-05
7.55317893765e-05
5.95681313189e-05
8.41475565261e-05
6.66808244773e-05
9.43353494146e-05
7.4908926814e-05
0.00010642674908
8.4489489624e-05
0.000120856017149
9.57261150329e-05
0.000138186056759
0.000109037372324
0.00015913787316
0.000124905649453
0.000184589037727
0.000144142605042
0.00021568017073
0.000167649275701
0.000253621751666
0.000197202100722
0.00030037116761
0.000234090811357
0.00035843499646
0.000281596057248
0.000431761807041
0.000343327606871
0.000525225096152
)
;

boundaryField
{
    inletfuel
    {
        type            fixedValue;
        value           uniform 0;
    }
    inletair
    {
        type            fixedValue;
        value           uniform 0;
    }
    outlet
    {
        type            zeroGradient;
    }
    axis
    {
        type            empty;
    }
    leftside
    {
        type            zeroGradient;
    }
    burnerwall
    {
        type            zeroGradient;
    }
    front
    {
        type            wedge;
    }
    back
    {
        type            wedge;
    }
    procBoundary0to1
    {
        type            processor;
        value           nonuniform List<scalar> 
27
(
0.22509321631
0.225026986693
0.224880948028
0.224671678075
0.126748169078
0.110171699093
0.0631995597495
0.020251724973
0.00521228704689
0.000998406028696
0.000190453363459
0.224183162993
0.222814063808
0.219975868426
0.214777287785
0.206544943042
0.194379596358
0.176189772695
0.152281858046
0.128204873384
0.108254057993
0.094594186284
0.0871310167175
0.126748169078
0.0850653285085
0.000427193085888
0.000644917962628
)
;
    }
}


// ************************************************************************* //
