/*--------------------------------*- C++ -*----------------------------------*\
  =========                 |
  \\      /  F ield         | OpenFOAM: The Open Source CFD Toolbox
   \\    /   O peration     | Website:  https://openfoam.org
    \\  /    A nd           | Version:  7
     \\/     M anipulation  |
\*---------------------------------------------------------------------------*/
FoamFile
{
    version     2.0;
    format      ascii;
    class       volScalarField;
    location    "0.1";
    object      HE;
}
// * * * * * * * * * * * * * * * * * * * * * * * * * * * * * * * * * * * * * //

dimensions      [0 0 0 0 0 0 0];

internalField   nonuniform List<scalar> 
814
(
3.23143216133e-24
2.52324272878e-24
9.78560865789e-25
3.5875805181e-22
3.80017019878e-22
3.11394333677e-22
1.97866642675e-20
3.39242531709e-20
8.42827572456e-20
6.57550403968e-19
2.03256353234e-18
1.68799221289e-17
1.7446755594e-18
4.41167693269e-18
1.99138747886e-17
3.72378293798e-18
8.5156598953e-18
3.06636074774e-17
1.07170948761e-17
2.63845110881e-17
1.02564611541e-16
5.10130449933e-17
1.3310337268e-16
5.0212663625e-16
2.81297692257e-16
6.83980107103e-16
2.23541375574e-15
1.39988048685e-15
3.00722243926e-15
8.34745803306e-15
6.03411322114e-15
1.14029893201e-14
2.72768613057e-14
2.30534170491e-14
3.88714788133e-14
8.20567702359e-14
8.0160945956e-14
1.22975428843e-13
2.34244776634e-13
2.57523595025e-13
3.66160526329e-13
6.40604844851e-13
7.76122978891e-13
1.04014125593e-12
1.69604282332e-12
2.21706825042e-12
2.84201047717e-12
4.37657627437e-12
6.02480095237e-12
7.4756339648e-12
1.10078888003e-11
1.5572817032e-11
1.88699869836e-11
2.68350830654e-11
3.85338598016e-11
4.58798200706e-11
6.34715103437e-11
9.0769070428e-11
1.06381597606e-10
1.43190450165e-10
2.04201494854e-10
2.35529835584e-10
3.08077856367e-10
4.45414891296e-10
5.05827023128e-10
6.43759222375e-10
9.70193011237e-10
1.0858263601e-09
1.34689612675e-09
2.08229315969e-09
2.29601900901e-09
2.77494241872e-09
4.30160234139e-09
4.67958084526e-09
5.52119773809e-09
8.26388172378e-09
8.90206951841e-09
1.03135200286e-08
1.52713431326e-08
1.63647620386e-08
1.87918412181e-08
2.91736234306e-08
3.09848623909e-08
3.50267878154e-08
7.33870449087e-08
7.7001701679e-08
8.50591489015e-08
2.71318732345e-07
2.80331795784e-07
3.0023767118e-07
1.33269878085e-06
1.36891856383e-06
1.44817967686e-06
1.01310380529e-05
1.02795512051e-05
1.05974995322e-05
6.79597724848e-17
6.08854588957e-17
9.6321651892e-17
3.95933736545e-16
1.77034839689e-15
6.69057141431e-15
2.14216780221e-14
6.17587160882e-14
1.68487404526e-13
4.45017369643e-13
1.14200220413e-12
2.86562134761e-12
7.06251448395e-12
1.70892778898e-11
4.03051379748e-11
9.25950675699e-11
2.02386288962e-10
4.21339997013e-10
8.55002921898e-10
1.74198143358e-09
3.49347657916e-09
6.75494251468e-09
1.23585564962e-08
2.23249860403e-08
4.09615454876e-08
9.68527891016e-08
3.28717628806e-07
1.56482347719e-06
1.10153407385e-05
1.79734210994e-19
2.70254417674e-19
3.55893361091e-19
3.61161005815e-19
3.07383008591e-19
2.24817457688e-19
1.45414703969e-19
8.34536479566e-20
4.27995793846e-20
1.95863957872e-20
7.99488680649e-21
2.91963149775e-21
9.7230920868e-22
3.12548243612e-22
1.05529089348e-22
3.87744569912e-23
1.50366193028e-23
1.37975387318e-23
8.42012683818e-23
2.2966962986e-22
3.50601902154e-18
3.08304780607e-18
3.9272694238e-18
3.50525347219e-18
2.58880769632e-18
1.61458480423e-18
9.29307343306e-19
4.85370527503e-19
2.33193451471e-19
1.0124971276e-19
3.98926317942e-20
1.4105266185e-20
4.51569641759e-21
1.35243292687e-21
4.07596481516e-22
1.34434079532e-22
5.32225402868e-23
1.14123493473e-22
1.36843810512e-21
1.0380709333e-20
2.33871110397e-17
1.51540275106e-17
2.63484485894e-17
2.24640542006e-17
1.461571762e-17
7.57036165708e-18
3.68778257891e-18
1.73430226117e-18
7.89882786234e-19
3.33463590784e-19
1.30743923867e-19
4.62703994078e-20
1.47687553249e-20
4.28717946398e-21
1.18180808952e-21
3.43137880299e-22
1.37956730569e-22
5.89511239883e-22
1.1450071095e-20
2.63116386678e-19
9.25289700285e-17
9.63354553148e-17
1.83498205465e-16
1.42747038011e-16
7.94929994786e-17
3.78075879036e-17
1.5666390522e-17
6.61972061476e-18
2.85517252931e-18
1.17843428857e-18
4.6486267428e-19
1.67733521672e-19
5.45838718473e-20
1.58664666313e-20
4.18420619283e-21
1.09669686049e-21
4.23316380588e-22
2.46909921421e-21
7.16322815556e-20
6.87238216467e-18
1.1665220808e-16
4.99045808072e-16
4.35287995666e-16
5.3085431247e-16
4.20556967781e-16
2.20047633024e-16
6.51255255848e-17
2.53646426173e-17
1.03865787938e-17
4.20646717135e-18
1.68871963192e-18
6.34570276963e-19
2.15559710836e-19
6.46113954787e-20
1.70795427154e-20
4.2658664321e-21
1.43624553259e-21
6.77971487963e-21
1.70478408484e-19
8.86933295544e-18
3.91178477401e-16
3.26338590048e-15
2.2135114874e-15
2.02770301864e-15
1.48162572832e-15
7.29893904026e-16
2.73391030839e-16
8.27446360189e-17
3.51906249641e-17
1.44659334515e-17
5.97490939235e-18
2.37549781878e-18
8.57497830628e-19
2.70673105891e-19
7.40250597919e-20
1.84785681336e-20
5.41649074241e-21
1.47023932684e-20
3.06871042224e-19
1.18132191123e-17
1.99460286937e-15
1.50027081198e-14
1.0843424835e-14
6.87840620506e-15
4.42536210124e-15
2.14079848688e-15
7.88052160776e-16
2.97912273693e-16
1.08525848324e-16
4.80709218441e-17
2.06603990586e-17
8.74403012715e-18
3.38472708473e-18
1.13715762274e-18
3.26899834233e-19
8.38374211669e-20
2.27959131325e-20
2.97336636573e-20
4.67608622847e-19
1.43445331607e-17
7.96326542066e-15
4.8343800933e-14
3.80158701193e-14
2.04352781183e-14
1.26459287178e-14
6.13915717041e-15
2.32765673465e-15
9.24763336072e-16
3.47533443906e-16
1.61105537788e-16
7.1818256153e-17
3.20939793046e-17
1.32907650745e-17
4.76146070926e-18
1.44680125284e-18
3.86107709348e-19
1.03137443876e-19
6.7176681545e-20
6.53235243861e-19
1.62901366412e-17
2.56173557974e-14
1.28311922301e-13
1.17945791856e-13
5.94385882853e-14
3.95385559616e-14
2.02347515611e-14
7.84102599556e-15
2.97498998507e-15
1.2839842009e-15
5.43405624396e-16
2.58548007307e-16
1.19668173341e-16
5.2274670694e-17
1.98699004433e-17
6.38065551147e-18
1.78015276023e-18
4.81831204513e-19
1.9709976772e-19
8.89586845697e-19
1.80496501641e-17
7.05135922964e-14
3.10786914635e-13
3.78878835973e-13
1.91663393285e-13
1.41545409103e-13
7.92331952021e-14
3.1307645856e-14
1.14134572742e-14
4.79901369475e-15
2.03092079991e-15
9.89224219746e-16
4.59234851765e-16
2.06739695771e-16
8.26165164995e-17
2.79629494687e-17
8.1636685723e-18
2.26760029581e-18
7.46841184875e-19
1.26784879306e-18
2.00456232673e-17
1.8019780627e-13
7.36385478745e-13
1.23684678339e-12
6.87687331731e-13
5.20314675266e-13
3.22250762403e-13
1.33332695334e-13
4.78737587694e-14
1.93792667604e-14
8.0678295766e-15
3.93458601129e-15
1.81474399899e-15
8.21900992309e-16
3.415889159e-16
1.21502812951e-16
3.71093936691e-17
1.06196338235e-17
3.24192723861e-18
2.17306333604e-18
2.2533793542e-17
4.48629200982e-13
1.7419528229e-12
3.67719272034e-12
2.47900669847e-12
1.80623809483e-12
1.22852220945e-12
5.46254195932e-13
2.01910612379e-13
7.8207118946e-14
3.52171139569e-14
1.53543608532e-14
7.30095912436e-15
3.27764779906e-15
1.4013204772e-15
5.22603759246e-16
1.66894904324e-16
4.92155497648e-17
1.46989988137e-17
5.32562170487e-18
2.59004425304e-17
1.10178984476e-12
4.08367768689e-12
9.73910654474e-12
8.27281216078e-12
5.96436013631e-12
4.3564283249e-12
2.12008751147e-12
8.29516965337e-13
3.22716764531e-13
1.42786430367e-13
6.16075971628e-14
2.9449808784e-14
1.31135982631e-14
5.70294287727e-15
2.22415682886e-15
7.42110032858e-16
2.25172229383e-16
6.68822834345e-17
1.84804834711e-17
3.15776703803e-17
2.66293645295e-12
9.40907607095e-12
2.34825108125e-11
2.5050674656e-11
1.88504458278e-11
1.45868652098e-11
7.9010117933e-12
3.31914141228e-12
1.31253739076e-12
5.56701935449e-13
2.5899729421e-13
1.13749782336e-13
5.25882910109e-14
2.30751129832e-14
9.37388849695e-15
3.2625906961e-15
1.01598731409e-15
3.0118821131e-16
7.62361854194e-17
4.55232114488e-17
6.34340639846e-12
2.12592171883e-11
5.30313846322e-11
6.84431957233e-11
5.67182407952e-11
4.60808489836e-11
2.81195639039e-11
1.28420933066e-11
5.18969658715e-12
2.16895661972e-12
9.95382916221e-13
4.4214187137e-13
2.1112667101e-13
9.33661510447e-14
3.91931495842e-14
1.41781196122e-14
4.51624337737e-15
1.33590512281e-15
3.30492444647e-16
9.34470805086e-17
1.49125066829e-11
4.70808653019e-11
1.14231225466e-10
1.68660589574e-10
1.60024399653e-10
1.35803869502e-10
9.15662036233e-11
4.58773565796e-11
1.93482683007e-11
8.07390457382e-12
3.66340386111e-12
1.69479455308e-12
8.341653488e-13
3.8036905603e-13
1.6271591512e-13
6.07940771963e-14
1.97394025377e-14
5.82154411813e-15
1.43611247085e-15
2.87437834999e-16
3.45266686222e-11
1.01501378807e-10
2.36620772338e-10
3.76811582332e-10
4.19680264848e-10
3.76896143761e-10
2.68843824292e-10
1.4751802763e-10
6.57848417909e-11
2.79755771455e-11
1.26744879736e-11
6.47992437609e-12
3.19976121761e-12
1.56430594672e-12
6.70394855952e-13
2.56124961058e-13
8.45234277921e-14
2.48583470642e-14
6.16011743145e-15
1.11423318597e-15
7.80800673905e-11
2.11979515459e-10
4.74178687974e-10
7.81171467009e-10
1.01951354442e-09
9.98598646412e-10
7.27230176138e-10
4.25853503563e-10
2.01108237717e-10
8.95505800884e-11
4.27500333102e-11
2.33198863727e-11
1.23813777217e-11
6.36792612309e-12
2.74238358246e-12
1.05302097748e-12
3.52184943167e-13
1.03572951147e-13
2.59313818441e-14
4.66567918205e-15
1.71828145206e-10
4.31826902586e-10
9.13510224722e-10
1.54216279767e-09
2.2631602233e-09
2.55150573269e-09
1.87179442869e-09
1.11674302284e-09
5.56958840351e-10
2.67718972985e-10
1.41101820089e-10
8.21046286533e-11
4.86983058558e-11
2.46582484099e-11
1.10670424491e-11
4.17697087386e-12
1.41063878348e-12
4.17704103241e-13
1.06537580151e-13
1.97758102826e-14
3.5792342414e-10
8.3189834391e-10
1.67803114699e-09
2.92566498752e-09
4.64718881753e-09
5.95956409201e-09
4.61443504233e-09
2.73755649866e-09
1.45389151732e-09
7.925763295e-10
4.75087192791e-10
2.9520808899e-10
1.78770004876e-10
9.31188048012e-11
4.27755840252e-11
1.59701463733e-11
5.37865814827e-12
1.61217379073e-12
4.22693780136e-13
8.2302794002e-14
7.1065688187e-10
1.53382671829e-09
3.03131057698e-09
5.46589680916e-09
8.99932468367e-09
1.21895989916e-08
1.03939751814e-08
6.31991026775e-09
3.70102949574e-09
2.36646736694e-09
1.58491324233e-09
1.02596786527e-09
6.14751172602e-10
3.4046917389e-10
1.52583749223e-10
5.95070160865e-11
1.94921342269e-11
5.89264139469e-12
1.60308422644e-12
3.30619924774e-13
1.38980607125e-09
2.84947931985e-09
5.53316811832e-09
9.95747029322e-09
1.63286886707e-08
2.23079905185e-08
2.0359733636e-08
1.34857738202e-08
9.18962217801e-09
6.80240656845e-09
4.96159900616e-09
3.31523923231e-09
2.00748350973e-09
1.11326814359e-09
5.15057504215e-10
2.09901583745e-10
6.83636077181e-11
2.03102604526e-11
5.75987022132e-12
1.2684257328e-12
2.72907962324e-09
5.29581599592e-09
9.91220626858e-09
1.73969249079e-08
2.79352087592e-08
3.77528352105e-08
3.55813051654e-08
2.67335026825e-08
2.14358890929e-08
1.80286120213e-08
1.41564558615e-08
9.83994992015e-09
6.12282936172e-09
3.39163801553e-09
1.68603888026e-09
6.79801098029e-10
2.33039051503e-10
6.68133908658e-11
1.94734126624e-11
4.60757830225e-12
5.2211736149e-09
9.5800887703e-09
1.7240320179e-08
2.94692691123e-08
4.61165250758e-08
6.03149670298e-08
5.77525091363e-08
5.07759178817e-08
4.80839001168e-08
4.55082546682e-08
3.83683384423e-08
2.79227974607e-08
1.78901367529e-08
1.00720575551e-08
4.98996245544e-09
2.17418820839e-09
7.33385491611e-10
2.16399941885e-10
6.18255285752e-11
1.57516693339e-11
9.68015802779e-09
1.70161469493e-08
2.96725858066e-08
4.9534625462e-08
7.49829211506e-08
9.39929002765e-08
9.58782987507e-08
9.83611438922e-08
1.05873380635e-07
1.09817605441e-07
1.00610194303e-07
7.75524505655e-08
5.16082474556e-08
2.95867328686e-08
1.47324167912e-08
6.3653531643e-09
2.36777622137e-09
6.57765330197e-10
1.86170806191e-10
5.05225868708e-11
1.71308193007e-08
2.89901982382e-08
4.95772648057e-08
8.17860175825e-08
1.22380167145e-07
1.55371662814e-07
1.7197374463e-07
1.97325405071e-07
2.3549652498e-07
2.63248504481e-07
2.62245958504e-07
2.14716553688e-07
1.48954945082e-07
8.69945369561e-08
4.33591993267e-08
1.84012462625e-08
6.82744946433e-09
1.93137144454e-09
5.42260662313e-10
1.50888382598e-10
3.02883413527e-08
4.99781390538e-08
8.4707824783e-08
1.4010380471e-07
2.13597924862e-07
2.87766329631e-07
3.52236573499e-07
4.38628610796e-07
5.57430209921e-07
6.59083399602e-07
6.91162405679e-07
5.96628392837e-07
4.35584640642e-07
2.60502300695e-07
1.28005049398e-07
5.28664420831e-08
1.86632535857e-08
5.77754534504e-09
1.44067639927e-09
4.22091144459e-10
5.45077924908e-08
8.76103907617e-08
1.4597911396e-07
2.44360802101e-07
3.90672442749e-07
5.75259679683e-07
7.88087985576e-07
1.07161626919e-06
1.44033137878e-06
1.74134883094e-06
1.83009716326e-06
1.63162379512e-06
1.23228456075e-06
7.60588444386e-07
3.7566351758e-07
1.46829473294e-07
4.77384191814e-08
1.42004991596e-08
3.54123817394e-09
1.09699227205e-09
1.24207181486e-07
1.92473245757e-07
3.13112229124e-07
5.22018746463e-07
8.62795833132e-07
1.35636029689e-06
2.00941905618e-06
2.8423884963e-06
3.73722977916e-06
4.31439272851e-06
4.39979830233e-06
3.94297194698e-06
3.0487537977e-06
1.95653582249e-06
9.92761668924e-07
3.79140652561e-07
1.11334930556e-07
2.99197463545e-08
8.58599298215e-09
2.59145620424e-09
3.9488834985e-07
5.53773568333e-07
8.38187133541e-07
1.36481016726e-06
2.25525533847e-06
3.5695980258e-06
5.20094776953e-06
6.88030040211e-06
8.14248000614e-06
8.65828337511e-06
8.29932377014e-06
7.1927132122e-06
5.56833398124e-06
3.70023176415e-06
1.97211254658e-06
7.55900324301e-07
2.02017761381e-07
5.17281936994e-08
1.66478167332e-08
5.85347494362e-09
1.84720333552e-06
2.51103736584e-06
3.61755310299e-06
5.23016636402e-06
7.32334438551e-06
9.69081358734e-06
1.19373715774e-05
1.3575630846e-05
1.40898017989e-05
1.3332793359e-05
1.15078608563e-05
9.1736792302e-06
6.85215822829e-06
4.72033835272e-06
2.68459145676e-06
1.03912424738e-06
2.65271780209e-07
7.49785102199e-08
3.02550404094e-08
1.27379264182e-08
1.19114449658e-05
1.35055687048e-05
1.54763319457e-05
1.76011823254e-05
1.95826056353e-05
2.10436335002e-05
2.15365689107e-05
2.07910710564e-05
1.85467818896e-05
1.52657049447e-05
1.16313630748e-05
8.27755159463e-06
5.67499310628e-06
4.10378866247e-16
4.44273862593e-16
2.69005663464e-16
3.38974578101e-16
1.91787759926e-16
2.56739365406e-16
1.51622922265e-16
2.1657201805e-16
1.33110785896e-16
2.01997622425e-16
1.26759505189e-16
1.99465544036e-16
1.28834721346e-16
2.05976656032e-16
1.38026303185e-16
2.2150383934e-16
1.55514346501e-16
2.49699716009e-16
1.86901094806e-16
3.01611973482e-16
2.50326317993e-16
4.10007896756e-16
4.06354581533e-16
6.80666782454e-16
8.74564554868e-16
1.48643973835e-15
2.49274205225e-15
4.22240742112e-15
8.52264627211e-15
1.42320488667e-14
3.15925429549e-14
5.18783607659e-14
1.1921271079e-13
1.92459782888e-13
4.42255489045e-13
7.0054479816e-13
1.58361496665e-12
2.4581380762e-12
5.41300770373e-12
8.22773361442e-12
1.75567437989e-11
2.61292682639e-11
5.38161191798e-11
7.846445941e-11
1.55675750013e-10
2.23176446503e-10
4.24920816313e-10
5.98046388536e-10
1.09661816912e-09
1.51862482466e-09
2.68594998966e-09
3.6868746527e-09
6.29332441138e-09
8.61556917661e-09
1.43082306276e-08
1.95182698756e-08
)
;

boundaryField
{
    inletfuel
    {
        type            fixedValue;
        value           uniform 0;
    }
    inletair
    {
        type            fixedValue;
        value           uniform 0;
    }
    outlet
    {
        type            zeroGradient;
    }
    axis
    {
        type            empty;
    }
    leftside
    {
        type            zeroGradient;
    }
    burnerwall
    {
        type            zeroGradient;
    }
    front
    {
        type            wedge;
    }
    back
    {
        type            wedge;
    }
    procBoundary0to1
    {
        type            processor;
        value           nonuniform List<scalar> 
27
(
3.40880589491e-05
3.41532422196e-05
3.42864882483e-05
3.4450261299e-05
3.8560382724e-06
2.39257971273e-06
9.92891776404e-07
2.64889398781e-07
1.00579469359e-07
4.68592239998e-08
2.6935579367e-08
3.47562836622e-05
3.51367707369e-05
3.53132852174e-05
3.50035914653e-05
3.39607855143e-05
3.1960732325e-05
2.86405707461e-05
2.41676362011e-05
1.89597374875e-05
1.37618040706e-05
9.35165144367e-06
6.10706897906e-06
3.8560382724e-06
3.95383570871e-06
3.18487176611e-08
4.30036215248e-08
)
;
    }
}


// ************************************************************************* //
