/*--------------------------------*- C++ -*----------------------------------*\
  =========                 |
  \\      /  F ield         | OpenFOAM: The Open Source CFD Toolbox
   \\    /   O peration     | Website:  https://openfoam.org
    \\  /    A nd           | Version:  7
     \\/     M anipulation  |
\*---------------------------------------------------------------------------*/
FoamFile
{
    version     2.0;
    format      ascii;
    class       volScalarField;
    location    "0.1";
    object      k;
}
// * * * * * * * * * * * * * * * * * * * * * * * * * * * * * * * * * * * * * //

dimensions      [0 2 -2 0 0 0 0];

internalField   nonuniform List<scalar> 
814
(
21.2979636905
18.5724989919
10.6213275473
21.8999309155
18.7052725425
9.06728258093
21.4015760004
19.3201307986
8.60704053389
21.8838622587
24.1659570338
20.3186628358
23.0262273625
28.5941529065
33.6377170779
24.6534903839
33.4023363537
45.0779874534
26.9600415251
38.6913572381
54.758841072
30.2233386988
44.5595868558
62.6993631488
34.6717757198
50.8550716683
68.9445887809
40.1584126282
56.8473209309
73.2195454956
46.0245266203
61.6233732984
75.4041946973
51.2622091315
64.5379005125
75.5658438895
54.8043335359
65.1772000509
73.5554931265
55.8401139
63.3194601625
69.2265309858
53.9358744127
58.9194944628
62.645569176
49.1364979331
52.1809390521
54.1403221259
42.1092059442
43.7935522102
44.4948760331
34.1815310041
35.0222657238
35.0044796375
26.9896454677
27.4187358568
27.1855775257
21.6884685101
21.9794649335
21.8460291826
18.4611374256
18.7566731007
18.8412632884
16.9431965995
17.3069785801
17.6492887405
16.7136838048
17.1724967652
17.7730844828
17.326412147
17.8467245645
18.6166946024
18.2166475253
18.7182076731
19.4857387272
18.7576658953
19.1577015357
19.7560000151
18.6726817012
18.9348072345
19.2921886888
17.8671327846
18.0099972101
18.1791432525
16.5692458315
16.6381971743
16.6998829035
15.2092700401
15.2331273551
15.2323514007
14.7343492296
14.7418185757
14.7179754899
15.2890082838
15.263750537
15.1522188605
5.7455346067
21.0188564196
37.5726441469
51.20691238
60.9017442774
67.7798355954
72.0635295003
74.0890151495
74.0920119027
71.8299458607
67.1548071461
60.2133444662
51.4424061339
41.7701420232
32.5635581515
25.3139917804
20.6205677151
18.1902684041
17.5109211273
18.0679660234
19.1857476874
20.0852273485
20.1754961977
19.4638910661
18.1919706967
16.6470942578
15.1569313482
14.649094298
14.9885120483
0.0147841365936
0.0237750072436
0.0271384357157
0.0287053395505
0.0285299332743
0.0281488160975
0.0271098004553
0.0260860338514
0.0249143728233
0.0237144917266
0.0224816433987
0.0212480533729
0.0200205466652
0.0188897580057
0.017837961706
0.0169525992774
0.0162431994777
0.0156817435033
0.0153895605452
0.0156095299775
0.0175764563256
0.0318882608414
0.043760680581
0.0437002128556
0.0418394419399
0.0392065720368
0.0358756480767
0.0330167376639
0.0304370685321
0.0280772805896
0.0259868239974
0.0240042941949
0.0221852130926
0.0205110786558
0.0190374229741
0.0177623889271
0.0167847431918
0.0159914451431
0.0156374879045
0.0160365635786
0.0517111748521
0.0480430394146
0.0524969775918
0.0611043702698
0.0545678924527
0.0498275764152
0.0435793888584
0.0385779114288
0.0344651129919
0.0310038767403
0.0281646310251
0.0256428267948
0.0234170088732
0.0214389486561
0.0197108305523
0.018255001266
0.0171097261307
0.016236948899
0.0158123865789
0.0164549573487
0.899031226373
0.0593565932944
0.0512824044008
0.0728050032241
0.0689479231141
0.0632739317711
0.0531452723883
0.0449785211946
0.0387876923982
0.0338922633127
0.0301654857359
0.0270680852415
0.0244477440267
0.0222158070596
0.0202739363467
0.0186921342848
0.0174065279763
0.0165133733138
0.0159525591487
0.0207290482528
3.82876568134
1.07739877467
0.147402389507
0.0570393616799
0.0653555529446
0.0692832521257
0.063220715343
0.0517723319521
0.0435131434821
0.0369194762832
0.032220263025
0.0284803391355
0.0254553804928
0.0229642484488
0.0208211649442
0.0191149104982
0.0177048565974
0.0167775286245
0.0161613346788
0.0236624060072
8.51615687609
1.71123923548
0.234922284968
0.0618218113456
0.0641567104347
0.0716907148722
0.067160818305
0.0566525690702
0.0478798313105
0.040114427587
0.034488229279
0.030036642045
0.0265583081689
0.0237611895833
0.0214042102792
0.0195481779247
0.0180191696978
0.0170112905969
0.0164550086207
0.0272808950715
14.8103791265
2.48960308538
0.293610203299
0.0673550087028
0.065314853392
0.0720483978343
0.0679736821259
0.0597569417576
0.0514959290476
0.043391522345
0.0369966172641
0.0318226752084
0.027824336291
0.0246601647749
0.0220558831605
0.0200211612157
0.0183674092261
0.0172569671294
0.0167952015632
0.0304137536352
23.9485142952
4.13600896127
0.369154288136
0.0744047745451
0.0668002243731
0.069742094355
0.0661912196146
0.0609092751524
0.0541405714872
0.0464915595992
0.0396277857218
0.0338356320629
0.0292779591662
0.0256932451581
0.022796600711
0.0205564043194
0.0187622340344
0.0175519324206
0.0171653242095
0.0326961781417
34.6247153621
6.07208880078
0.42128519124
0.0819721635202
0.0668057388506
0.0651000284516
0.0624775689256
0.0604005412478
0.0556613371992
0.0491627674127
0.042224684412
0.0360096834808
0.0309066609581
0.026866858919
0.0236321581967
0.021159223842
0.0192033558427
0.0178970095805
0.0175604713391
0.0342124026392
43.5302811689
8.16403770376
0.550709843717
0.0961080435889
0.0658800687329
0.0592680343286
0.0578222108877
0.0586519259557
0.0562979713489
0.051250699613
0.0446608371065
0.0382632069513
0.0326840478256
0.0281794675703
0.0245666406546
0.0218301657092
0.0196875051192
0.0182790759458
0.0179563862145
0.0352470110817
49.4320033642
10.6771951218
0.926453211991
0.129799954929
0.06719222992
0.054199056186
0.053371778627
0.0563187495342
0.0561488613972
0.052710166292
0.0468487229589
0.040510976049
0.0345800876387
0.0296296757125
0.025609342818
0.0225749639373
0.0202164197242
0.018690369715
0.0183360031898
0.035880863751
52.3091264142
13.0247583169
1.41303685041
0.187908247634
0.0741533954352
0.0516114270438
0.0498347286063
0.0537355976347
0.0553689144153
0.0533942538868
0.0486909448399
0.0426722471582
0.0365574582127
0.0312109623567
0.0267719020998
0.02340464572
0.0207972248484
0.019129673904
0.0187003554663
0.0361462771001
52.1165035491
14.5496272793
1.89830793379
0.269562140006
0.0898439441973
0.0525423776874
0.047412897661
0.0509868034176
0.0538544488257
0.0534484936522
0.0500614211719
0.0446448499812
0.0385551842279
0.0329051183074
0.0280625231291
0.0243326556922
0.0214405717237
0.0195989569219
0.0190569733443
0.0361010937645
49.149417031
14.9981378494
2.24749596743
0.371299452046
0.117878907087
0.0581197275369
0.0464075151869
0.0482916238757
0.0518013082416
0.052906158237
0.0508208231708
0.0463387339213
0.0405011805525
0.0346853344726
0.0294831993209
0.0253737190796
0.0221603398892
0.020103043277
0.0194120268059
0.0358248359198
43.9241405628
14.1289766958
2.36262059521
0.488114642444
0.164548509698
0.0709692516452
0.0480569466511
0.0462612146082
0.0494649808653
0.0517135387569
0.0510329099189
0.047646960731
0.0423099012706
0.0365091291651
0.0310273293041
0.0265426465285
0.0229742519198
0.0206511275184
0.0197710104278
0.0353895056597
37.0761035336
12.3913153272
2.37638476355
0.636630254855
0.243285215159
0.0975269264019
0.0555640895831
0.0462504182639
0.0473233778275
0.050016431555
0.0506384758336
0.0484809189266
0.0438978266209
0.0383171128172
0.0326823069745
0.0278531540398
0.0239043111163
0.0212581502481
0.0201417391452
0.0348486607063
29.743806652
10.4185333805
2.39951985088
0.831856988434
0.379341604671
0.155516595612
0.0762164602058
0.0511414662889
0.0463416930601
0.0480737178924
0.0496607764107
0.0487105631737
0.0451798696554
0.040050972294
0.0344298470982
0.0293183621371
0.0249768283253
0.0219459465188
0.0205362666188
0.0342385930708
23.269710521
8.89529053597
2.61142673327
1.15669411273
0.623697830328
0.285351917034
0.126621981301
0.0669977514057
0.0484862988858
0.0464374712811
0.0481790330829
0.0484211922307
0.046082071008
0.0416579825146
0.0362432483472
0.0309549854438
0.0262231899393
0.0227445475458
0.0209720520644
0.0335869282021
18.7507874687
8.24633017374
3.26428594439
1.75787206862
1.07090432782
0.569157350536
0.239526583413
0.103585505232
0.0562103137951
0.0457982354401
0.0465088656175
0.0477750934812
0.0465899857517
0.0431324552243
0.0381161459126
0.0327805705142
0.0276809124296
0.023693666274
0.0214737364271
0.0329190505639
16.2744070342
8.66046951062
4.4909039185
2.81358836318
1.81391348542
1.06803704078
0.463321064361
0.169761788523
0.0701969410094
0.0463884476407
0.0451449832336
0.0470745437897
0.0469994616509
0.0445317733204
0.0400675477632
0.0348071318589
0.029398047232
0.0248439721997
0.0220753604694
0.0322612073226
15.5020027307
10.1205582627
6.46410695299
4.49113114253
2.92809994183
1.67642465582
0.777082588098
0.249821291762
0.0828812758597
0.0472320557207
0.044670177288
0.0469507982083
0.0476314618943
0.0459374811243
0.042143590342
0.0370611435523
0.0314184230384
0.0262625856465
0.022824048377
0.031643792061
16.1604727934
12.5264561141
9.20687446172
6.61924674693
4.09779256148
2.1239112546
0.981505126784
0.281805015126
0.0838253590989
0.0482005393342
0.0459733609969
0.0479113641726
0.0485863425812
0.0473418186601
0.0442272051941
0.0394889253008
0.0337554270794
0.0280197064268
0.0237829392448
0.0311027266132
17.7571842839
15.347204402
12.0261462496
8.40251462972
4.71854535576
2.19537781475
0.935636511942
0.229016604015
0.0731824220173
0.0520061380842
0.0504115587264
0.0505965349027
0.0501440436832
0.0487152086733
0.0460561569915
0.0419207893244
0.0363642645692
0.0301787460947
0.025036860892
0.0306863415522
19.5018236892
17.6862394458
13.9163557804
9.10758828094
4.56460337521
1.88776057709
0.698681612356
0.177612270831
0.0785174863065
0.0653184643994
0.061337797557
0.0573260044015
0.0536460686083
0.0504405594287
0.0474952761365
0.0439219508782
0.0389799591648
0.0327135929265
0.0266750206552
0.030454857275
20.5216984238
18.5369383948
14.0248475466
8.46717997241
3.84930865691
1.44017831005
0.515626089969
0.176048981799
0.105658793653
0.0949370382318
0.0879539325351
0.0761752129487
0.0646860144263
0.055633495905
0.0496042438006
0.0454948707368
0.04123266276
0.0354725141145
0.0287764122654
0.0304901714535
20.3125134385
18.0172508991
13.2648244355
7.73883863864
3.46182040101
1.32991958936
0.531560078039
0.235202822309
0.169561114292
0.160621579267
0.153009496551
0.129373403516
0.100561329954
0.0745538086853
0.0573083259825
0.0480717422745
0.0431093233349
0.0381910187484
0.0313117059532
0.0308630756883
19.2490910183
16.7848220837
12.1903004384
7.06452435297
3.26668539305
1.39043729506
0.657790533
0.386384142369
0.324009303441
0.320912379743
0.314865299514
0.27196874376
0.208678451173
0.139216550198
0.0860124369307
0.0575728824897
0.0461190122757
0.0407454607825
0.0342382321333
0.0316655098152
17.817042514
15.5960646495
11.6607116964
7.22680855355
3.80146656294
1.92979256602
1.09847459956
0.787247431323
0.721256351128
0.718124176597
0.69094404805
0.605994656008
0.475845246031
0.318884329451
0.177291058496
0.0894625401039
0.0544151804967
0.0437765632775
0.037263687267
0.0328511368388
16.2648925323
14.4267436107
11.23953623
7.57397391178
4.60263507869
2.87512674389
2.06826845525
1.76347752178
1.64774005587
1.54334702524
1.38414842061
1.18414385045
0.945455470398
0.672587235692
0.389266558846
0.173641750698
0.0753695249263
0.0487490761534
0.0404844777459
0.0344482350416
14.833529594
13.5037115258
11.2201577416
8.53139807915
6.25369123479
4.83560596715
4.05399026269
3.51492911895
2.98766911045
2.45982916241
1.97667094829
1.59214087657
1.29019048352
0.997822551967
0.652846615695
0.302247329327
0.106698985279
0.0549401802875
0.0432018602232
0.035972149267
14.3978057636
13.5271189259
12.1008953245
10.3520320659
8.61588545986
7.06261805678
5.66031961721
4.342733064
3.1935949705
2.2763786654
1.6215006367
1.21649178108
1.01037458441
0.920846133428
0.750562324488
0.384438065288
0.12557325005
0.0592542686131
0.0449681782696
0.0369950599616
14.5307216346
13.4277926304
11.8382642266
9.91845093895
7.90856386138
6.00861877998
4.36539341443
2.99565744357
2.00772115842
1.3377547726
0.898587158089
0.648163510172
0.556382752936
0.0531212164207
0.0550642393638
0.108628534084
0.0729413228227
0.115574079534
0.0841075909096
0.111840405948
0.0831161021635
0.105452562351
0.0787357235355
0.0979946835642
0.0735841068099
0.0909798349235
0.0683476979025
0.0845476241913
0.0632865949096
0.0787739172315
0.0585031430009
0.0736060175092
0.0540419152394
0.0689866228121
0.0499132571714
0.0648381843858
0.046114957189
0.0610825282219
0.0426503520898
0.0576836780106
0.0395114246803
0.0546248944504
0.0366849691003
0.051890185342
0.0341579996842
0.0494628685901
0.0319201996553
0.0473292306309
0.0299635810396
0.0454790459963
0.0282817389946
0.0439099909253
0.0268706210488
0.0426241590771
0.0257252365802
0.0416467448237
0.0248500655961
0.0410191194039
0.0242382428815
0.0408178709496
0.0238936446495
0.041084983241
0.02374800087
0.0418367594041
0.0237573643577
0.0428283015715
0.0237611450353
0.043816943408
0.0236250023172
)
;

boundaryField
{
    inletfuel
    {
        type            turbulentIntensityKineticEnergyInlet;
        intensity       0.05;
        value           uniform 13.5;
    }
    inletair
    {
        type            turbulentIntensityKineticEnergyInlet;
        intensity       0.05;
        value           uniform 0.015;
    }
    outlet
    {
        type            inletOutlet;
        inletValue      nonuniform 0();
        value           nonuniform 0();
    }
    axis
    {
        type            empty;
    }
    leftside
    {
        type            kqRWallFunction;
        value           nonuniform List<scalar> 
33
(
0.0531212164207
0.0550642393638
0.0156095299775
0.0160365635786
0.0164549573487
0.0550642393638
0.0729413228227
0.0841075909096
0.0831161021635
0.0787357235355
0.0735841068099
0.0683476979025
0.0632865949096
0.0585031430009
0.0540419152394
0.0499132571714
0.046114957189
0.0426503520898
0.0395114246803
0.0366849691003
0.0341579996842
0.0319201996553
0.0299635810396
0.0282817389946
0.0268706210488
0.0257252365802
0.0248500655961
0.0242382428815
0.0238936446495
0.02374800087
0.0237573643577
0.0237611450353
0.0236250023172
)
;
    }
    burnerwall
    {
        type            kqRWallFunction;
        value           nonuniform List<scalar> 7(10.6213275473 9.06728258093 8.60704053389 0.0147841365936 0.0175764563256 0.0517111748521 5.7455346067);
    }
    front
    {
        type            wedge;
    }
    back
    {
        type            wedge;
    }
    procBoundary0to1
    {
        type            processor;
        value           nonuniform List<scalar> 
27
(
8.46817168115
8.38847146905
8.20882113361
7.98659554668
0.596287413177
0.623330278526
0.356550760707
0.113622718602
0.0577431081531
0.0446381895155
0.03680399278
7.50710079275
6.67136662199
5.67663592227
4.63865087337
3.65131891458
2.75667519052
2.02992854579
1.42699339936
0.937216964151
0.601413047618
0.41228943388
0.327163664224
0.596287413177
0.317164657639
0.0445565568995
0.0232220282524
)
;
    }
}


// ************************************************************************* //
