/*--------------------------------*- C++ -*----------------------------------*\
  =========                 |
  \\      /  F ield         | OpenFOAM: The Open Source CFD Toolbox
   \\    /   O peration     | Website:  https://openfoam.org
    \\  /    A nd           | Version:  7
     \\/     M anipulation  |
\*---------------------------------------------------------------------------*/
FoamFile
{
    version     2.0;
    format      ascii;
    class       volScalarField;
    location    "0.1";
    object      N2;
}
// * * * * * * * * * * * * * * * * * * * * * * * * * * * * * * * * * * * * * //

dimensions      [0 0 0 0 0 0 0];

internalField   nonuniform List<scalar> 
814
(
2.42979475429e-08
1.89702550335e-08
7.30087090783e-09
2.74314190185e-06
2.91403547148e-06
2.39356627618e-06
0.000152552697336
0.000262491359363
0.000654553225112
0.00508729689702
0.0157888114905
0.131691828114
0.0132232839485
0.0334977810173
0.150854221369
0.0248677789058
0.0543840025026
0.175660007409
0.0406458743499
0.0785610590782
0.197661263653
0.0615177616255
0.106242828982
0.218323603959
0.0889511288518
0.137658188847
0.239639175688
0.123388958219
0.172193123652
0.262126476685
0.163260797756
0.208249746265
0.285211419353
0.205584325963
0.244101241567
0.308361583093
0.247337108657
0.278614506639
0.331516048617
0.286787036753
0.311549998249
0.355020690054
0.324087212585
0.34380107633
0.379989916181
0.360571134297
0.376739132118
0.407622448882
0.397493542025
0.411225010621
0.438226857107
0.434715972732
0.446629873542
0.470480907471
0.470183362854
0.480494811746
0.501322141416
0.500853875778
0.509606357256
0.5272956351
0.524775337949
0.531971269766
0.546480577303
0.541787552752
0.547495625636
0.558969641166
0.553291456065
0.557717763082
0.566614180822
0.560960883583
0.564392842993
0.571348688643
0.566873100084
0.569693245817
0.575511860526
0.572614984317
0.575170967101
0.58052851151
0.578407576322
0.580838089853
0.5859727059
0.582962893995
0.585120159585
0.589709505096
0.58710850645
0.588922321944
0.59280018688
0.593439134701
0.594881321804
0.59796940366
0.607238076906
0.608428876542
0.610964975382
0.64901743643
0.650019448473
0.652138840193
0.531865877548
0.445745676403
0.391267507446
0.363131415364
0.350143483709
0.348238986504
0.35348470112
0.362561045337
0.373923863787
0.387364552823
0.403037212756
0.421936624226
0.444938032796
0.47180494354
0.500552602593
0.527615111455
0.549472987466
0.56450878212
0.573126242185
0.577593146122
0.580052585723
0.582992357608
0.587588471352
0.592848332128
0.595905360407
0.598060501917
0.602146404483
0.614422282579
0.654947899616
0.767997144558
0.767997754835
0.767998791393
0.767999420773
0.767999741063
0.767999892058
0.767999958412
0.767999985305
0.767999995286
0.767999998642
0.767999999654
0.767999999923
0.767999999985
0.767999999998
0.768
0.768
0.768
0.768
0.767999999998
0.767999999994
0.767855873405
0.767937939189
0.767978826238
0.7679922415
0.767997009845
0.76799886412
0.767999591317
0.767999867146
0.767999961103
0.767999989833
0.767999997634
0.767999999518
0.767999999915
0.767999999987
0.767999999998
0.768
0.768
0.767999999997
0.767999999965
0.767999999738
0.765894788637
0.767709894121
0.767903280553
0.767963294516
0.767985566542
0.76799446724
0.767998011927
0.767999369354
0.767999824703
0.767999957182
0.7679999906
0.767999998185
0.767999999695
0.767999999955
0.767999999994
0.767999999999
0.767999999999
0.767999999986
0.767999999711
0.767999993362
0.730931006964
0.765927133967
0.767410976078
0.767810804551
0.767936726877
0.767975009008
0.767991200885
0.767997240648
0.767999257281
0.767999827298
0.767999963567
0.767999993145
0.76799999887
0.767999999838
0.76799999998
0.767999999998
0.767999999997
0.76799999994
0.767999998192
0.767999826807
0.653793032052
0.715015836768
0.755956857205
0.765372781138
0.767353909014
0.767832027255
0.767964937916
0.767989365916
0.767997200149
0.767999371318
0.767999870413
0.767999975636
0.767999995951
0.767999999417
0.767999999928
0.767999999992
0.767999999991
0.767999999836
0.767999995696
0.767999776354
0.607578026334
0.698840699889
0.749569957303
0.763518568753
0.766854777193
0.767666539997
0.767892304548
0.767972574429
0.767991978415
0.767998126286
0.76799960693
0.767999923827
0.767999986847
0.767999998038
0.767999999748
0.767999999971
0.767999999977
0.76799999966
0.767999992252
0.767999702051
0.576816076612
0.691573945073
0.747419440103
0.762757690858
0.766509720924
0.76747466295
0.767803716917
0.767930613304
0.767982899064
0.767995487256
0.767998994258
0.767999793854
0.767999962131
0.76799999401
0.76799999919
0.767999999902
0.76799999995
0.767999999397
0.767999988208
0.76799963824
0.545252599852
0.676608251941
0.746580866756
0.762525553717
0.766190691687
0.767243190018
0.767681477425
0.767874869803
0.767966853578
0.767990543532
0.767997758943
0.767999509706
0.767999902949
0.767999983465
0.767999997603
0.767999999696
0.767999999894
0.767999999019
0.767999983633
0.767999589461
0.52050439922
0.662835174531
0.746099421147
0.762128746083
0.76572761971
0.766939953449
0.767526943663
0.76781177986
0.767935081782
0.767983483841
0.767995556281
0.767998949721
0.76799977508
0.767999958375
0.767999993467
0.767999999113
0.76799999977
0.767999998479
0.767999978282
0.767999546008
0.504257519023
0.650357463857
0.743026532379
0.760964686314
0.765006097403
0.766553414532
0.76734230318
0.767729011104
0.767896973096
0.76797131748
0.767991653308
0.76799791218
0.76799952009
0.767999903286
0.767999983457
0.767999997577
0.767999999487
0.767999997717
0.767999971822
0.767999498139
0.4941890192
0.637143191108
0.735395082109
0.758798232489
0.764014105722
0.76609233645
0.767127748378
0.767626870361
0.767847129172
0.76795266874
0.767985127027
0.767996082439
0.767999041619
0.7679997901
0.767999960756
0.76799999376
0.767999998822
0.767999996639
0.767999963808
0.767999442034
0.488944355877
0.625254687573
0.726534395794
0.755954788623
0.762860918081
0.765577118053
0.766881808144
0.767501194207
0.767789470888
0.767918528308
0.767976231632
0.76799299486
0.767998182855
0.767999570137
0.767999912114
0.767999984773
0.767999997252
0.767999995082
0.767999953751
0.767999376963
0.488848061044
0.618265682159
0.718523078764
0.752854012089
0.761620839703
0.765009952098
0.766595533334
0.767346628688
0.767709970183
0.767878397249
0.767961433672
0.767987780256
0.767996683648
0.767999160868
0.767999812831
0.767999964613
0.76799999359
0.767999992759
0.767999941151
0.767999302094
0.493672024285
0.61600659482
0.713018514026
0.749767759348
0.760296674793
0.764362653769
0.766251277389
0.767155833516
0.767608626586
0.767831003539
0.767934403059
0.767980390044
0.767994133971
0.767998424556
0.76799961879
0.767999921378
0.767999985258
0.767999989107
0.76799992546
0.767999215724
0.504063994838
0.619389442833
0.710653893256
0.746817555322
0.758819021739
0.763592548316
0.765820641009
0.766915935258
0.767478844625
0.767764140744
0.767900812358
0.767967812334
0.767989726947
0.767997128177
0.767999253587
0.767999832436
0.767999966855
0.767999982991
0.767999905968
0.767999115194
0.520120344723
0.627215629738
0.710065981376
0.743791654833
0.756968786688
0.762603091359
0.765244815527
0.766596450924
0.767304310653
0.767672846671
0.7678549314
0.767947664569
0.767982494883
0.767994885349
0.767998588757
0.767999656565
0.76799992751
0.767999972063
0.767999881682
0.767998997316
0.540526823091
0.637541070535
0.710255971526
0.740647470275
0.754225319315
0.76104725213
0.76438545423
0.766123826203
0.767054303644
0.767544091623
0.767794130967
0.767914084425
0.767971802192
0.767991031014
0.767997414467
0.767999321655
0.767999845944
0.76799995144
0.76799985109
0.767998858999
0.562145742926
0.647256883743
0.709495913413
0.736326383307
0.749701908442
0.758314068983
0.762956209256
0.765377496802
0.766681701334
0.767360339609
0.767706227571
0.767871255856
0.767954685208
0.767984535512
0.767995382824
0.767998701436
0.767999680896
0.767999910877
0.767999811619
0.767998697038
0.580914833906
0.653651899525
0.704730567245
0.72908966533
0.742677734368
0.753516043974
0.760582142897
0.764242819836
0.766156241289
0.767118686678
0.767594048392
0.767820876874
0.767926074821
0.767975312528
0.76799186471
0.767997569408
0.767999352007
0.767999828612
0.767999758371
0.767998507498
0.593778343481
0.653557686616
0.695269058671
0.718361731235
0.733377189888
0.746327429155
0.757000707438
0.762705712839
0.765521104764
0.766851626136
0.767470750561
0.767759410888
0.767893138156
0.767960367554
0.767985677473
0.767995467866
0.767998695115
0.767999657524
0.767999681253
0.767998285278
0.600091837076
0.647212134441
0.682223224683
0.705041100391
0.72249436017
0.738772242796
0.753013701751
0.761217899448
0.765017287118
0.766644559758
0.767360031471
0.767691947155
0.767853911388
0.767934186105
0.767975288676
0.76799125914
0.767997351574
0.767999293874
0.767999558168
0.767998023398
0.60090922762
0.637971794323
0.668426692799
0.692191084386
0.713551647118
0.734290142076
0.751176980319
0.760772339957
0.764877992093
0.766536671085
0.767254430563
0.767605657845
0.767792881638
0.767894919833
0.767954827484
0.767982319985
0.767994415104
0.767998504949
0.767999339095
0.767997710946
0.599211767949
0.629526956589
0.657779419147
0.683958198177
0.710096092969
0.73496978929
0.752653147901
0.761572651063
0.765079371905
0.766451004281
0.767092767015
0.767456670115
0.767681493455
0.767824003132
0.767911072061
0.767963538179
0.767987533769
0.767996732698
0.767998910876
0.767997328567
0.59748564853
0.624334912225
0.652786308054
0.682447258803
0.712950598447
0.739744655398
0.755642980042
0.762297697711
0.764917452102
0.766086521219
0.766713380147
0.767141659728
0.767452843875
0.767676376976
0.767827382283
0.767919368389
0.767972097163
0.767992449555
0.767998019697
0.767996838202
0.598428942962
0.624876770757
0.655130548638
0.688100940971
0.720672359954
0.745289525992
0.757369395612
0.762182498245
0.764189870443
0.765208785614
0.765893663591
0.766473943329
0.766966249312
0.76736095554
0.767645823194
0.767829215024
0.767932359401
0.76798253754
0.767996074357
0.76799616619
0.602210012623
0.628510600633
0.659851205353
0.69377619485
0.72498751669
0.746340084598
0.756463367329
0.760693461491
0.762435135302
0.763387571486
0.764162510985
0.765057613086
0.765926802993
0.766685187194
0.767255950914
0.767635814902
0.767849600153
0.767959123067
0.767991590608
0.767995166838
0.606970409408
0.632994853616
0.664297007222
0.697418810458
0.726217146467
0.74477253787
0.753708710733
0.757462550101
0.758905283885
0.759724166426
0.760665011451
0.762066549008
0.763644466556
0.765190624589
0.766415477674
0.767225610225
0.767683303327
0.767900696191
0.767982825269
0.767993596401
0.608748039362
0.632772798219
0.661780218256
0.692310528875
0.719143324534
0.737432531264
0.746945809602
0.750845290737
0.752060970497
0.752824602543
0.754110130982
0.756281904376
0.759067042025
0.762069931805
0.764637300681
0.766403770776
0.767370726275
0.767801328685
0.767966709481
0.767991195672
0.609191345207
0.630380917218
0.656297294784
0.684005459661
0.708965299893
0.726672990276
0.736295097652
0.740317834644
0.741955457306
0.743347277452
0.745409577141
0.748405739035
0.752328686221
0.756930921759
0.761451854873
0.764903457123
0.766849593236
0.767661115998
0.767934158276
0.767988415674
0.611181150242
0.628427957634
0.64983661178
0.673229177574
0.6951642107
0.711862526685
0.722456594954
0.728883717098
0.733354704501
0.737099026047
0.740621053246
0.74415510389
0.748049260495
0.75269874407
0.758040049073
0.763079823602
0.766275888216
0.767525385211
0.767908615639
0.767985258381
0.622048202701
0.636167849261
0.653553621937
0.672240202841
0.690118378612
0.705514336824
0.717855175221
0.727551895164
0.735055491614
0.740878990032
0.745245724515
0.748294602479
0.75057855367
0.752978273824
0.756808338189
0.76208101139
0.766003477051
0.76746824177
0.767897998396
0.76798257242
0.66101632442
0.671393439967
0.683730209548
0.696834687515
0.709638766196
0.721340715744
0.731404988473
0.739919572625
0.746243861826
0.750664253607
0.753617685855
0.75541209278
0.756277934231
0.767989666271
0.767988836278
0.767993230968
0.767991515165
0.767995184225
0.767993599802
0.767996210272
0.76799464755
0.767996700965
0.767995074266
0.767996901831
0.767995230533
0.767996920255
0.767995216883
0.76799681621
0.767995084587
0.767996621263
0.767994855432
0.767996351945
0.76799453874
0.767996015274
0.76799413552
0.767995615789
0.767993642779
0.767995154276
0.767993055006
0.767994626063
0.767992360669
0.767994022158
0.767991542574
0.767993330123
0.76799057783
0.7679925338
0.76798943707
0.767991612764
0.767988083188
0.767990540763
0.767986467627
0.767989284515
0.767984527517
0.767987798817
0.767982182504
0.767986033237
0.767979335068
0.767983903263
0.767975858746
0.76798131778
0.767971619495
0.767978084566
0.767966398422
0.767974053239
0.76795991316
0.767968822027
0.767951714974
0.767961943137
0.767941254677
)
;

boundaryField
{
    inletfuel
    {
        type            fixedValue;
        value           uniform 0;
    }
    inletair
    {
        type            fixedValue;
        value           uniform 0.768;
    }
    outlet
    {
        type            zeroGradient;
    }
    axis
    {
        type            empty;
    }
    leftside
    {
        type            zeroGradient;
    }
    burnerwall
    {
        type            zeroGradient;
    }
    front
    {
        type            wedge;
    }
    back
    {
        type            wedge;
    }
    procBoundary0to1
    {
        type            processor;
        value           nonuniform List<scalar> 
27
(
0.714293166264
0.714688642895
0.715528408695
0.716656057487
0.756744074454
0.758327541813
0.76249710238
0.766244614541
0.767548421516
0.767912961849
0.767980617192
0.719093296267
0.723305433574
0.728389723781
0.733890776232
0.739462454635
0.744852926478
0.749370127311
0.75303882272
0.755964975521
0.758107822865
0.759491325757
0.76024532622
0.756744074454
0.760493966449
0.767952527223
0.767927866422
)
;
    }
}


// ************************************************************************* //
