/*--------------------------------*- C++ -*----------------------------------*\
  =========                 |
  \\      /  F ield         | OpenFOAM: The Open Source CFD Toolbox
   \\    /   O peration     | Website:  https://openfoam.org
    \\  /    A nd           | Version:  7
     \\/     M anipulation  |
\*---------------------------------------------------------------------------*/
FoamFile
{
    version     2.0;
    format      ascii;
    class       volScalarField;
    location    "0.1";
    object      nut;
}
// * * * * * * * * * * * * * * * * * * * * * * * * * * * * * * * * * * * * * //

dimensions      [0 2 -1 0 0 0 0];

internalField   nonuniform List<scalar> 
814
(
0.00234437755411
0.00142881126887
0.000181593977619
0.00195761760056
0.00120402112469
0.00015485645304
0.00175151240302
0.00113478538469
0.000146984020323
0.00151600691049
0.00103093715112
0.000261348064296
0.00132962294879
0.000962949143026
0.000446047945988
0.00119176739091
0.000953142634833
0.000645831342133
0.00112086973754
0.00100406596088
0.000866304040086
0.00112201187426
0.00111209651482
0.00110166238349
0.0011959751071
0.00127241674623
0.00134897619332
0.00134029671555
0.00147344446932
0.00159999215602
0.00154205861385
0.00169781103776
0.00184394583943
0.00177684361411
0.0019260649867
0.00206873496739
0.00201078157141
0.00213437061269
0.00225430667757
0.00220572880349
0.00229454420313
0.00237693645566
0.00232449473415
0.00237805379821
0.00241635281798
0.00233830199804
0.00236183512203
0.00235887709885
0.00224067065797
0.00224284227358
0.00220987282881
0.00206210970274
0.00205287153635
0.00200609044812
0.00186939022396
0.00185866100957
0.00181540077687
0.00173214179834
0.00172673847232
0.00169885643008
0.00168659825789
0.0016901910871
0.00168374849513
0.00174234738387
0.00175772734296
0.00177776772606
0.00190364596195
0.00193231966571
0.00198055425878
0.00215607571943
0.0021945559447
0.00226302586147
0.00245043568495
0.00248939332909
0.00255852217237
0.00270179616752
0.00273193712259
0.00278331739789
0.00285818539487
0.00287544657564
0.00290209643875
0.00290352765718
0.00291037434966
0.00291814867825
0.0028640524518
0.00286493723438
0.00286243478817
0.00278784091666
0.00278567220083
0.00277839720729
0.00279776101502
0.0027955474448
0.00278875566776
0.00289760265839
0.00289225068246
0.00287774134964
0.00238697649411
0.000371037902686
0.00061712201556
0.000874547552401
0.0011209907622
0.00137175303506
0.0016236002975
0.00186534983967
0.00208150713433
0.00224754026375
0.00234111259887
0.00234780868264
0.00226120193643
0.00209519448002
0.00189237068349
0.00172093883492
0.00163409410498
0.00165330356639
0.00178631618927
0.00202735443039
0.00233486957374
0.00262756538338
0.0028291572062
0.00291901513286
0.00291539204037
0.00285046184117
0.00276391216553
0.0027773503612
0.00285704006766
2.41919398422e-05
0.000144849560959
0.00020962521632
0.000232615122634
0.000249450722273
0.00026656564217
0.000285251053603
0.000305520758391
0.000324287058613
0.000340829098806
0.000353303152611
0.000361587054253
0.000365129839204
0.000364854166693
0.000361194302991
0.000355901154853
0.00035012771419
0.00034412523065
0.000326239489982
9.62309464492e-05
2.83581388443e-05
0.000110996366103
0.000192597916501
0.00022825040818
0.000257696812113
0.000282402264624
0.000304061545226
0.000326119140197
0.000345865306513
0.000361940218305
0.000373847073173
0.000380496363772
0.0003824016344
0.000379558484779
0.00037357435863
0.000365212217445
0.000357131008857
0.000348156530339
0.000318929574724
9.75375040997e-05
6.88686523356e-05
0.000102877009734
0.000159113278934
0.000224507584792
0.000256464320317
0.000291024802953
0.000316436954357
0.00034146804676
0.000362211168867
0.000377574065381
0.000388081580855
0.000392982539698
0.000393133231091
0.000388640271633
0.000380968816316
0.00037117637406
0.000361513461104
0.000351326523284
0.000314663341445
9.88009856794e-05
0.000119646080658
7.51965463071e-06
3.02016764927e-05
0.000138127832279
0.000205976561628
0.000269207396917
0.00030771385206
0.000342697264624
0.000370129138122
0.000388288481722
0.000398909424812
0.000402741206137
0.000401529905252
0.000395988618232
0.000387077789045
0.000376503859852
0.0003655771191
0.000354850590348
0.00031189125839
0.000110676175059
9.81237286093e-05
3.75420285179e-05
7.24250038991e-06
7.5741241204e-06
3.72693225684e-05
0.000126152294
0.000237771949113
0.000310388264977
0.000360536245472
0.000390380502232
0.000406000061072
0.0004106210555
0.000408865712183
0.000402667126169
0.000392837604926
0.000381640053584
0.000369667233702
0.00035826938127
0.000310363495372
0.000114518395033
0.000211328957575
6.38770414007e-05
1.20408101281e-05
6.18392255795e-06
2.65318406079e-05
9.31519747007e-05
0.000185437878609
0.000262854182583
0.000332047611308
0.000381081609809
0.00040834903913
0.000416973785568
0.000415887214502
0.000409279904831
0.000398715906137
0.000386791477102
0.000373907489056
0.000361267678431
0.000308078147063
0.000119986362169
0.000394552349311
0.000102622183183
1.6664819051e-05
7.0949746331e-06
2.63193237125e-05
8.04482823059e-05
0.000148110543049
0.000217384474138
0.000295230442214
0.000362464825785
0.000405187826307
0.000421587060778
0.000422850770203
0.0004162297677
0.000405018886107
0.000392244992967
0.000378481728468
0.00036424501986
0.000304565792627
0.000125307353612
0.000672883041106
0.000178554574864
2.16019987339e-05
8.27631551773e-06
2.73946722355e-05
6.94629487798e-05
0.000117700944938
0.000179381855373
0.000259612193032
0.000338861917015
0.000396397287378
0.000423646127266
0.000429447600548
0.000423634502653
0.000411910257983
0.000398241990122
0.000383536469589
0.000367617371838
0.00030053347579
0.000129450737771
0.00102456297342
0.000275414356391
2.59841308048e-05
9.86145663964e-06
2.69458681839e-05
5.67258582302e-05
9.23771178305e-05
0.000148888830083
0.000228046149857
0.000313303021725
0.000382408688371
0.000422038844638
0.000434824177392
0.000431192853242
0.000419321441683
0.000404814564219
0.000389064949848
0.000371392882099
0.000296639632679
0.00013259920019
0.00136381461433
0.000387262541657
3.56308857623e-05
1.17600662855e-05
2.38452874202e-05
4.40132731318e-05
7.25448186262e-05
0.000124568198652
0.000200541026328
0.000287070364378
0.000364088917879
0.000415986267285
0.000437942319829
0.000438338024949
0.000427049284964
0.000411883975659
0.000394998807184
0.000375379762993
0.000292827673722
0.000135317788486
0.00164708871214
0.000521865334629
6.09481984164e-05
1.45971804229e-05
1.99919210599e-05
3.37633841493e-05
5.78304447553e-05
0.000104957203558
0.000175988369522
0.000260930869611
0.000342795036397
0.000405401855636
0.000437909449502
0.000444378522409
0.000434821191963
0.000419361349444
0.000401297916842
0.000379408428029
0.000288452315333
0.000137651890845
0.00186369873818
0.000662484180925
9.65092981691e-05
2.02943277633e-05
1.8566435679e-05
2.71848424028e-05
4.71855727495e-05
8.85694742655e-05
0.000153716346709
0.000235173084175
0.000319778618334
0.000390774787661
0.000434116362191
0.000448539266133
0.000442259254678
0.000427138525244
0.000407953298612
0.000383391005476
0.000283295571199
0.000139528029696
0.00199918918603
0.000774858513668
0.000136192479018
3.02802477314e-05
2.06625115457e-05
2.39645454008e-05
3.93860385683e-05
7.44247965142e-05
0.000133118880128
0.000210529304358
0.000295757402887
0.000372810352955
0.000426264875165
0.00045001379452
0.000448823406758
0.000435028001926
0.000414949280512
0.000387300481678
0.000277765957404
0.000140974854212
0.0020479768235
0.000846263072367
0.000172216022246
4.61111742598e-05
2.71843622258e-05
2.37586902209e-05
3.38133139529e-05
6.22236335629e-05
0.000114121530319
0.000186920013816
0.000270904531042
0.000352158290656
0.000414329381185
0.000448082724381
0.000453816089436
0.00044271756278
0.000422232460433
0.000391152563837
0.00027245492989
0.000142107178756
0.00201122184708
0.000863255203547
0.000200923275415
7.10779347442e-05
4.02768327827e-05
2.69759844903e-05
3.06503793015e-05
5.20131708625e-05
9.63873962446e-05
0.000163620078293
0.00024543198209
0.000329105147231
0.000398491305295
0.000442228643163
0.000456458202146
0.000449747963988
0.000429688457483
0.000395004331761
0.000267819831398
0.000143015114686
0.00189523242006
0.000841241013709
0.000233967220498
0.000110569808642
6.34414310801e-05
3.5354426597e-05
3.09612494865e-05
4.4043501561e-05
7.90980943066e-05
0.000139403677571
0.000218393989331
0.000303556603516
0.000379030538568
0.000432209688959
0.0004560318806
0.000455523675503
0.000437115891225
0.000398951758705
0.00026417761083
0.000143759500671
0.00172926628286
0.000810582297672
0.000286938899428
0.000170636471161
0.000102690809995
5.38830084657e-05
3.7152918141e-05
3.93996242982e-05
6.25189059846e-05
0.000113271569187
0.000188817863398
0.000275175050947
0.000356335494056
0.00041815227075
0.000452016602242
0.000459364621522
0.000444193646282
0.000403111525987
0.0002617758499
0.000144412170064
0.00156535788531
0.000812921396169
0.000380421847042
0.000257552696378
0.00016982394352
9.37554477168e-05
5.45545608989e-05
4.11951167374e-05
4.96909303484e-05
8.7292987223e-05
0.000157226418159
0.000244782505715
0.000331036002932
0.000400562377044
0.000444150955015
0.00046056400605
0.000450435997553
0.000407579379741
0.000260837559189
0.000145062985503
0.00146329518592
0.000880186751821
0.00053266426028
0.000393236977816
0.000285202601378
0.000175725560199
9.29843574264e-05
5.32969561128e-05
4.41419059562e-05
6.71022957384e-05
0.000128472455042
0.000215426798473
0.000304664349902
0.000380283412429
0.000432353083325
0.00045831879403
0.000455120001424
0.000412352774808
0.000261589235806
0.000145814802438
0.00145583591076
0.00103941010985
0.000762189849761
0.000611469069738
0.000465116203507
0.000311870095438
0.000164001296415
7.74105860555e-05
4.55936749816e-05
5.53984813118e-05
0.000107947237118
0.000191081297062
0.000279540114616
0.000357681535016
0.000416167482367
0.000451422216846
0.000457113524862
0.000417183975213
0.000264276264277
0.000146789878824
0.00155713626977
0.0013027471669
0.0010932261373
0.000928361210372
0.000712388316935
0.000470847321148
0.000256792152272
0.000106199879338
4.95856623523e-05
5.16493713376e-05
9.8474886465e-05
0.000173652016562
0.000255064679488
0.000330749018089
0.00039342662186
0.000437570682839
0.000454356337052
0.000421340964803
0.000269163684467
0.000148148340966
0.00177746800762
0.00166800576359
0.00151398561905
0.00129825118741
0.000956894233894
0.000587065060368
0.000318098966915
0.00011994163687
5.20867974835e-05
5.52889391696e-05
9.77179611441e-05
0.000158783621734
0.000226181997525
0.000294791710795
0.000359320041113
0.000412606637582
0.000443244659174
0.000423000126937
0.000276421649806
0.000150102478849
0.00209595364874
0.00208534283972
0.00193448153656
0.00160345801613
0.00109435157806
0.000614161877151
0.000315347024929
0.000109741051504
5.60526913225e-05
6.76240121803e-05
9.97091451323e-05
0.000140152821043
0.000188135755616
0.000244845260991
0.000307603021378
0.000370030329949
0.000418104557702
0.000418615097765
0.00028594697782
0.000152947719286
0.00244381823545
0.00245687525183
0.00223563568101
0.00174495161097
0.00108452091678
0.000550775126395
0.000260062088047
0.000101766507427
7.14373898642e-05
8.35054734691e-05
9.99007159895e-05
0.000119277684196
0.000146138133254
0.000185401943453
0.000239584662669
0.000306183552136
0.000372862579065
0.00040243753271
0.000296505946862
0.0001570378342
0.0027245867221
0.0026761110715
0.00232263298071
0.00168066728803
0.000952576671409
0.000448615452096
0.000214943754176
0.00011241038653
9.81322029487e-05
0.000105446260869
0.000110032764076
0.000111572390352
0.000117499172606
0.00013434577462
0.000169183342416
0.000226856607389
0.000303651814706
0.000367110503387
0.000305094833253
0.000162832945779
0.00287665442365
0.00273886993576
0.00228893667896
0.00158859752044
0.000882672133325
0.000433845974849
0.000233604071091
0.000150003105727
0.000141315859548
0.000147614881305
0.000148345527734
0.000136433386013
0.000121622450018
0.00011294619607
0.000120297453535
0.000154081369399
0.000222344726346
0.000310476709594
0.000305877006158
0.00017048866126
0.00291252293526
0.00270288893944
0.00220607763672
0.00150995932866
0.000864200253173
0.000473199943279
0.000297137765211
0.000230203461302
0.000227013960237
0.000239402123948
0.000244394345429
0.000222795824795
0.000185210414512
0.000142062456023
0.000112070081193
0.000110524282176
0.000150021232672
0.000238263088169
0.00029287310425
0.000179962141086
0.0028802571625
0.00266464550013
0.00221246143563
0.00159831174666
0.00102467709953
0.000655148408513
0.000474613125638
0.000410702727281
0.000416405940694
0.000438437565964
0.000443185741771
0.000410852002973
0.000344995000329
0.000253573240147
0.000164113743671
0.000109494225558
0.000108902516309
0.000174952843746
0.00026757677064
0.000189930233469
0.00280540227189
0.00261293881529
0.00223770699854
0.0017344274329
0.00126213381227
0.000960791940973
0.000822007028781
0.000785025257045
0.000792966321932
0.000792068702248
0.000758956670088
0.000694530375705
0.00059637058163
0.00046061974224
0.000297673008428
0.000160019848234
0.000101432245553
0.000133689267405
0.000238607649856
0.000199694007121
0.00272144971188
0.00257638299933
0.00231202403099
0.00196782674804
0.00165351457572
0.00146635542789
0.00138427032641
0.00132890504328
0.00124347392715
0.00112402039749
0.000989534276535
0.000867421604444
0.000760608782586
0.000638095970529
0.000459097727745
0.000245911051679
0.000116626645309
0.000117883682755
0.000221170225852
0.000207547120874
0.00274644989556
0.00265764074459
0.00251146914645
0.00232551831729
0.00213675961255
0.00196004163241
0.00177206502752
0.0015431047475
0.00128901649116
0.00104048007195
0.000833006967282
0.00069425538624
0.000628461604134
0.000608113800476
0.000526876773668
0.00030517467539
0.000130135848429
0.000117248075335
0.000218296995561
0.000213188946724
0.00280627229975
0.00269009098299
0.00251944840223
0.00230033095603
0.0020468786004
0.00177039335699
0.00148343951661
0.00118406214692
0.000914242727299
0.000693521183421
0.000528279876069
0.000429058912981
0.000403944295609
0.000171573468285
8.84943451731e-05
0.000144351380745
0.00011722530241
0.000146130165575
0.000135170154292
0.000144184912879
0.000133581053857
0.000142213494993
0.000126544982113
0.000140045623887
0.000118268740513
0.00013811386527
0.000109856268576
0.000136140043533
0.000101726522161
0.000134046338026
9.40430722671e-05
0.0001317867962
8.6877482448e-05
0.000129379675784
8.02463407306e-05
0.000126852594985
7.41460541868e-05
0.000124224383501
6.85819491567e-05
0.000121560397034
6.35411385118e-05
0.000118947944145
5.90024275449e-05
0.00011647002956
5.494501287e-05
0.000114200889529
5.13524147972e-05
0.000112212816855
4.82118815702e-05
0.000110580167112
4.55133880984e-05
0.000109392365285
4.32504770471e-05
0.00010874865261
4.14150838458e-05
0.000108826646977
4.00146488429e-05
0.000109785849887
3.90379081827e-05
0.000111892444499
3.84915038318e-05
0.000115022971033
3.82651963169e-05
0.000119018378089
3.82885687266e-05
0.000122518417804
3.83020363642e-05
0.000124528030686
3.8089411718e-05
)
;

boundaryField
{
    inletfuel
    {
        type            calculated;
        value           uniform 0.0100623058987;
    }
    inletair
    {
        type            calculated;
        value           uniform 0.000335410196625;
    }
    outlet
    {
        type            calculated;
        value           nonuniform 0();
    }
    axis
    {
        type            empty;
    }
    leftside
    {
        type            nutkWallFunction;
        Cmu             0.09;
        kappa           0.41;
        E               9.8;
        value           nonuniform List<scalar> 
33
(
0
0
3.6567757357e-06
3.86618672795e-06
4.06827750856e-06
0
0
0
0
0
0
0
0
0
0
0
0
0
0
0
0
0
0
0
0
0
0
0
0
0
0
0
0
)
;
    }
    burnerwall
    {
        type            nutkWallFunction;
        Cmu             0.09;
        kappa           0.41;
        E               9.8;
        value           uniform 0;
    }
    front
    {
        type            wedge;
    }
    back
    {
        type            wedge;
    }
    procBoundary0to1
    {
        type            processor;
        value           nonuniform List<scalar> 
27
(
0.0020215884949
0.0020124035312
0.00199254054696
0.00196753109236
0.000447330714843
0.000468173256332
0.000294278181761
0.0001257085824
0.000128486280992
0.00023583756422
0.000214840194778
0.00191646307847
0.00182171324716
0.00170304605409
0.00156573525105
0.0014090936883
0.0012247183391
0.00102219274216
0.00080344025204
0.000589007902739
0.000420820164931
0.000318522804056
0.000274750759326
0.000447330714843
0.000278901999263
0.000124219726418
3.74451762356e-05
)
;
    }
}


// ************************************************************************* //
