/*--------------------------------*- C++ -*----------------------------------*\
  =========                 |
  \\      /  F ield         | OpenFOAM: The Open Source CFD Toolbox
   \\    /   O peration     | Website:  https://openfoam.org
    \\  /    A nd           | Version:  7
     \\/     M anipulation  |
\*---------------------------------------------------------------------------*/
FoamFile
{
    version     2.0;
    format      ascii;
    class       volScalarField;
    location    "0.1";
    object      O2;
}
// * * * * * * * * * * * * * * * * * * * * * * * * * * * * * * * * * * * * * //

dimensions      [0 0 0 0 0 0 0];

internalField   nonuniform List<scalar> 
814
(
3.5336202889e-09
2.50759941405e-09
3.69755704509e-10
4.65436248127e-07
4.7096621322e-07
2.15645219014e-07
2.86226895627e-05
4.94142231985e-05
0.000114563361521
0.000995903280967
0.00320487567943
0.0286180108987
0.0015113018149
0.00344874873873
0.0133737228298
0.00150795002062
0.00264079720415
0.00618558415565
0.00122699014142
0.00169689071684
0.00267546265832
0.000866764729413
0.000974550546636
0.00111687603677
0.000545333080489
0.00051812368503
0.000466811800489
0.000310965727261
0.000262153024802
0.000206689153635
0.000164242206777
0.000130338322008
0.000102294815939
8.27335615777e-05
6.60423975341e-05
5.71654670422e-05
4.16646577908e-05
3.57931881434e-05
3.68017079534e-05
2.2655119748e-05
2.21833247394e-05
2.80421483005e-05
1.47319396657e-05
1.67241793749e-05
2.51481282216e-05
1.21735129149e-05
1.53148937052e-05
2.51926460605e-05
1.24738845108e-05
1.6387885119e-05
2.76977958048e-05
1.50213241072e-05
1.99448359806e-05
3.37534101099e-05
1.95304220433e-05
2.56495619501e-05
4.23394024298e-05
2.4992977166e-05
3.19103768472e-05
5.00268138649e-05
2.98387836639e-05
3.66710685143e-05
5.3692442248e-05
3.27496027644e-05
3.87161502493e-05
5.29464636408e-05
3.42835762177e-05
3.93831747286e-05
5.13214176031e-05
3.79725696784e-05
4.3367025782e-05
5.62845869747e-05
5.17522503797e-05
6.01631675668e-05
8.07250858986e-05
7.62353159265e-05
8.91758754669e-05
0.000120685171604
0.000100797544621
0.000117260450856
0.000157026158611
9.94550849688e-05
0.00011248832802
0.000143199868497
8.20431044355e-05
9.02979342319e-05
0.00010936512085
6.46044512856e-05
6.93072564541e-05
7.99733110174e-05
9.32281982377e-05
9.90370303425e-05
0.000112167556505
0.00218528619779
0.0022453800693
0.00237924292913
0.133386379598
0.0430454292812
0.0122111453168
0.00348058787472
0.00108111450639
0.000399671759687
0.000195584332712
0.000116685025645
7.57387813319e-05
5.63657982772e-05
4.87126577951e-05
4.7046256334e-05
4.79319221674e-05
5.22907918955e-05
6.29224816895e-05
7.60610882055e-05
8.42018463274e-05
8.32554993771e-05
7.60301259659e-05
7.02890604092e-05
7.77706841406e-05
0.000115662236857
0.000173803992021
0.000223558105003
0.000192482762465
0.000138878817992
9.58972272431e-05
0.000132613480139
0.00256306120234
0.231993810452
0.231994837047
0.231996173897
0.231997519582
0.231998586313
0.231999298312
0.231999693662
0.231999882309
0.231999959971
0.231999987986
0.231999996849
0.231999999283
0.231999999859
0.231999999976
0.231999999997
0.232
0.232
0.231999999998
0.231999999983
0.231999999954
0.23171636492
0.231863314625
0.231930429639
0.231962968604
0.231981188554
0.231991606848
0.231996676685
0.231998854274
0.231999651062
0.231999906232
0.23199997773
0.231999995396
0.231999999176
0.231999999873
0.231999999983
0.231999999998
0.231999999998
0.23199999998
0.231999999726
0.23199999792
0.228711398283
0.231222932405
0.231555651158
0.231766848103
0.231888083341
0.231952676036
0.231982084776
0.231994148301
0.231998342982
0.231999589911
0.231999908993
0.231999982266
0.231999996994
0.231999999559
0.231999999944
0.231999999993
0.231999999993
0.231999999888
0.231999997707
0.231999947356
0.19021485463
0.220338755595
0.227599897642
0.230410657454
0.231419613172
0.231763947583
0.231915647635
0.231973282032
0.231992758072
0.231998306858
0.231999640833
0.231999932054
0.231999988744
0.231999998382
0.2319999998
0.231999999977
0.231999999973
0.231999999522
0.231999985662
0.231998626422
0.0313339648235
0.0125813272435
0.127040875896
0.206493813105
0.225596718919
0.230328202578
0.231650917711
0.231894179766
0.231972130823
0.231993735757
0.231998705808
0.231999755887
0.231999959283
0.231999994116
0.231999999266
0.231999999916
0.231999999923
0.231999998701
0.231999965864
0.231998226295
0.0051933337301
0.00556360235389
0.0741506955909
0.188091564857
0.22045882206
0.228614306822
0.230905627293
0.231722507086
0.231919046382
0.231981107283
0.23199603436
0.231999230138
0.231999866735
0.231999980064
0.231999997435
0.231999999703
0.231999999814
0.231999997306
0.231999938549
0.23199763698
0.0011967492115
0.00498162252309
0.0553915564908
0.180185320347
0.216798825846
0.226589064336
0.229979131466
0.231289154416
0.231825666468
0.231954063004
0.231989765114
0.231997900659
0.231999613748
0.231999938772
0.231999991695
0.231999999003
0.231999999583
0.23199999522
0.231999906477
0.231997130862
0.000561407312855
0.00493769029735
0.0496514342181
0.177596154489
0.213359394828
0.224122661993
0.228689816672
0.230707165674
0.231659226617
0.231902934838
0.231977016302
0.231994972474
0.231999004053
0.23199983006
0.231999975316
0.231999996874
0.231999999081
0.23199999221
0.231999870191
0.231996743987
0.000469229977148
0.0047450220203
0.044947583176
0.173204574604
0.208401148726
0.220887839826
0.227051082127
0.230042141031
0.231327410016
0.231829236639
0.231954107629
0.23198916237
0.231997678858
0.231999570026
0.23199993241
0.231999990841
0.231999997932
0.231999987914
0.231999827755
0.231996399384
0.000411244987714
0.00352271674435
0.0289314638995
0.161503146446
0.200788326628
0.21677316785
0.225086931612
0.229165401314
0.230926079586
0.23170157601
0.231913266407
0.231978333001
0.231995021847
0.231998996301
0.231999828135
0.231999974853
0.231999995198
0.231999981821
0.231999776514
0.231996019773
0.000285593425147
0.00190961298475
0.0146783395397
0.141701915394
0.190494476691
0.211882940279
0.22280221205
0.228079851797
0.230398572578
0.231505030122
0.231844653797
0.231959140076
0.231990012436
0.231997812421
0.231999590745
0.231999934965
0.231999988576
0.231999973108
0.231999712948
0.231995574824
0.00018977049041
0.00119303205099
0.0104142156339
0.11785261915
0.178772481197
0.206442227498
0.22018446616
0.226742557063
0.229786200609
0.231144491564
0.231750746318
0.231926626691
0.23198098586
0.231995503125
0.231999080322
0.231999840728
0.231999972604
0.231999960326
0.231999633141
0.231995058761
0.000151314211163
0.000983592690101
0.00880333789781
0.093048117027
0.166397842855
0.200484022709
0.217141852823
0.225098131408
0.228941795531
0.230719300887
0.231594258565
0.231871563682
0.231965178116
0.231991193105
0.231998035497
0.231999628748
0.231999934844
0.231999940729
0.231999533101
0.231994464972
0.000138184293769
0.000887874936527
0.00750902963174
0.0689661176858
0.153241703932
0.193701928906
0.213489779038
0.223069967791
0.227865212483
0.230216212933
0.231308112617
0.231793340458
0.231938230442
0.231983419868
0.231995988611
0.231999173047
0.231999848112
0.231999908781
0.231999408344
0.231993779963
0.000135123308003
0.000821172333644
0.00623197132646
0.0464345364033
0.138439620317
0.185639783663
0.208933324803
0.220523857674
0.226487073381
0.229506396611
0.230951882402
0.231660082013
0.231891577128
0.231969708102
0.231992128858
0.231998233807
0.231999655395
0.231999852952
0.231999252943
0.231992982614
0.000134412684539
0.000753836040696
0.0049430071588
0.0286193310701
0.120027659737
0.175327967596
0.202867340948
0.217142330628
0.224636084784
0.228537508118
0.230465023023
0.231446451556
0.231814929504
0.231945952699
0.231985092064
0.23199637379
0.231999241646
0.231999748999
0.231999058279
0.231992047589
0.000142443909968
0.000741045317776
0.0042043113908
0.0201374829766
0.0946050654988
0.159423985004
0.193885662957
0.212159802067
0.22199006953
0.227172347107
0.229819832375
0.231090264953
0.231701506116
0.231905088717
0.231972649169
0.231992827662
0.23199838145
0.231999545933
0.231998810606
0.23199095025
0.000166773713719
0.00079871189954
0.00395825412138
0.0153895483368
0.058926989062
0.132522516933
0.179128686205
0.20432731666
0.218053005307
0.225225467018
0.228887299391
0.230635730728
0.231519859225
0.231836178699
0.231951105074
0.231986255207
0.231996637478
0.23199913613
0.231998485391
0.231989664853
0.000189397635617
0.000789245402544
0.00303604835908
0.00887247217936
0.0241353977991
0.0898447653069
0.155284975702
0.192510536432
0.212509300022
0.222665043122
0.227696942629
0.230100792888
0.231216175585
0.231738286849
0.231913783875
0.231974254044
0.231993158131
0.231998290127
0.231998034091
0.231988159335
0.000189998081366
0.000659324363424
0.00199671020746
0.0049734904915
0.0126371289751
0.0416887224306
0.121720366795
0.176790327887
0.205833853831
0.219834842727
0.226387742551
0.229447940539
0.230866462695
0.23157968924
0.231848157966
0.231951976911
0.231986205392
0.231996510349
0.231997353829
0.231986391102
0.000166654934938
0.00047006167881
0.00119448345061
0.00275260563461
0.00682618605851
0.0213963465175
0.090076871109
0.162257732268
0.200585134858
0.217639329842
0.225211441492
0.228731699095
0.230450307134
0.231302070604
0.231738065528
0.231907394624
0.231971987513
0.231992701174
0.231996215284
0.231984299378
0.000136984804057
0.000333887681093
0.000795532419126
0.00193930461344
0.00547505004575
0.0188351325311
0.0786732744665
0.158097509019
0.199105027329
0.216489708158
0.224092010227
0.227818134098
0.229804351779
0.230886474628
0.231521528933
0.231812812902
0.231940934797
0.231984406616
0.231994094713
0.231981783949
0.000120259924137
0.000286652587032
0.000736849177366
0.00207465548035
0.00655650599656
0.0229002079319
0.0892010981668
0.165383867494
0.201100941975
0.215583991726
0.222389829419
0.226247285204
0.22862875196
0.23013756533
0.231059169796
0.231614363834
0.23186823717
0.231965741162
0.231989802065
0.231978657921
0.000137135929185
0.000357581774462
0.00102465721959
0.00313173704483
0.0100866767154
0.033520777642
0.111659542152
0.172219899916
0.199387795044
0.211775399781
0.218413711974
0.222937867997
0.226222021489
0.228581584786
0.230176366942
0.231148176945
0.231705330926
0.231920600597
0.231980668847
0.231974541956
0.000213509914713
0.000590135424907
0.00174011681757
0.00537651379448
0.0170124713633
0.050823580735
0.126000548354
0.171008507707
0.191875308611
0.202658250284
0.209871589657
0.215955190511
0.221117460044
0.22526463507
0.22826403345
0.230197831702
0.23128627067
0.231816148703
0.231960468276
0.231968680734
0.000318523663077
0.00085327961376
0.00242421221169
0.00709393673983
0.020405583501
0.0533495006741
0.116938211016
0.156080948674
0.174079085516
0.184075037957
0.192090376655
0.201293823198
0.210282462174
0.218185040004
0.224166379318
0.228161527302
0.230414260801
0.231569455924
0.23191355064
0.23195959393
0.000399075644809
0.00101794699592
0.00273315980632
0.00744902633399
0.0194600966647
0.0454629658767
0.0924555347862
0.12526992376
0.139971600622
0.148381802235
0.157548674288
0.17120764611
0.186913327886
0.20266744868
0.215366796028
0.223849097146
0.228663308489
0.23095396079
0.231821570004
0.231944760038
0.000317104174669
0.000721476370047
0.00173370843376
0.00421475706514
0.00993268826441
0.0216651371458
0.0426598340864
0.0696065822992
0.0807170794642
0.0873280709135
0.0973974930703
0.116017394301
0.141653365571
0.170915577557
0.196921888869
0.215234569731
0.225373363462
0.229907237274
0.231652126524
0.231921554546
0.000211553324471
0.000428196445851
0.000921602754938
0.00203937745899
0.00442269323484
0.00886776894597
0.0155178874265
0.0220017867878
0.0249600017067
0.0269442246652
0.0314439937625
0.0483471150583
0.0785549432712
0.12013607881
0.164368506452
0.19960313345
0.219894961983
0.228429500542
0.231308955966
0.23189506552
0.000134438055814
0.000240392656704
0.000458615770566
0.000914289359978
0.00183792683419
0.0034754134048
0.00579478591815
0.00825609635255
0.0106494932464
0.0135853501767
0.0173193435653
0.0236758685479
0.0420063259447
0.0791989378569
0.129714449432
0.180640516082
0.213861519339
0.2269967539
0.231039726534
0.23186534737
0.000185236188613
0.000330741354978
0.000633494944943
0.00123040740119
0.00234011731616
0.0042672144805
0.00742106648716
0.0123170893611
0.0186522703531
0.0276775266424
0.0372535252048
0.0479546310257
0.0612345483189
0.0802276962638
0.116515256789
0.170085746166
0.210972137131
0.22639034528
0.230928198755
0.231842048896
0.00297821870074
0.00387694296491
0.00536926711492
0.00778159835246
0.011532768438
0.0172119980241
0.0258071448661
0.0388510421598
0.0534281079106
0.0740443077165
0.0932983826891
0.106734344789
0.112995325497
0.23191804382
0.231911461495
0.231946315272
0.23193270755
0.231961806457
0.231949240633
0.231969943999
0.231957550311
0.231973835677
0.231960934527
0.231975428742
0.231962173844
0.231975574866
0.231962065566
0.231974749687
0.231961016334
0.231973203575
0.231959198935
0.231971067644
0.231956687303
0.231968397554
0.231953489453
0.231965229306
0.231949581652
0.231961569134
0.231944920204
0.231957379959
0.231939413653
0.231952590424
0.231932925637
0.231947101744
0.231925274613
0.231940785373
0.23191622758
0.231933478303
0.231905490061
0.23192496973
0.23189267635
0.23191498932
0.23187728641
0.231903163666
0.231858679576
0.231889060698
0.23183607576
0.231871953026
0.231808460717
0.231851030262
0.231774757835
0.231824707655
0.231733228284
0.231791845648
0.231681647186
0.231749565593
0.23161651338
0.231694704747
0.231533499495
)
;

boundaryField
{
    inletfuel
    {
        type            fixedValue;
        value           uniform 0;
    }
    inletair
    {
        type            fixedValue;
        value           uniform 0.232;
    }
    outlet
    {
        type            zeroGradient;
    }
    axis
    {
        type            empty;
    }
    leftside
    {
        type            zeroGradient;
    }
    burnerwall
    {
        type            zeroGradient;
    }
    front
    {
        type            wedge;
    }
    back
    {
        type            wedge;
    }
    procBoundary0to1
    {
        type            processor;
        value           nonuniform List<scalar> 
27
(
0.0159375615682
0.0161161472175
0.0165001473487
0.0170274448666
0.116047628767
0.13124221651
0.174213014588
0.213484953127
0.227234914868
0.231087741475
0.231828844471
0.0181991586149
0.0206899896966
0.0247489719562
0.0310293014651
0.0400238678699
0.0524547444851
0.0699689362732
0.0923021334483
0.114558676873
0.132912676574
0.145450869427
0.152297771952
0.116047628767
0.154201028055
0.231620240022
0.231427171649
)
;
    }
}


// ************************************************************************* //
