/*--------------------------------*- C++ -*----------------------------------*\
  =========                 |
  \\      /  F ield         | OpenFOAM: The Open Source CFD Toolbox
   \\    /   O peration     | Website:  https://openfoam.org
    \\  /    A nd           | Version:  7
     \\/     M anipulation  |
\*---------------------------------------------------------------------------*/
FoamFile
{
    version     2.0;
    format      ascii;
    class       volScalarField;
    location    "0.1";
    object      one_over_tauStar;
}
// * * * * * * * * * * * * * * * * * * * * * * * * * * * * * * * * * * * * * //

dimensions      [0 0 -1 0 0 0 0];

internalField   nonuniform List<scalar> 
814
(
817.553685571
1170.14290725
5263.7347507
1006.88461345
1398.25294733
5269.51036349
1099.92878783
1533.18811926
5269.52897506
1298.8041904
2110.06396499
6994.09327535
1558.35072021
2672.80692754
6792.5332143
1861.11384443
3153.73718154
6284.64400815
2163.88949333
3467.72791792
5690.54263896
2423.42293375
3605.70193155
5123.35261933
2608.32012506
3596.72376882
4600.62046715
2695.97138596
3472.23847872
4119.4521095
2685.87273728
3267.01298585
3681.53015342
2596.7381479
3016.66554081
3289.14692105
2453.70564804
2749.81132084
2938.66887171
2279.57131306
2485.40829828
2623.45460918
2089.67042213
2231.77521847
2335.57549296
1892.69125518
1990.24405621
2067.75803684
1692.81557842
1759.03129407
1813.99909349
1493.21754358
1536.97259907
1572.12943304
1300.72294244
1329.13417782
1349.34219353
1128.21839575
1147.01057913
1158.846883
986.40478644
1000.11587248
1008.52702001
876.425073768
887.433264191
894.802021839
791.33515489
800.996517621
808.808958528
724.310022267
732.971864854
741.446734494
670.016399309
677.683740718
686.392593104
625.661181169
631.951149113
639.631746749
588.657666761
593.343078575
598.994426646
554.411688212
557.538385834
561.287317546
521.199647848
523.21392038
525.622315366
491.473405822
492.632394877
493.904918976
474.251469548
474.866667955
475.254421856
474.937850052
475.035335591
473.954689243
216.678113679
5107.38481839
5481.08715096
5270.15347344
4889.44654631
4446.85894376
3994.93244828
3575.61198763
3205.15076173
2878.35131396
2583.8615408
2310.39387197
2049.52953279
1796.07644419
1550.38358592
1325.43700703
1137.21333901
991.607400146
883.504583846
803.215390618
740.55759564
688.873775106
642.607163413
600.807499858
562.225012901
526.171308668
494.04151782
474.970857693
472.245107986
55.0035606003
14.7601685991
11.6452838276
11.1018699265
10.2896574481
9.50083106819
8.55087773612
7.68218588454
6.91269332137
6.26056533559
5.72576161432
5.2877430676
4.93407562235
4.65897718682
4.44428591061
4.28656394953
4.17504205227
4.10106118198
4.24551052382
14.5983157511
55.7878272837
25.8353375589
20.4291413293
17.2219899515
14.6052084244
12.4903487347
10.6162310416
9.11018509251
7.91938973156
6.9812075334
6.25583341374
5.67769266396
5.22133765887
4.86348423907
4.58636686626
4.3771495539
4.22981675769
4.1337563753
4.41287353609
14.7968305697
67.3442181582
41.943771788
29.6268243809
24.4594834152
19.1296218384
15.3980641847
12.3888056804
10.1647811251
8.56207621883
7.3892894041
6.53115428508
5.87236075792
5.36066716838
4.96461667044
4.65636399996
4.42622357579
4.25941662728
4.15934501233
4.52273756463
14.9887548647
678.772544306
702.742078062
150.501629378
47.2198429248
30.0625005202
21.1227291742
15.5308235989
11.8061823614
9.42878886594
7.85427235808
6.80498387966
6.04837730304
5.47947582521
5.0489686612
4.7137449082
4.46804547632
4.28510995458
4.18813070341
4.60321608204
16.8549508085
3515.56285371
2584.39313195
1828.76529178
673.144534148
156.828637299
49.2067635093
23.8762422073
14.9967071897
10.8569687068
8.5091924153
7.14125211398
6.24165517504
5.60286544246
5.13244609752
4.76996057201
4.50758055147
4.31030542994
4.21449143564
4.68628666234
18.5961157252
3627.40408235
2411.62303416
1753.81046747
894.728864386
216.314334356
68.9748784795
32.5235958283
19.3762457695
12.969648693
9.47024545078
7.59956436723
6.48226969773
5.74685679628
5.22471277047
4.83121307081
4.5483366305
4.33706326258
4.23772843386
4.80678232221
20.462753824
3377.50977148
2181.60840105
1582.63059142
850.084746839
222.12783334
80.3341506922
41.234265003
24.716056331
15.6872646588
10.7690032425
8.21541426838
6.79237094863
5.92157975388
5.33181112715
4.90081598525
4.59361235018
4.36744895562
4.26379510928
4.96273904226
21.8436254409
3201.36824989
2083.20241129
1535.64068749
804.697574529
218.294077685
90.1309342844
50.5518287069
30.5333373734
18.7546137893
12.3410833787
8.99427530756
7.1866851287
6.13512538254
5.45803600478
4.98064137591
4.64538981015
4.40253517863
4.29690444822
5.14019049741
22.731096145
3039.67322391
1982.56492588
1457.08540906
743.797956841
221.985805604
103.082085245
60.8120099431
36.4806699786
21.9497333254
14.1140258074
9.93371125332
7.67730718906
6.3962024288
5.60724731599
5.07191536172
4.70397410709
4.44201437711
4.33685229228
5.32758278585
23.220538747
2871.27259787
1895.60034931
1388.65940756
731.359050338
247.373153121
120.96791554
71.6699419037
42.3406289545
25.2455393998
16.0575477322
11.035028012
8.27615876952
6.71571196432
5.78525204118
5.17702930699
4.76982374131
4.48559060888
4.38239652503
5.5186501304
23.4423119082
2700.48777052
1840.36547809
1366.84486755
796.225809624
300.768564987
144.159560577
82.9793107886
48.2518755873
28.6916177942
18.1690508964
12.2942771923
8.99080948401
7.10564351926
6.00019794035
5.30025871395
4.84459429348
4.53379326027
4.43342749828
5.72085111079
23.4593957082
2526.22477908
1769.20055821
1317.42681813
830.315592641
357.424938155
170.42417926
94.946375124
54.5557559257
32.3925943853
20.4207832791
13.6971149855
9.82466061891
7.57739391136
6.26167488676
5.44762764926
4.93117315824
4.58795065291
4.490499606
5.94079812186
23.3152689527
2346.86937851
1689.99758586
1254.2334387
798.940783699
389.423398169
196.789668799
108.206662094
61.6015446207
36.3817535282
22.8343541141
15.2262521961
10.7738489157
8.13846091007
6.57980440281
5.62666919512
5.03369497065
4.65012100169
4.5542214473
6.17467198495
23.0472307505
2160.83793477
1595.31932487
1174.42120146
722.935467205
388.777234017
219.626534129
123.355449857
69.7830624711
40.8199293283
25.4573708725
16.8752937966
11.8381773581
8.79530461483
6.96553701658
5.84640963542
5.15785374274
4.72330933296
4.62535321979
6.41236882555
22.6887078765
1966.58290712
1473.36960651
1058.13724491
616.831846837
366.789685054
236.355131626
140.921704383
79.9666448239
46.1493489344
28.4266418609
18.7043619733
13.0248362823
9.55306481118
7.42871033744
6.11690609707
5.31108256536
4.81179880479
4.70512375688
6.64401966626
22.2707937299
1761.68429694
1326.00098735
913.83927722
517.459980908
344.692029216
247.980963487
161.316220387
94.4081297661
53.7987841477
32.2685761414
20.8569435825
14.3681066885
10.4202558049
7.97717891605
6.44911093308
5.50259143084
4.92149503754
4.79549942565
6.86195213055
21.8169645395
1549.11787451
1157.1988909
752.580380545
438.657597941
332.291748597
259.54355278
184.424396881
116.690619475
66.6449848968
38.1663481305
23.6566077878
15.9245574979
11.4074047831
8.61831340267
6.85420721182
5.74356331661
5.06033743276
4.89956063138
7.06057743162
21.3382375014
1339.07605187
985.343918054
618.033376797
404.30560071
330.448551741
273.696737314
208.678380418
146.208277999
87.7147980973
47.8286328596
27.5582463072
17.794379656
12.5241211258
9.35761765679
7.34290782945
6.04832906686
5.23918323495
5.02217658214
7.2363641941
20.8382723572
1154.43634976
843.746489144
551.834499377
402.47106366
337.877654117
291.204822805
231.569616538
174.733235334
114.464157746
61.3468521405
32.5507258091
19.9477133171
13.7579956047
10.205406193
7.93301332588
6.43634950383
5.47345827639
5.17116563798
7.38819660027
20.3186738173
1007.23774935
750.421948654
530.565230789
414.214823087
350.966352556
307.916240328
253.911356367
197.152265882
138.395551827
75.2503912121
37.5976016194
22.1585436445
15.1263983832
11.2023891846
8.66346800399
6.93861594446
5.78758825753
5.3593955973
7.51797906059
19.7804389596
897.081028961
699.658479705
532.313930139
435.40922281
369.90559892
320.222080526
271.970147983
211.459991605
150.254245241
82.1828602547
40.7839403414
24.320416541
16.801547295
12.4973374734
9.63910391392
7.62175407868
6.22280206759
5.60947341096
7.63181580759
19.2240593544
819.25854349
676.332073047
547.424957957
458.919386468
385.469119242
325.473726059
277.326182924
211.199303539
144.687939234
78.3760059274
42.3143217786
27.1468266099
19.328412296
14.4508932773
11.0759789706
8.61233188199
6.85317213752
5.96121761642
7.74362219351
18.6494564125
763.383840384
662.818810021
559.713593067
471.807748171
388.239498028
321.640341263
266.709931568
187.665584375
117.464270598
69.1927943986
45.4920467225
32.4849571144
23.9837144244
17.903687422
13.4731800571
10.1944871705
7.82654331347
6.4876513454
7.88028000612
18.0576062167
719.047545811
648.431662701
560.624092327
470.115353848
379.093511565
308.455582106
241.607243117
157.082035624
98.9364712708
70.3962200336
55.2481733667
43.2438968625
33.0296240759
24.4801449548
17.8380370262
12.9080165908
9.40707842856
7.3149818551
8.09674280921
17.4547195492
678.690238401
624.03614751
543.963105894
453.860918074
363.974039179
288.969612065
215.874501016
140.998707129
96.9100430247
81.0164802625
71.9195781728
61.4238025951
49.5263012943
37.2547249086
26.3788833755
18.0438583747
12.2178702208
8.69456197772
8.48833852049
16.8531107321
636.25580402
592.688240098
522.108877114
438.882178236
353.285047654
276.025383442
204.858609016
141.163882442
107.972811845
97.8971184961
92.7926116694
85.3070871943
74.3800239626
59.3772334298
42.8543641708
28.0675317491
17.443192423
11.0672436623
9.21188022694
16.2931752622
595.463420914
559.477616311
497.832859037
421.506371492
340.516969013
264.643365055
199.337265899
151.073929305
128.40495734
120.58211451
115.89700463
109.818404545
101.366321321
88.1599892538
69.0389822372
46.8574677683
27.65261594
15.3836180963
10.5186672167
15.8365549332
557.35821477
527.300727046
474.81785235
407.350290977
334.207803879
265.297933186
208.360489041
172.46176256
155.791952777
147.32035315
140.240792856
132.691297302
124.096563742
113.149838994
97.1966329473
73.5021521667
44.9407769724
22.5047329404
12.5282306299
15.5666722989
522.359131565
497.444104538
452.504275054
393.39540373
328.469093046
269.424577458
226.39101691
202.048520628
186.897152526
175.276466302
164.069697836
153.394975431
142.644341701
131.390525003
117.672837224
97.6357916453
66.8332994161
32.7884574195
15.2600206242
15.5243475119
491.047682431
472.176639984
437.148470277
390.450738868
340.493741038
296.761612706
263.480588617
237.962597513
216.185291185
196.928852678
179.768224286
165.185822157
152.652773058
140.722628076
127.968724071
110.603116668
82.3043099873
41.9076799651
17.5668005649
15.5970705406
472.066214071
458.295645886
433.765641374
400.678057091
362.885990673
324.257881722
287.442055079
253.267126438
222.973540179
196.908776022
175.209973641
157.725841583
144.721265827
136.301576845
128.208894628
113.367835842
86.8210968709
45.4494097363
18.5260461771
15.6159276117
466.133611484
449.384629168
423.037457928
388.197730305
347.854540475
305.546651595
264.90777221
227.739431146
197.669934395
173.615998088
153.104646588
135.994446728
124.011631458
27.8686138346
56.0082204617
67.7262560057
56.0079767576
71.1800119672
56.0082237119
69.810651437
56.0064010203
66.7365203366
56.0046704474
62.9773575355
56.0030305685
59.287215735
56.0010749322
55.8945655799
55.9982917952
52.8909651648
55.9950386812
50.2683938546
55.9912985563
47.9901230719
55.9870433702
46.0027640654
55.9822554045
44.2549671515
55.9769359472
42.7082970703
55.9710770017
41.3318467876
55.9646597725
40.0979423922
55.9576427882
38.9817215983
55.9499526857
37.9610888363
55.9415082594
37.0157543366
55.9322230468
36.1268538386
55.9218428491
35.2766858255
55.9107374619
34.443276343
55.8987767279
33.6280876999
55.8866567727
32.8333730517
55.8741122558
32.1488499923
55.86192582
31.6381067662
55.8497757185
31.4623689148
55.8389599992
31.6686955728
55.8289131956
)
;

boundaryField
{
    inletfuel
    {
        type            calculated;
        value           uniform 120.747670785;
    }
    inletair
    {
        type            calculated;
        value           uniform 4.0249223595;
    }
    outlet
    {
        type            calculated;
        value           nonuniform 0();
    }
    axis
    {
        type            empty;
    }
    leftside
    {
        type            calculated;
        value           nonuniform List<scalar> 
33
(
27.8686138346
56.0082204617
14.5983157511
14.7968305697
14.9887548647
56.0082204617
56.0079767576
56.0082237119
56.0064010203
56.0046704474
56.0030305685
56.0010749322
55.9982917952
55.9950386812
55.9912985563
55.9870433702
55.9822554045
55.9769359472
55.9710770017
55.9646597725
55.9576427882
55.9499526857
55.9415082594
55.9322230468
55.9218428491
55.9107374619
55.8987767279
55.8866567727
55.8741122558
55.86192582
55.8497757185
55.8389599992
55.8289131956
)
;
    }
    burnerwall
    {
        type            calculated;
        value           nonuniform List<scalar> 7(5263.7347507 5269.51036349 5269.52897506 55.0035606003 55.7878272837 67.3442181582 216.678113679);
    }
    front
    {
        type            wedge;
    }
    back
    {
        type            wedge;
    }
    procBoundary0to1
    {
        type            processor;
        value           nonuniform List<scalar> 
27
(
377.489308613
375.651059088
371.282863004
365.836373528
120.015728021
119.847108259
109.044687344
81.329482299
40.4243259849
17.0268778166
15.416637379
353.054156084
330.073404831
300.414198671
266.980337354
233.475884389
202.766872949
178.850126391
159.932314441
143.275223054
128.690981329
116.560905778
107.229206471
120.015728021
102.398376557
32.2820349918
55.8207192334
)
;
    }
}


// ************************************************************************* //
