/*--------------------------------*- C++ -*----------------------------------*\
  =========                 |
  \\      /  F ield         | OpenFOAM: The Open Source CFD Toolbox
   \\    /   O peration     | Website:  https://openfoam.org
    \\  /    A nd           | Version:  7
     \\/     M anipulation  |
\*---------------------------------------------------------------------------*/
FoamFile
{
    version     2.0;
    format      ascii;
    class       volScalarField;
    location    "0.1";
    object      p;
}
// * * * * * * * * * * * * * * * * * * * * * * * * * * * * * * * * * * * * * //

dimensions      [1 -1 -2 0 0 0 0];

internalField   nonuniform List<scalar> 
814
(
98585.8646387
98577.0027878
98593.1984319
98550.9237658
98546.6499213
98550.4463632
98527.0136684
98525.4083065
98527.4779722
98528.1684343
98530.8981828
98530.7388592
98543.6306742
98542.8428133
98540.6059466
98544.9561982
98544.6889818
98545.2800986
98548.1029993
98548.2359346
98548.20525
98551.4840005
98551.3089134
98551.150814
98554.932849
98554.7694214
98554.5758323
98559.0266454
98558.9058695
98558.6438967
98564.1002105
98563.9695986
98563.7174634
98570.2965623
98570.1400847
98569.9438911
98577.2509456
98577.0757666
98576.9243458
98585.2133188
98585.0436737
98584.9270109
98594.1161539
98593.9881934
98593.9061112
98603.6226875
98603.5261816
98603.4858712
98613.8693925
98613.8049846
98613.7986635
98624.2372377
98624.1966037
98624.2066381
98634.3484887
98634.3314861
98634.3372849
98644.5490304
98644.5329184
98644.5292202
98655.2923933
98655.2682284
98655.2429863
98667.3110792
98667.2809176
98667.2444084
98681.3962909
98681.3649929
98681.325649
98697.1119707
98697.0885282
98697.0778464
98714.2399384
98714.2300757
98714.2111283
98730.9295655
98730.9400426
98730.9510761
98746.6651929
98746.6853084
98746.7089822
98759.781039
98759.8050536
98759.8211583
98772.4240592
98772.435076
98772.4473253
98783.9947268
98783.9776553
98783.952419
98799.7982663
98799.7281065
98799.6582591
98817.4166339
98817.3158263
98817.2582774
98521.2789158
98541.2707946
98545.6020218
98548.102344
98550.8476841
98554.2672409
98558.3211866
98563.4332429
98569.723218
98576.7555762
98584.7959218
98593.8093765
98603.4245417
98613.7736465
98624.2002918
98634.3265141
98644.5130495
98655.2010202
98667.188546
98681.2684556
98697.0495306
98714.1891692
98730.9756304
98746.7426815
98759.8432369
98772.4667532
98783.9161154
98799.5560353
98817.1696983
98502.691511
98501.2542719
98499.3779924
98496.8352253
98494.3404065
98492.1840755
98489.9766126
98486.6562691
98481.2343212
98473.749331
98466.1113937
98460.2183763
98455.6530377
98450.1024159
98443.4373725
98438.3534434
98434.8642474
98431.267757
98428.6820296
98427.9282157
98526.4063288
98521.906345
98517.385727
98509.9613647
98502.606584
98495.6652042
98490.5712905
98486.8487698
98483.023702
98477.5305064
98470.4009705
98463.5807783
98457.9714129
98452.2038955
98445.71153
98440.4833492
98436.7504582
98433.1341815
98430.5397253
98429.7221241
98541.0140805
98525.9855838
98525.4632846
98519.5324922
98512.146538
98502.81475
98494.8533758
98489.5795839
98485.8231265
98481.0419691
98474.0154095
98466.4778904
98460.1723468
98454.3355563
98447.9945346
98442.6094292
98438.6380602
98434.9851697
98432.3572393
98431.4978483
98553.3869718
98531.2431131
98545.3192456
98531.1155469
98523.154018
98511.1211656
98500.3869731
98493.2041666
98488.9360498
98484.2996111
98477.1703549
98469.0503989
98462.2592235
98456.4227312
98450.2008441
98444.6558679
98440.4649116
98436.7682575
98434.1149554
98433.28803
98538.3889403
98538.8904525
98543.7472253
98542.2211632
98533.3422242
98520.7322363
98507.8950978
98498.3464071
98493.1518678
98488.2040084
98480.7368751
98472.0336402
98464.8592072
98459.0779683
98452.9481852
98447.2008661
98442.7626188
98438.9935635
98436.2347635
98435.051453
98545.1987802
98546.6792419
98544.9367049
98544.292795
98537.8786014
98527.9384971
98514.7661517
98503.9851076
98498.1434247
98492.6946778
98484.7279876
98475.494128
98468.0629094
98462.356925
98456.2507145
98450.2673499
98445.5813058
98441.7179966
98438.8344268
98437.5301587
98547.8647233
98547.7502447
98546.7814662
98545.2219133
98541.3790069
98532.2363393
98520.0570558
98509.8619081
98503.7749255
98497.7972801
98489.2603237
98479.5680891
98471.9799003
98466.3055767
98460.1132778
98453.8744586
98448.9700618
98444.9896698
98441.9507045
98440.5126063
98550.5214025
98549.8121013
98549.8584516
98547.9894791
98544.7594677
98535.92234
98525.3647496
98516.0685803
98510.1497301
98503.5814306
98494.4728219
98484.406767
98476.7156233
98470.9581362
98464.5375077
98458.0447296
98452.980497
98448.8615181
98445.6350618
98444.0359775
98554.0730872
98552.8521523
98553.8127233
98551.3142387
98548.2272691
98539.8670493
98531.4211357
98523.0571281
98517.4341628
98510.0657136
98500.4267935
98490.1096528
98482.3377169
98476.3335538
98469.5321227
98462.8087543
98457.6599547
98453.3838334
98449.9321698
98448.1530554
98558.0770172
98556.7992992
98556.8258914
98555.5592147
98551.7661284
98545.1531817
98538.7665205
98531.2327753
98525.4855768
98517.2233939
98507.0958587
98496.6961362
98488.8608974
98482.4407577
98475.1270482
98468.2114734
98463.0477137
98458.5992104
98454.8958465
98452.9418524
98563.1089455
98562.1553359
98562.1181108
98561.0724093
98557.2669229
98553.252876
98547.1002177
98540.6275615
98534.1665253
98525.0102435
98514.4190889
98504.1145544
98496.2560812
98489.2912657
98481.3866718
98474.3166814
98469.1710994
98464.5363808
98460.5753849
98458.4554201
98569.4098753
98568.8547479
98568.7954188
98569.0147274
98565.9323781
98562.1878779
98556.6338782
98550.6893508
98543.3086538
98533.5354197
98522.4433849
98512.3416425
98504.4997283
98496.9214979
98488.4123874
98481.2079831
98476.0487759
98471.2101101
98467.0183773
98464.7509835
98576.483935
98576.024894
98575.8669642
98576.0940892
98573.1916875
98571.1458542
98566.1800649
98560.9540078
98553.0249595
98542.8397717
98531.4884366
98521.4321331
98513.5783057
98505.3979633
98496.3326925
98488.984776
98483.7021005
98478.628807
98474.2649345
98471.8783931
98584.6016058
98584.2818679
98584.054571
98584.4370609
98582.584893
98581.5397566
98576.5144092
98571.3572064
98563.3186867
98553.1222831
98541.7833745
98531.4532012
98523.4387396
98514.7909599
98505.2750416
98497.7500872
98492.1760419
98486.8159135
98482.3476715
98479.8809256
98593.6971209
98593.4127092
98593.2993094
98593.6225678
98592.4008782
98590.0524274
98586.3267651
98581.6805669
98574.1066423
98564.3418725
98552.9818219
98542.8240577
98534.0443651
98525.112531
98515.3209729
98507.5859506
98501.5530358
98495.8368009
98491.301711
98488.7867371
98603.3714091
98603.0435323
98603.0606409
98602.7128062
98602.9000531
98601.2608263
98599.4553571
98593.2902605
98585.9066575
98575.9981322
98564.9341053
98555.8555868
98545.7453257
98536.3753561
98526.4718419
98518.5234761
98511.94452
98505.814942
98501.184891
98498.6164727
98613.7755813
98613.4984361
98613.6402105
98613.187473
98614.0346197
98612.8552666
98609.1177943
98604.2425758
98597.9656219
98588.9140465
98578.6779897
98568.8513457
98558.8140462
98548.8792297
98538.7471446
98530.5594523
98523.4586063
98516.9153998
98512.0934736
98509.3961331
98624.2025728
98624.056836
98624.151792
98624.270788
98624.701373
98625.0665121
98622.961868
98620.3103692
98612.0573898
98603.6577248
98593.5397084
98583.4178416
98573.1202278
98562.5704719
98552.2725263
98543.7475134
98536.1859858
98529.2971526
98524.1557401
98521.1759845
98634.282517
98634.2669967
98634.0871871
98634.5339283
98633.6271557
98635.3963261
98632.559612
98630.0596262
98623.966463
98617.7954109
98608.5034657
98598.8847505
98588.4786332
98577.6503051
98567.2986895
98558.274152
98550.2414333
98543.0785386
98537.4991945
98534.0473266
98644.4579217
98644.357972
98644.2737843
98644.3359984
98644.064829
98643.7521081
98643.2230366
98640.380789
98637.8535363
98630.9434337
98623.6143489
98614.4900359
98604.7566969
98594.3065705
98583.9423359
98574.3726762
98565.7874293
98558.3412846
98552.2173226
98548.1423293
98655.1035603
98654.9038236
98654.7265962
98654.4281007
98653.9839423
98653.0920496
98652.2131932
98650.933554
98648.7127681
98644.3617465
98638.5420898
98630.7995943
98622.2137089
98612.6315804
98602.2905609
98592.2385995
98582.9758537
98575.146274
98568.3813087
98563.6153988
98667.0703289
98666.8115117
98666.4891777
98665.9707748
98665.2560595
98664.202928
98663.6780179
98662.8016226
98661.7911639
98659.3760634
98654.7570242
98648.4460917
98640.984453
98632.3533689
98622.3423175
98611.8266916
98601.7722435
98593.4365198
98586.0344334
98580.6020587
98681.1296414
98680.8856842
98680.5549167
98680.1014935
98679.5787932
98679.0489687
98678.7572863
98678.3795818
98679.7262908
98678.7062592
98673.3488434
98667.1895871
98661.4276892
98654.8034965
98645.0773034
98633.5732239
98622.2908513
98613.0954216
98605.1617465
98599.1905102
98696.984026
98696.8540682
98696.6502523
98696.3757386
98696.2181482
98694.6721761
98695.981963
98697.573349
98701.0122378
98703.1533164
98707.7719207
98706.6438291
98696.8931172
98682.2301251
98669.7574584
98656.7765869
98644.1770814
98633.9725943
98625.5813167
98619.2680644
98714.1501608
98714.1166824
98714.0722453
98714.0742301
98713.8799693
98714.463927
98715.7456885
98718.9532767
98721.2356281
98722.860356
98723.8544001
98722.5128266
98718.2797563
98710.3661335
98699.2994663
98682.3458684
98668.6802577
98656.4802216
98647.2987688
98640.5971003
98731.0205604
98731.0919086
98731.2059335
98731.355633
98731.499466
98732.5675807
98734.1271761
98736.9200805
98739.0845582
98741.1689895
98742.1125333
98741.2815465
98738.3764167
98730.8091317
98720.9930465
98706.1135702
98692.6805471
98679.6719913
98669.8831434
98662.7617491
98746.8156348
98747.0162074
98747.3560399
98747.8264374
98748.8508997
98750.4187115
98752.1443933
98754.1421371
98755.6434235
98756.8155839
98757.2702211
98757.1796328
98755.4420012
98750.8244891
98742.6370219
98728.96372
98717.0294728
98704.2616474
98693.3202234
98685.6134604
98759.8971172
98760.0248978
98760.292463
98760.633761
98761.24365
98761.9240304
98762.7926988
98763.6360887
98764.1809891
98764.5427033
98764.706576
98764.3271526
98763.7069996
98761.0426251
98757.8562036
98750.8573285
98739.2619817
98727.5786145
98716.3701996
98708.5209325
98772.5106232
98772.6294473
98772.8221743
98772.8211475
98773.0795719
98773.3452826
98773.6943732
98773.6943322
98773.7284333
98773.648087
98773.4162134
98773.4506919
98772.7348549
98771.5153692
98769.4069966
98765.2445578
98758.967746
98750.0344095
98739.7475359
98731.553002
98783.8310496
98783.6371607
98783.3430224
98783.2980944
98783.1505807
98782.8785021
98782.2798483
98781.4702143
98780.3787352
98779.4108993
98778.4582934
98777.577956
98777.044667
98777.2517129
98776.8798805
98776.0097056
98773.000261
98767.9203672
98759.9075014
98754.3029992
98799.3464624
98798.954386
98798.471981
98797.9177409
98797.2717119
98796.5750062
98795.9559026
98795.5216635
98795.3336401
98795.1612367
98794.6497396
98793.5674266
98792.3998857
98790.5226851
98790.129309
98790.6194726
98788.772787
98786.5652283
98781.7384796
98778.3173605
98816.950244
98816.4857201
98815.8281001
98815.007541
98814.0535033
98813.0332694
98812.0818691
98811.118741
98809.2400222
98807.1598962
98805.5743873
98804.6114976
98804.271955
98434.5153007
98434.7542009
98435.3595002
98435.5971495
98437.5927679
98437.712454
98440.40712
98440.4926271
98443.8871198
98443.9134426
98447.9449892
98447.9355318
98452.7079548
98452.6953032
98458.1743267
98458.1411344
98464.428953
98464.3849624
98471.5153707
98471.4620966
98479.4831741
98479.4232025
98488.3634206
98488.2988365
98498.1717108
98498.1034389
98508.9202204
98508.8464514
98520.6407889
98520.556213
98533.4120997
98533.308329
98547.3684292
98547.2338276
98562.6683283
98562.4706515
98579.4810208
98579.3067238
98598.0482145
98597.9012383
98618.055883
98617.8122285
98639.4393795
98639.2804514
98661.3622765
98661.1702037
98683.9575375
98683.7128843
98706.7705482
98706.5015382
98729.9875167
98729.7435608
98753.1597805
98752.9830735
98777.6316872
98777.5292919
)
;

boundaryField
{
    inletfuel
    {
        type            zeroGradient;
    }
    inletair
    {
        type            zeroGradient;
    }
    outlet
    {
        type            fixedValue;
        value           nonuniform 0();
    }
    axis
    {
        type            empty;
    }
    leftside
    {
        type            zeroGradient;
    }
    burnerwall
    {
        type            zeroGradient;
    }
    front
    {
        type            wedge;
    }
    back
    {
        type            wedge;
    }
    procBoundary0to1
    {
        type            processor;
        value           nonuniform List<scalar> 
27
(
98839.3478446
98839.25761
98839.1918936
98839.0879222
98804.6164503
98804.4720642
98806.2921948
98804.9079003
98804.8632546
98804.2828721
98803.570719
98838.8846576
98838.4625978
98837.889859
98837.1795219
98836.3232472
98835.1687718
98833.3598537
98831.5513865
98830.385737
98829.3510748
98828.735828
98828.2042474
98804.6164503
98827.8065668
98803.5329154
98803.5207647
)
;
    }
}


// ************************************************************************* //
