/*--------------------------------*- C++ -*----------------------------------*\
  =========                 |
  \\      /  F ield         | OpenFOAM: The Open Source CFD Toolbox
   \\    /   O peration     | Website:  https://openfoam.org
    \\  /    A nd           | Version:  7
     \\/     M anipulation  |
\*---------------------------------------------------------------------------*/
FoamFile
{
    version     2.0;
    format      ascii;
    class       volScalarField;
    location    "0.1";
    object      PaSR<psiReactionThermo>:kappa;
}
// * * * * * * * * * * * * * * * * * * * * * * * * * * * * * * * * * * * * * //

dimensions      [0 0 0 0 0 0 0];

internalField   nonuniform List<scalar> 
814
(
5.7851359685e-12
8.06007820004e-12
2.6087271717e-11
7.05650206262e-12
9.49602982282e-12
2.49463698312e-11
7.67130259769e-12
1.03699189791e-11
2.45364035061e-11
8.96546496075e-12
1.41488577725e-11
3.88368253147e-11
1.06748954089e-11
1.78482386665e-11
4.09505296133e-11
1.26490722147e-11
2.10238779977e-11
3.97651978912e-11
1.46309730632e-11
2.32116954204e-11
3.71699189934e-11
1.6385948405e-11
2.43278380138e-11
3.42044101231e-11
1.77230252036e-11
2.44986540267e-11
3.11899050136e-11
1.84636669414e-11
2.386490317e-11
2.82319241179e-11
1.85464789248e-11
2.26210124285e-11
2.5424843236e-11
1.80547849981e-11
2.10027175565e-11
2.28377053188e-11
1.71414329354e-11
1.92144715545e-11
2.04739770701e-11
1.59658483959e-11
1.73976700906e-11
1.83040561534e-11
1.46401526894e-11
1.56190156408e-11
1.62834814883e-11
1.32300099354e-11
1.38905672218e-11
1.43656581627e-11
1.17684635764e-11
1.2204245698e-11
1.25148050595e-11
1.02877956253e-11
1.05616562752e-11
1.07288921596e-11
8.8561033485e-12
9.0212362138e-12
9.08653133689e-12
7.58903859796e-12
7.69109885602e-12
7.70929890157e-12
6.57950652363e-12
6.65257522645e-12
6.6644878377e-12
5.83026023657e-12
5.89346003826e-12
5.91726434107e-12
5.28523252359e-12
5.34569280826e-12
5.38768172104e-12
4.87293352235e-12
4.93173900044e-12
4.98710850289e-12
4.54659636657e-12
4.59875014796e-12
4.65785311315e-12
4.26824332559e-12
4.31161500789e-12
4.36252741616e-12
4.02875459803e-12
4.05903909205e-12
4.09445502223e-12
3.79416831962e-12
3.81426776128e-12
3.83567616206e-12
3.56260620298e-12
3.57405503763e-12
3.58652060798e-12
3.34803372075e-12
3.35464502398e-12
3.35965216459e-12
3.22490052241e-12
3.2269419655e-12
3.22677537721e-12
3.20919850621e-12
3.20910647292e-12
3.19867545494e-12
1.56465852718e-12
2.88341389451e-11
3.31566387039e-11
3.34927041729e-11
3.2021323333e-11
2.97066393337e-11
2.70547396779e-11
2.44514874082e-11
2.20678905883e-11
1.99009595786e-11
1.78940532171e-11
1.59822546257e-11
1.41140043758e-11
1.2262866967e-11
1.04514740022e-11
8.80610331642e-12
7.46908417431e-12
6.48606828364e-12
5.80594667575e-12
5.33507184464e-12
4.97691571423e-12
4.67194457839e-12
4.37888677741e-12
4.1002753568e-12
3.83539847062e-12
3.58349733391e-12
3.35534368857e-12
3.22010353111e-12
3.18317899226e-12
3.18001281628e-13
1.038461853e-13
8.31788733863e-14
7.95681828566e-14
7.3902861568e-14
6.83657521699e-14
6.16409960766e-14
5.54735573712e-14
4.99867233344e-14
4.53211518981e-14
4.14814175173e-14
3.83265182744e-14
3.57702058292e-14
3.37753288637e-14
3.22122981357e-14
3.1059642719e-14
3.02412157909e-14
2.96943941024e-14
3.07041415995e-14
1.00294306796e-13
3.31266745264e-13
1.79117155779e-13
1.45487373695e-13
1.23374517238e-13
1.0501174773e-13
9.00293945737e-14
7.66625774813e-14
6.58944676734e-14
5.73551077847e-14
5.06082278619e-14
4.53792287143e-14
4.11996148214e-14
3.78917515658e-14
3.52896355653e-14
3.32684630527e-14
3.17364677498e-14
3.06542130675e-14
2.99421097243e-14
3.19020693061e-14
1.01791466976e-13
4.40285218175e-13
2.88591539114e-13
2.09135266698e-13
1.75057557329e-13
1.37504036557e-13
1.11069742415e-13
8.9548077665e-14
7.35986318957e-14
6.20709056936e-14
5.36131102017e-14
4.74119147871e-14
4.26395571943e-14
3.89243547636e-14
3.60407267362e-14
3.37900040251e-14
3.21035100431e-14
3.08772522996e-14
3.01340075355e-14
3.26870995298e-14
1.03210286749e-13
3.90249386051e-12
2.32240666303e-12
8.63280684269e-13
3.29725616929e-13
2.14344178954e-13
1.51996786586e-13
1.12172516902e-13
8.54870265272e-14
6.83832025132e-14
5.70172737011e-14
4.94250827643e-14
4.39374805561e-14
3.98025312041e-14
3.66658709618e-14
3.42167279376e-14
3.24158209141e-14
3.10704099234e-14
3.03487302304e-14
3.3261713845e-14
1.1690355977e-13
1.07290381522e-11
4.12533188534e-12
2.08683234037e-12
1.62794195233e-12
8.99007637643e-13
3.41260574884e-13
1.71138965785e-13
1.08330773224e-13
7.86963260588e-14
6.177690498e-14
5.188362624e-14
4.53570197024e-14
4.07118485765e-14
3.72832332226e-14
3.46341048201e-14
3.27109085946e-14
3.1259704083e-14
3.05454263026e-14
3.38575785025e-14
1.29239990883e-13
1.44358667668e-11
4.7973436437e-12
2.03190797124e-12
1.55102071878e-12
1.06361006875e-12
4.63132036937e-13
2.30516300067e-13
1.39313471091e-13
9.38361971185e-14
6.8720870675e-14
5.52187313976e-14
4.71181705742e-14
4.17706502658e-14
3.7964529048e-14
3.5088380391e-14
3.30149797871e-14
3.14606833878e-14
3.07188870029e-14
3.47217878564e-14
1.42594944552e-13
1.65121427684e-11
5.25318411625e-12
2.01498045458e-12
1.45715881807e-12
1.0337244813e-12
5.23818043804e-13
2.88076366978e-13
1.76444709281e-13
1.1316368792e-13
7.8064404931e-14
5.96846262916e-14
4.93817505435e-14
4.30532228725e-14
3.87544400684e-14
3.5604171043e-14
3.33524782917e-14
3.1688654052e-14
3.09129948724e-14
3.58385112938e-14
1.52585457999e-13
1.80410730202e-11
6.37844560826e-12
2.19668088411e-12
1.45802043918e-12
9.81046096109e-13
5.65262546381e-13
3.45869947447e-13
2.15936439776e-13
1.34776048285e-13
8.9326113487e-14
6.53156023511e-14
5.22528850079e-14
4.46178932526e-14
3.9684328118e-14
3.61952344828e-14
3.37380569488e-14
3.19515074455e-14
3.11588935253e-14
3.71081209084e-14
1.59063533643e-13
1.86253954796e-11
7.28649787106e-12
2.2568548039e-12
1.41054987923e-12
9.30578620292e-13
6.07200730527e-13
4.03575746823e-13
2.55013922328e-13
1.56973351689e-13
1.01963557218e-13
7.20862343393e-14
5.58160899416e-14
4.65265310778e-14
4.0781777872e-14
3.68703104964e-14
3.41738951268e-14
3.22469036881e-14
3.1455038715e-14
3.84487474783e-14
1.62693811071e-13
1.83948641843e-11
8.0404737881e-12
2.34681786421e-12
1.36569209207e-12
9.0662521188e-13
6.47583807453e-13
4.56151864453e-13
2.91634443398e-13
1.79502411816e-13
1.15723144832e-13
7.99952359813e-14
6.01537654814e-14
4.88565094808e-14
4.20882272728e-14
3.76465005915e-14
3.46631875097e-14
3.257256531e-14
3.17920995558e-14
3.98149357606e-14
1.64419246264e-13
1.774071183e-11
8.79347474926e-12
2.76031272384e-12
1.42917746613e-12
9.2108380204e-13
6.81223811469e-13
5.00690813629e-13
3.26209222721e-13
2.02536304566e-13
1.3054080352e-13
8.90008748709e-14
6.5316036917e-14
5.16929153678e-14
4.3661997728e-14
3.85545792808e-14
3.5217864845e-14
3.29322861048e-14
3.2169033507e-14
4.12581512546e-14
1.64681367107e-13
1.68443127975e-11
9.2016760347e-12
3.154694107e-12
1.51417330532e-12
9.51435387185e-13
7.06755450626e-13
5.3749190997e-13
3.6005193749e-13
2.26617613377e-13
1.46118569939e-13
9.89847120524e-14
7.13216345819e-14
5.51161353296e-14
4.55716825149e-14
3.96379324652e-14
3.58588051381e-14
3.33357171681e-14
3.2589755589e-14
4.2824691762e-14
1.63780083261e-13
1.57728984013e-11
9.23711269764e-12
3.44801040003e-12
1.55856380983e-12
9.84107227225e-13
7.3057046851e-13
5.68922182072e-13
3.93819714086e-13
2.51467903753e-13
1.62563065381e-13
1.09792281066e-13
7.81340907122e-14
5.9177427079e-14
4.78893962022e-14
4.09507104305e-14
3.66158766492e-14
3.37978064988e-14
3.30586678335e-14
4.44878361067e-14
1.61979534143e-13
1.45609079034e-11
8.94470707799e-12
3.57830428746e-12
1.54603266088e-12
1.01155505093e-12
7.57524728797e-13
5.97355670116e-13
4.27709388495e-13
2.77590666443e-13
1.80086734398e-13
1.21321500406e-13
8.57413788048e-14
6.39192250207e-14
5.06928333367e-14
4.25576657435e-14
3.75301583468e-14
3.43403507265e-14
3.35813419432e-14
4.61768610565e-14
1.5952205838e-13
1.32218924808e-11
8.30593721209e-12
3.46785893507e-12
1.46817941624e-12
1.03498660116e-12
7.94280306901e-13
6.28622678109e-13
4.63874443257e-13
3.06798097325e-13
1.99329517004e-13
1.33958775905e-13
9.41735167485e-14
6.93721572002e-14
5.40509411281e-14
4.45307588949e-14
3.86552305944e-14
3.49943884711e-14
3.41668214262e-14
4.78229779438e-14
1.56632009536e-13
1.17538324744e-11
7.41773252297e-12
3.21297013472e-12
1.40035935192e-12
1.0711719386e-12
8.51003837361e-13
6.74850986481e-13
5.10459594373e-13
3.45589745353e-13
2.23323038933e-13
1.48584501204e-13
1.03642320301e-13
7.55880996967e-14
5.80172670461e-14
4.69481508551e-14
4.00574235924e-14
3.58026875416e-14
3.48295753601e-14
4.93732110468e-14
1.5347843832e-13
1.01997190043e-11
6.39112586733e-12
2.87756986558e-12
1.38993228868e-12
1.11944995556e-12
9.36441326644e-13
7.49869841636e-13
5.80602566244e-13
4.05090182119e-13
2.58474511811e-13
1.67210769552e-13
1.14482110399e-13
8.2629494527e-14
6.26405289613e-14
4.98892614235e-14
4.18172247103e-14
3.68226989022e-14
3.55922079029e-14
5.0789602404e-14
1.50143050041e-13
8.66836500496e-12
5.41739477266e-12
2.62187493039e-12
1.50357646149e-12
1.1852163854e-12
1.04518676995e-12
8.56188848603e-13
6.77441637463e-13
4.91489789487e-13
3.12138072353e-13
1.92376004264e-13
1.27330454306e-13
9.05423800895e-14
6.79541032834e-14
5.34294070743e-14
4.40377190829e-14
3.81329175817e-14
3.64903036338e-14
5.20489641664e-14
1.46656301237e-13
7.36276671847e-12
4.70459728512e-12
2.61684832579e-12
1.73320931326e-12
1.33261884338e-12
1.16811538362e-12
9.80182636246e-13
7.86148466936e-13
5.88312117093e-13
3.79268478308e-13
2.23184847738e-13
1.41888040967e-13
9.92046438138e-14
7.40257541185e-14
5.76940829342e-14
4.68585855528e-14
3.9844727616e-14
3.75807467279e-14
5.31453380955e-14
1.4303421471e-13
6.38460738455e-12
4.33248898442e-12
2.78930672934e-12
2.04088522142e-12
1.60024146663e-12
1.29884279434e-12
1.114870114e-12
8.90624743512e-13
6.70753715979e-13
4.38982637883e-13
2.52505033914e-13
1.56516274412e-13
1.08738624887e-13
8.11343587935e-14
6.29585034902e-14
5.05014104166e-14
4.21342016559e-14
3.89567586377e-14
5.40941832854e-14
1.39288749713e-13
5.71840640204e-12
4.22474481781e-12
3.0546822737e-12
2.39195406133e-12
1.89670117841e-12
1.47092502349e-12
1.24057080311e-12
9.72793269954e-13
7.12052109055e-13
4.62982680329e-13
2.69631468669e-13
1.70572711429e-13
1.20329002193e-13
9.03099707966e-14
6.99641694716e-14
5.54413853563e-14
4.52974284914e-14
4.07815628783e-14
5.49406722582e-14
1.35428961821e-13
5.30427209607e-12
4.26131841606e-12
3.35265227823e-12
2.71309801563e-12
2.12708792713e-12
1.59239908981e-12
1.31479838983e-12
9.95150013971e-13
6.89170684935e-13
4.42965371776e-13
2.77464164782e-13
1.88766873469e-13
1.37607718859e-13
1.04036182162e-13
8.02176793799e-14
6.25738298804e-14
4.98636836375e-14
4.33413959807e-14
5.57850068137e-14
1.31460583319e-13
5.03541811777e-12
4.31258104442e-12
3.56949829573e-12
2.90346107233e-12
2.21423162251e-12
1.61157319662e-12
1.30969437783e-12
9.02152333051e-13
5.81689625484e-13
4.03012697851e-13
2.95376116068e-13
2.22398292965e-13
1.68753266432e-13
1.27929978666e-13
9.71379269991e-14
7.38897337852e-14
5.68826132521e-14
4.71591105372e-14
5.68190127915e-14
1.27397651237e-13
4.81764212323e-12
4.30467297172e-12
3.65070520816e-12
2.93914460742e-12
2.17134182621e-12
1.54123574352e-12
1.20924890407e-12
7.67076859455e-13
5.13260656826e-13
4.12248232647e-13
3.48655021799e-13
2.86639861559e-13
2.26614492292e-13
1.72049929583e-13
1.27367774677e-13
9.30669256467e-14
6.82032244951e-14
5.31317259511e-14
5.84319989921e-14
1.23289584217e-13
4.59149884871e-12
4.18057096253e-12
3.56145552187e-12
2.82746838734e-12
2.05025608528e-12
1.4257732973e-12
1.07406115572e-12
6.99378760887e-13
5.13659486079e-13
4.63526932758e-13
4.335239925e-13
3.86031034411e-13
3.2376796518e-13
2.52629955032e-13
1.84248324614e-13
1.28585984128e-13
8.80966868697e-14
6.30291193955e-14
6.12984114158e-14
1.1922760052e-13
4.32184561094e-12
3.97953244896e-12
3.41435399313e-12
2.71577758496e-12
1.97154904968e-12
1.36355962172e-12
1.01202120102e-12
7.03670585302e-13
5.6547336171e-13
5.38989454218e-13
5.30685905171e-13
5.04620775175e-13
4.55551999555e-13
3.78781719432e-13
2.85907689583e-13
1.94872274311e-13
1.24288932997e-13
7.98919911702e-14
6.6521559634e-14
1.15487361216e-13
4.04675971667e-12
3.75155353387e-12
3.24265962921e-12
2.59067611931e-12
1.89496916429e-12
1.32438325911e-12
9.80568098821e-13
7.54735063666e-13
6.61400471772e-13
6.41658690203e-13
6.36188762412e-13
6.19946573205e-13
5.88487149584e-13
5.2848263933e-13
4.31382652229e-13
3.09280038275e-13
1.92100570973e-13
1.1004926811e-13
7.58625339693e-14
1.12491417991e-13
3.78509354652e-12
3.53379492505e-12
3.0969769967e-12
2.52510826337e-12
1.91101623976e-12
1.39158220853e-12
1.04625263181e-12
8.76737114016e-13
8.06248318473e-13
7.7763259421e-13
7.54273793091e-13
7.28224923219e-13
6.97392052412e-13
6.53732810296e-13
5.7867225945e-13
4.56940424594e-13
2.99050642205e-13
1.58460520175e-13
9.01045066619e-14
1.10796514888e-13
3.54190855273e-12
3.33222039741e-12
2.96121071357e-12
2.47214369475e-12
1.94999930626e-12
1.52066816163e-12
1.24984134207e-12
1.11366840644e-12
1.03307378908e-12
9.67840789217e-13
8.99300197409e-13
8.40773784065e-13
7.89858540737e-13
7.43783756664e-13
6.8521589921e-13
5.86382166459e-13
4.24657115519e-13
2.25834092873e-13
1.09278617912e-13
1.1069067284e-13
3.32214497156e-12
3.16327432999e-12
2.87866580852e-12
2.50477506287e-12
2.11894419472e-12
1.80835729286e-12
1.59276358516e-12
1.43123243915e-12
1.28695241822e-12
1.15267167494e-12
1.02853397434e-12
9.23386268459e-13
8.45832347047e-13
7.90606223538e-13
7.38639604827e-13
6.5776726241e-13
5.11285096746e-13
2.83671441734e-13
1.25380799044e-13
1.11351767277e-13
3.19036966627e-12
3.07599806846e-12
2.88142742599e-12
2.62647516186e-12
2.34502088707e-12
2.06733033779e-12
1.80731582451e-12
1.56417146341e-12
1.34394438348e-12
1.1520412725e-12
9.91070794927e-13
8.68933091554e-13
7.92852572731e-13
7.60612520557e-13
7.39327604936e-13
6.75220231753e-13
5.38254501914e-13
3.06402760462e-13
1.32122642181e-13
1.11582249837e-13
3.13222217303e-12
3.00045266495e-12
2.79872651639e-12
2.53753920819e-12
2.24051704186e-12
1.93373155321e-12
1.64290076647e-12
1.37849678374e-12
1.161596951e-12
9.95104760486e-13
8.56470220085e-13
7.45359457189e-13
6.77189792831e-13
1.97499010893e-13
3.82247618876e-13
4.76354541673e-13
3.89539736671e-13
5.01005287864e-13
3.92656352202e-13
4.91083715155e-13
3.92430927785e-13
4.69160459654e-13
3.91303535375e-13
4.42405597763e-13
3.8981556026e-13
4.16196400808e-13
3.88089422965e-13
3.92093771334e-13
3.86169163631e-13
3.70726659716e-13
3.84077166173e-13
3.52028999804e-13
3.81826159637e-13
3.35741971795e-13
3.79423602649e-13
3.21491102656e-13
3.76877838531e-13
3.08915315039e-13
3.7420955736e-13
2.97750641813e-13
3.71441053215e-13
2.87789452665e-13
3.68598036492e-13
2.78847068571e-13
3.65713370807e-13
2.70758403912e-13
3.62830245329e-13
2.63378383873e-13
3.60002790906e-13
2.5657556214e-13
3.57294839059e-13
2.50230741786e-13
3.54778743755e-13
2.44233371669e-13
3.5253011584e-13
2.38452197675e-13
3.50637087556e-13
2.32910314436e-13
3.49160103763e-13
2.27642774187e-13
3.48159939516e-13
2.23233215572e-13
3.475228058e-13
2.20086726621e-13
3.47153200505e-13
2.19174385345e-13
3.46693896956e-13
2.20741766562e-13
3.45823158275e-13
)
;

boundaryField
{
    inletfuel
    {
        type            calculated;
        value           uniform 0;
    }
    inletair
    {
        type            calculated;
        value           uniform 0;
    }
    outlet
    {
        type            calculated;
        value           nonuniform 0();
    }
    axis
    {
        type            empty;
    }
    leftside
    {
        type            calculated;
        value           uniform 0;
    }
    burnerwall
    {
        type            calculated;
        value           uniform 0;
    }
    front
    {
        type            wedge;
    }
    back
    {
        type            wedge;
    }
    procBoundary0to1
    {
        type            processor;
        value           uniform 0;
    }
}


// ************************************************************************* //
