/*--------------------------------*- C++ -*----------------------------------*\
  =========                 |
  \\      /  F ield         | OpenFOAM: The Open Source CFD Toolbox
   \\    /   O peration     | Website:  https://openfoam.org
    \\  /    A nd           | Version:  7
     \\/     M anipulation  |
\*---------------------------------------------------------------------------*/
FoamFile
{
    version     2.0;
    format      ascii;
    class       surfaceScalarField;
    location    "0.1";
    object      phi;
}
// * * * * * * * * * * * * * * * * * * * * * * * * * * * * * * * * * * * * * //

dimensions      [1 0 -1 0 0 0 0];

internalField   nonuniform List<scalar> 
1567
(
-3.73473693916e-09
8.68980287387e-08
-1.48767697485e-08
2.60537669184e-07
4.00649692688e-07
7.88835385997e-10
8.60550459536e-08
-4.57468454538e-09
2.65903112151e-07
3.96295392274e-07
2.85342305961e-10
8.62037438346e-08
1.79530473453e-10
2.66486353449e-07
3.96652976847e-07
-2.117752375e-09
8.77004732737e-08
6.36272491805e-09
2.56645274755e-07
3.63049047911e-07
2.21071462747e-09
3.23007184909e-09
8.43159379654e-08
2.51130185448e-08
2.35551323886e-07
3.29210272887e-07
5.7529216865e-08
2.57632119903e-09
8.16486183034e-08
1.19157703155e-08
2.26032676317e-07
3.04561914248e-07
3.68995489105e-08
1.59723887072e-09
7.98401714006e-08
1.17532841577e-08
2.15316365358e-07
2.8546981305e-07
3.03572830231e-08
3.21778390429e-09
7.64181267854e-08
1.43778530838e-08
2.03608124847e-07
2.64806733903e-07
3.44972535153e-08
4.21909450178e-09
7.20177197046e-08
1.71393061351e-08
1.90249492408e-07
2.43587132422e-07
3.78761984608e-08
4.80203066078e-09
6.70441891251e-08
1.97555038458e-08
1.74916350294e-07
2.22773931335e-07
4.00763545667e-08
5.46605906499e-09
6.14044028229e-08
2.13828676973e-08
1.58600740017e-07
2.02456920664e-07
4.11552199688e-08
6.04424627576e-09
5.51925105298e-08
2.19199042966e-08
1.42307539815e-07
1.82693539851e-07
4.11231808201e-08
6.42364601041e-09
4.86205632344e-08
2.21697704074e-08
1.26159368325e-07
1.63101593288e-07
4.12227832356e-08
6.6632070388e-09
4.18406019876e-08
2.29409635292e-08
1.09544470881e-07
1.42454462295e-07
4.30956381363e-08
6.62394677927e-09
3.51412317055e-08
2.34763402158e-08
9.24379469596e-08
1.20481630335e-07
4.5002058859e-08
6.38560936468e-09
2.87019950171e-08
2.30454739012e-08
7.55765622049e-08
9.77673662854e-08
4.52956485339e-08
5.79213552652e-09
2.2866356132e-08
2.11280152281e-08
6.00421849905e-08
7.64363965962e-08
4.1922533977e-08
4.84913892541e-09
1.7958966572e-08
1.7630512315e-08
4.70165930813e-08
5.87935082559e-08
3.46193256013e-08
3.613363403e-09
1.42708147207e-08
1.33067419677e-08
3.70236631072e-08
4.56405300964e-08
2.57029871123e-08
2.63856103252e-09
1.15530263797e-08
9.57616618394e-09
2.97741473089e-08
3.62880771564e-08
1.81466901937e-08
2.30883900925e-09
9.17892714212e-09
8.47535739531e-09
2.33348486627e-08
2.74267052993e-08
1.65939696204e-08
2.49156413548e-09
6.65986390582e-09
9.44948023782e-09
1.61914277491e-08
1.69796488605e-08
1.92571868829e-08
2.52477343504e-09
4.13613005872e-09
9.59118190024e-09
9.01877336675e-09
6.13205445135e-09
1.98934416172e-08
1.97760512829e-09
2.18406613601e-09
7.39021845469e-09
3.53967729539e-09
-1.79752143718e-09
1.48239715707e-08
6.63310993984e-10
1.50040950517e-09
2.14663082278e-09
1.88667062369e-09
-3.66680193531e-09
3.37366945358e-09
-1.0937474064e-09
2.51157818567e-09
-4.83427361886e-09
5.28489887007e-09
2.83393660287e-09
-1.21841131174e-08
-2.68006488428e-09
5.02702921311e-09
-1.12580393641e-08
1.3312772222e-08
1.71852070563e-08
-2.67227791973e-08
-2.73316261115e-09
7.54421696023e-09
-1.12041716894e-08
2.10952119644e-08
3.08792126709e-08
-2.6184129746e-08
-1.435677168e-09
8.71424714514e-09
-6.17162887666e-09
2.50445422129e-08
3.8195134235e-08
-1.49048377461e-08
1.57578661474e-09
6.88498161008e-09
6.39699026321e-09
1.94173750194e-08
2.9270816301e-08
1.39183803543e-08
7.40933076814e-09
-8.58181617422e-10
2.94573407645e-08
-3.67426515082e-09
-8.9086791636e-09
6.57825236449e-08
1.29546790356e-08
5.10620542634e-08
1.13756839253e-07
2.61266937338e-07
-2.68167400836e-07
2.17476266482e-07
9.99105930105e-08
2.07249923905e-07
4.70404860112e-08
2.06700828198e-07
3.02452834408e-08
2.01098509492e-07
3.93066807349e-08
1.90736458043e-07
4.74896358935e-08
1.77782415743e-07
5.2340882142e-08
1.6360050526e-07
5.46490273324e-08
1.48951512954e-07
5.50892683018e-08
1.33086066735e-07
5.63939190913e-08
1.15493473273e-07
5.99989697024e-08
9.63864687458e-08
6.33853525261e-08
7.59825780404e-08
6.48854610496e-08
5.69640329935e-08
5.99603103391e-08
4.2270260928e-08
4.81702382319e-08
3.22265315396e-08
3.44813863205e-08
2.49501437782e-08
2.41218501719e-08
1.70216807329e-08
2.32307639543e-08
6.49496238888e-09
2.85564872274e-08
-4.88034516896e-09
3.01309926487e-08
-1.34039830986e-08
2.22165762151e-08
-1.41598666986e-08
2.83944025976e-09
-4.80606479248e-09
-2.29410967398e-08
1.33790963628e-08
-4.65132113596e-08
3.12533361752e-08
-4.57961157366e-08
4.1166508217e-08
-2.66381919192e-08
3.10080254571e-08
2.23116108266e-08
-1.4486541565e-08
1.0887408625e-07
1.87912093969e-07
3.93959547454e-07
4.22593001723e-07
9.12626190586e-07
7.86955761566e-07
1.59683007493e-06
1.23277868778e-06
2.3299633748e-06
1.94667391673e-06
3.17448409642e-06
2.78242509689e-06
4.00031884657e-06
3.96256812717e-06
4.838941501e-06
5.34960288839e-06
5.57805033996e-06
7.12072135971e-06
6.21701951399e-06
9.22421724315e-06
6.6864422158e-06
1.18421513893e-05
7.06337761251e-06
1.49713301109e-05
7.33541400173e-06
1.8782847554e-05
7.46440071524e-06
2.33157765152e-05
7.34093262471e-06
2.87422496809e-05
6.93130066915e-06
3.53039845735e-05
6.38509908235e-06
4.30781179476e-05
5.40523138391e-06
5.25476709384e-05
4.11571612827e-06
6.36215760002e-05
2.08072509926e-06
7.73349371618e-05
9.28296069778e-05
5.82255412265e-07
-1.98398965777e-07
9.30117480852e-07
3.66137442256e-07
1.61620444276e-06
4.3860766109e-07
2.15678486464e-06
1.24720339744e-06
2.78050367141e-06
1.94598396804e-06
3.31289420909e-06
3.17284199318e-06
3.81754522423e-06
4.54689567363e-06
4.23153933409e-06
6.34838394723e-06
4.57731460003e-06
8.41931709404e-06
4.80648022714e-06
1.1004509769e-05
4.95253511909e-06
1.40509373502e-05
5.02787981776e-06
1.77725441753e-05
5.03515611443e-06
2.21730594431e-05
4.9091276272e-06
2.74447051865e-05
4.62887941266e-06
3.38340221725e-05
4.2490200931e-06
4.13748589299e-05
3.62192536715e-06
5.06412324333e-05
2.78839423452e-06
6.13559992454e-05
1.15587693844e-06
7.52462714998e-05
8.94899128937e-05
3.78937918104e-07
-1.97521588908e-07
7.00965007264e-07
4.85360827195e-08
1.23076910585e-06
-1.36279740468e-07
1.71923445581e-06
6.65173263206e-07
2.27294670233e-06
1.2554861287e-06
2.57543271712e-06
2.69187113231e-06
2.81004069622e-06
4.10463699871e-06
2.96813921787e-06
5.9536264235e-06
3.09942216302e-06
7.99755637538e-06
3.17541340959e-06
1.05427399145e-05
3.19956611921e-06
1.35207619026e-05
3.18988564683e-06
1.71592977899e-05
3.15479007513e-06
2.14562787593e-05
3.0546342728e-06
2.66135368729e-05
2.87626089451e-06
3.28651375932e-05
2.63431579938e-06
4.02419648548e-05
2.26834930883e-06
4.93380713877e-05
1.76770635985e-06
5.98205211492e-05
6.37019891021e-07
7.39305487718e-05
8.71675026201e-05
-4.59540560032e-07
2.50197963476e-07
9.18546776197e-07
-8.65977000963e-08
2.11846809404e-06
-1.79282234884e-07
2.90213156068e-06
6.68454069321e-08
3.21658128739e-06
8.64332539914e-07
3.40697361193e-06
2.34061649919e-06
3.49498487297e-06
3.79209568052e-06
3.53547031962e-06
5.65290813267e-06
3.57556327678e-06
7.6428211117e-06
3.58517923379e-06
1.01152284037e-05
3.54512299597e-06
1.30034392442e-05
3.48259916958e-06
1.6528984626e-05
3.4093971339e-06
2.06985307268e-05
3.28491133521e-06
2.57170794497e-05
3.09112399028e-06
3.1797371711e-05
2.83115008424e-06
3.8981529995e-05
2.4806856545e-06
4.78452277372e-05
1.96138424033e-06
5.80964274012e-05
9.12509077204e-07
7.228194611e-05
8.68441171896e-05
-2.01435565404e-06
1.643588151e-07
1.73711514769e-07
2.62940069143e-07
-1.31110806618e-07
1.00050032578e-06
-1.29993925447e-07
2.90345813362e-06
2.89016535732e-08
4.29011218921e-06
1.30948413253e-06
4.74679580807e-06
2.59657426205e-06
4.4199920233e-06
3.99455828747e-06
4.2125463613e-06
5.60963209793e-06
4.09911976319e-06
7.43456208762e-06
4.02408001361e-06
9.75675866062e-06
3.91868713505e-06
1.25236309096e-05
3.80744415026e-06
1.59104900544e-05
3.69984739305e-06
1.99382766823e-05
3.55437678832e-06
2.48029490238e-05
3.34422378403e-06
3.06920850199e-05
3.06662641308e-06
3.76652509826e-05
2.74498895605e-06
4.62376318077e-05
2.2906325142e-06
5.62083656178e-05
2.01376498777e-06
6.97406719685e-05
8.32243631329e-05
2.23181844506e-06
7.24596600166e-08
1.51742128878e-07
1.86516386278e-07
-2.15208479529e-07
8.23162529817e-07
-2.68466334658e-07
2.34644811698e-06
1.73594658664e-07
4.2389236786e-06
1.56809310006e-06
5.04256088567e-06
2.87809053782e-06
5.05947242794e-06
4.19493323565e-06
4.88602160043e-06
5.55983760419e-06
4.69217321189e-06
7.31221866949e-06
4.55582479835e-06
9.44823650149e-06
4.39894165479e-06
1.20710573553e-05
4.24518420038e-06
1.53052533852e-05
4.10461659593e-06
1.91840565819e-05
3.93514678546e-06
2.38837972202e-05
3.70000485362e-06
2.95679101047e-05
3.39625219629e-06
3.63143632477e-05
3.08703138677e-06
4.45475568327e-05
2.6749186545e-06
5.41976921562e-05
2.89471394347e-06
6.66056195187e-05
7.85836670992e-05
4.01412620878e-06
4.64749028542e-08
1.36920059212e-07
1.3669877093e-07
-2.7895546309e-07
6.57444916961e-07
-4.02716740216e-07
1.9777906871e-06
1.65712197285e-07
3.87625919408e-06
1.49031228842e-06
4.94694594451e-06
2.85334769782e-06
5.34831627164e-06
4.1002426802e-06
5.42469358397e-06
5.46378686263e-06
5.28517107333e-06
7.14593595128e-06
5.1210763387e-06
9.16163248465e-06
4.92456907872e-06
1.16361529561e-05
4.73466317945e-06
1.47099421988e-05
4.56169475628e-06
1.84372590156e-05
4.36380498469e-06
2.29627678858e-05
4.09655179993e-06
2.84299129625e-05
3.76030477387e-06
3.49349317251e-05
3.44389831043e-06
4.27942131489e-05
3.03450586349e-06
5.21013502108e-05
3.41516824521e-06
6.32096121345e-05
7.39265963022e-05
4.42647793699e-06
4.26985724804e-08
1.33591048922e-07
9.62860631139e-08
-3.16653384159e-07
5.59695886041e-07
-4.78546370473e-07
1.73299017941e-06
1.11380057755e-07
3.41300083795e-06
1.16680342914e-06
4.63473687186e-06
2.48258227318e-06
5.41170842987e-06
3.73395104405e-06
5.80994046047e-06
5.23812116568e-06
5.83412139705e-06
6.85618460228e-06
5.68013631247e-06
8.87186891079e-06
5.45986787088e-06
1.12077860782e-05
5.24250151885e-06
1.41176637497e-05
5.03950937674e-06
1.7693400414e-05
4.80890539684e-06
2.20373138064e-05
4.50438339038e-06
2.72764661139e-05
4.13094680155e-06
3.35278465125e-05
3.78688605436e-06
4.09925803853e-05
3.34229605306e-06
4.99470795176e-05
3.59426720496e-06
5.9828873219e-05
6.96744613417e-05
4.06004867576e-06
3.79683869156e-08
1.42359414295e-07
5.85475270801e-08
-3.33824927967e-07
5.00685088208e-07
-5.15819781231e-07
1.60591734033e-06
-5.65279060808e-08
3.01257309904e-06
7.96868739782e-07
4.358535004e-06
1.89763533066e-06
5.43823190128e-06
3.22630106253e-06
6.09154280006e-06
4.86200521627e-06
6.36092443578e-06
6.54833219425e-06
6.23265497391e-06
8.54888747404e-06
6.00896473438e-06
1.07709507486e-05
5.77087158565e-06
1.35248595537e-05
5.54068898653e-06
1.69470094417e-05
5.27292882833e-06
2.11042747421e-05
4.92631631497e-06
2.61067692852e-05
4.51142537967e-06
3.20963875626e-05
4.12090839785e-06
3.91590200897e-05
3.61100127995e-06
4.77572137793e-05
3.61791976712e-06
5.65689845062e-05
6.57726753082e-05
3.58167083737e-06
4.01751217561e-08
1.53121352881e-07
3.98040610382e-08
-3.38643779124e-07
3.98969804426e-07
-5.88671833093e-07
1.4664767755e-06
-3.41451266633e-07
2.75095445694e-06
4.21324806609e-07
4.18179459206e-06
1.33226714869e-06
5.45260415877e-06
2.75602029466e-06
6.37629785683e-06
4.40977335348e-06
6.85301261117e-06
6.19790616537e-06
6.80857360413e-06
8.15587036878e-06
6.59366349817e-06
1.03263394155e-05
6.33573135357e-06
1.29369438967e-05
6.07968588461e-06
1.61951974967e-05
5.76953090005e-06
2.01625626135e-05
5.37561096062e-06
2.49230626085e-05
4.91446471833e-06
3.06479139142e-05
4.45957998266e-06
3.73123587644e-05
3.85886683595e-06
4.55532753184e-05
3.5789704922e-06
5.34655201755e-05
6.2180819837e-05
3.07576140373e-06
5.28376364524e-08
1.52907051839e-07
4.32749709377e-08
-3.38427602579e-07
2.98068792861e-07
-6.72653388736e-07
1.26469998681e-06
-6.33184075564e-07
2.50115413597e-06
6.82252117268e-08
4.00875917464e-06
8.57073766831e-07
5.4802953024e-06
2.30277387024e-06
6.64796897223e-06
3.91245554036e-06
7.31861157643e-06
5.83217134502e-06
7.40960569438e-06
7.65060941483e-06
7.20812829295e-06
9.88479387835e-06
6.94522009291e-06
1.23482539131e-05
6.66479177485e-06
1.54363121989e-05
6.3078597603e-06
1.92123151997e-05
5.86132512577e-06
2.37297893e-05
5.34856736937e-06
2.91908248343e-05
4.81403040751e-06
3.54691545608e-05
4.10405304577e-06
4.33515066096e-05
3.53716468337e-06
5.05146044289e-05
5.88185541448e-05
2.64378830377e-06
5.87829041795e-08
1.46596113602e-07
4.69464432367e-08
-3.36843660292e-07
2.22974509637e-07
-7.3794713124e-07
1.03196086568e-06
-8.48665846982e-07
2.29034897995e-06
-2.89862103246e-07
3.84114947156e-06
4.74123169432e-07
5.49305292068e-06
1.83978875919e-06
6.87497643006e-06
3.38195139821e-06
7.68618250833e-06
5.34825439576e-06
8.02180812758e-06
7.18451845331e-06
7.86574777842e-06
9.37729872049e-06
7.61076367958e-06
1.17524277274e-05
7.30111408327e-06
1.46771864886e-05
6.89372401054e-06
1.82553734387e-05
6.38938358054e-06
2.25324106901e-05
5.81899745756e-06
2.77320454769e-05
5.19134446994e-06
3.36413520245e-05
4.35943079572e-06
4.11626793385e-05
3.51616593604e-06
4.77029180302e-05
5.56278195388e-05
2.28722379112e-06
7.10997779385e-08
1.28875369263e-07
6.47472509445e-08
-3.38949512564e-07
1.75607954832e-07
-7.79537861797e-07
8.50491254204e-07
-1.00142065178e-06
2.07071990452e-06
-6.32693811331e-07
3.62347562012e-06
1.35893927684e-07
5.40943174726e-06
1.33780753197e-06
6.97353301815e-06
2.81995003318e-06
8.03232033834e-06
4.76662822306e-06
8.5872794863e-06
6.67175380804e-06
8.56259908107e-06
8.76166268073e-06
8.32355220407e-06
1.11563635621e-05
7.98729271375e-06
1.39221017367e-05
7.53056772941e-06
1.72918653823e-05
6.96512160063e-06
2.13351646122e-05
6.33060330151e-06
2.62749618391e-05
5.59865074717e-06
3.18341600245e-05
4.6365956647e-06
3.89930406964e-05
3.53407839668e-06
4.50129737785e-05
5.2558664087e-05
2.01746779012e-06
8.5181113667e-08
1.0013928181e-07
8.32347156974e-08
-3.44944424868e-07
1.50741166131e-07
-8.04117417082e-07
6.99672152384e-07
-1.10001445385e-06
1.84251739561e-06
-9.47284912371e-07
3.37970440923e-06
-1.92451462002e-07
5.23085001879e-06
8.119448965e-07
6.96772750049e-06
2.21113256706e-06
8.33289385134e-06
4.05178168804e-06
9.06560569525e-06
6.01785000743e-06
9.30105634099e-06
8.17440251399e-06
9.08822152554e-06
1.05060440808e-05
8.73276207284e-06
1.31720978903e-05
8.22596889965e-06
1.63287682255e-05
7.59752789048e-06
2.01416404374e-05
6.89104803156e-06
2.48204657557e-05
6.04439140127e-06
3.00475014647e-05
4.94628190966e-06
3.6845816677e-05
3.60313878073e-06
4.24283086322e-05
4.95792611812e-05
1.82987220653e-06
9.48002939257e-08
6.44048823047e-08
9.14033296799e-08
-3.49736872847e-07
1.22219476056e-07
-8.04532753086e-07
5.18062289834e-07
-1.15041855704e-06
1.52429821153e-06
-1.23079033758e-06
3.08624042946e-06
-6.30472048774e-07
4.97005888085e-06
2.42260768701e-07
6.88830078374e-06
1.53188190459e-06
8.54787555879e-06
3.24470180749e-06
9.5544565547e-06
5.29061660601e-06
1.00341904989e-05
7.54612133366e-06
9.92509901963e-06
9.74998269551e-06
9.5479466504e-06
1.24385820152e-05
8.98661232396e-06
1.53838450217e-05
8.2946381495e-06
1.8955878989e-05
7.5085404854e-06
2.33679338162e-05
6.53920753486e-06
2.82767673275e-05
5.2998380491e-06
3.47217734243e-05
3.73148072805e-06
3.99364252268e-05
4.66746945752e-05
1.71712239134e-06
9.94436738638e-08
2.45080466614e-08
9.60661812943e-08
-3.54590467167e-07
1.05832953065e-07
-7.88309211436e-07
2.98653919562e-07
-1.17430759986e-06
1.1273166502e-06
-1.46194741508e-06
2.70390202889e-06
-1.18041087965e-06
4.61407764255e-06
-3.61784842282e-07
6.73808997012e-06
7.45045950966e-07
8.66133176177e-06
2.40059468688e-06
1.00495857767e-05
4.43576277099e-06
1.07087446941e-05
6.77604845303e-06
1.08609863755e-05
9.06302315559e-06
1.04146832464e-05
1.16932106835e-05
9.81774315834e-06
1.44464263307e-05
9.0615446282e-06
1.77827176884e-05
8.19238024974e-06
2.19147977148e-05
7.09554622529e-06
2.65171334926e-05
5.70986867142e-06
3.26198644872e-05
3.92383472747e-06
3.75297225368e-05
4.38457523284e-05
1.6687958387e-06
8.51572139361e-08
-6.93433566491e-09
6.58495468017e-08
-3.43062077556e-07
3.55707921333e-08
-7.37166616027e-07
7.79256421419e-08
-1.1453515079e-06
6.78781057809e-07
-1.55840385239e-06
2.20038104431e-06
-1.70805238638e-06
4.28745745923e-06
-1.06087152734e-06
6.55409776526e-06
-2.41494053386e-08
8.77543583003e-06
1.56678219221e-06
1.05310780012e-05
3.55555507143e-06
1.14601161169e-05
6.05149597252e-06
1.17735872154e-05
8.36614308275e-06
1.1369067395e-05
1.09374785541e-05
1.07256344697e-05
1.35275264701e-05
9.89945230414e-06
1.66262565795e-05
8.95117191421e-06
2.04532738063e-05
7.72872345385e-06
2.47643300448e-05
6.19221110476e-06
3.05394211942e-05
4.18525524723e-06
3.52055063203e-05
4.11064331339e-05
1.67474113714e-06
5.61621630545e-08
-2.1621385365e-08
1.83716387964e-08
-3.12694351399e-07
-4.37086624277e-08
-6.61516627322e-07
-8.98331261546e-08
-1.05657103403e-06
3.11038919735e-07
-1.55856439791e-06
1.64271653119e-06
-2.01506576059e-06
3.78562181392e-06
-1.68654514918e-06
6.36964859358e-06
-7.19242127474e-07
8.94737087997e-06
8.75697200567e-07
1.09955891741e-05
2.91920661923e-06
1.21700403323e-05
5.47119621502e-06
1.26683870526e-05
7.80134980834e-06
1.23616114264e-05
1.00971890384e-05
1.16744943579e-05
1.26435998905e-05
1.08062831275e-05
1.54605128151e-05
9.79309382548e-06
1.89640370562e-05
8.45650443918e-06
2.30105585655e-05
6.76625326457e-06
2.84821068528e-05
4.52468080928e-06
3.29663562232e-05
3.84806006178e-05
1.72878211063e-06
3.18009828391e-08
-2.58258051841e-08
-8.71773422444e-09
-2.79294608175e-07
-5.28395857582e-08
-6.05220380179e-07
-6.43803271011e-08
-9.95774035588e-07
8.85813413988e-08
-1.5464527409e-06
1.09507767059e-06
-2.15785002771e-06
3.1955599963e-06
-2.22946254421e-06
5.83671433976e-06
-1.22269020841e-06
8.80696877904e-06
3.11844219479e-07
1.11675952421e-05
2.64997540147e-06
1.27598641165e-05
4.98990992505e-06
1.33564693532e-05
7.25847184991e-06
1.33268827144e-05
9.40144141528e-06
1.26701563382e-05
1.16589090335e-05
1.18062942086e-05
1.42392889299e-05
1.07374944173e-05
1.74321897261e-05
9.30696962797e-06
2.12397635354e-05
7.45917477528e-06
2.64536845862e-05
4.95826592269e-06
3.08242878403e-05
3.60034284497e-05
1.82952798053e-06
2.04680618039e-08
-2.90916869427e-08
-8.38681618571e-09
-2.57690754673e-07
-2.50528541114e-08
-5.78699907491e-07
3.23343413133e-08
-1.01091960321e-06
2.09010913689e-07
-1.61857938663e-06
7.94273295948e-07
-2.27744652064e-06
2.45533220176e-06
-2.60842369522e-06
5.04346984951e-06
-1.72734880144e-06
8.08180500542e-06
7.0366280854e-08
1.09066566047e-05
2.43345584196e-06
1.27826079223e-05
4.68902657566e-06
1.3666293735e-05
6.70666794607e-06
1.39731730687e-05
8.57947400988e-06
1.35971713779e-05
1.03986796922e-05
1.28501539738e-05
1.28719265024e-05
1.18148496684e-05
1.57761492178e-05
1.03108619206e-05
1.94356787846e-05
8.30499945581e-06
2.44555120147e-05
5.50752126465e-06
2.88048196149e-05
3.37250672109e-05
1.97976183395e-06
3.016239748e-08
-4.29642451516e-08
2.94974246232e-08
-2.65798265057e-07
6.61578353503e-08
-6.1153987532e-07
1.93162482513e-07
-1.11131516421e-06
4.24121046955e-07
-1.78969800465e-06
7.92788579286e-07
-2.51926744463e-06
1.84957427479e-06
-2.91342933441e-06
3.84678840763e-06
-2.05789986554e-06
6.72275093433e-06
-1.9631362415e-07
9.61785108897e-06
2.0496257499e-06
1.18940563891e-05
3.95515729918e-06
1.3393412908e-05
5.596872563e-06
1.42276226676e-05
7.15637756319e-06
1.44719383027e-05
8.86455626149e-06
1.40204290264e-05
1.11200837014e-05
1.30834412997e-05
1.39557597495e-05
1.15422706938e-05
1.75770826359e-05
9.36484332834e-06
2.25031217939e-05
6.20968981349e-06
2.69588645583e-05
3.17246612996e-05
2.18871912756e-06
5.07407347665e-08
-7.21782187872e-08
8.03293033194e-08
-3.06538014993e-07
1.56027532446e-07
-6.92879104631e-07
3.00904872732e-07
-1.25164734884e-06
5.16178998856e-07
-1.99800095861e-06
7.73955722928e-07
-2.78722051595e-06
1.35980814374e-06
-3.19528586923e-06
2.76387452783e-06
-2.35899586458e-06
4.93546321246e-06
-5.27479551082e-07
7.51398698916e-06
1.13605445294e-06
1.00133421957e-05
2.38588576392e-06
1.21449695799e-05
3.60725242825e-06
1.37589815715e-05
4.93598841611e-06
1.48541803459e-05
6.61960562921e-06
1.50952621652e-05
8.67013730476e-06
1.45513763264e-05
1.1724619244e-05
1.30962694127e-05
1.55725024697e-05
1.06970011093e-05
2.06629594977e-05
7.10707346451e-06
2.53610857061e-05
3.01165789969e-05
2.46799833243e-06
5.73259998244e-08
-1.06603742574e-07
9.12491779152e-08
-3.54040164752e-07
1.492591986e-07
-7.6657785478e-07
2.31006691474e-07
-1.35397355642e-06
3.1081664966e-07
-2.12987690979e-06
3.77254025286e-07
-3.0117457953e-06
5.68486495178e-07
-3.51112824127e-06
1.0454121518e-06
-2.4609650067e-06
2.35202905041e-06
-1.35644727291e-06
4.55468728229e-06
-6.77159845444e-07
7.11928025013e-06
-1.57732623865e-07
1.00937123558e-05
3.8499690803e-07
1.31069207135e-05
1.30550604626e-06
1.53914887791e-05
3.19255903391e-06
1.67098922055e-05
5.66490546345e-06
1.66266241412e-05
8.96267212166e-06
1.51725582733e-05
1.35515759946e-05
1.24651055857e-05
1.90575588972e-05
8.28413335097e-06
2.41837700159e-05
2.90865398117e-05
2.83600372108e-06
3.70786464699e-08
-1.2897834084e-07
4.85205087371e-08
-3.80859729903e-07
5.62425528089e-08
-7.98586322713e-07
5.19061332421e-08
-1.3950573713e-06
-1.18175662936e-09
-2.19139467907e-06
-2.89046862586e-07
-3.08466008921e-06
-1.09462038092e-06
-3.29695485122e-06
-1.27141746332e-06
-2.62561179749e-06
-2.06603763707e-07
-2.36754592259e-06
1.78832209287e-06
-2.49758078875e-06
5.08521075246e-06
-2.9653820802e-06
8.97722435016e-06
-2.99953704436e-06
1.28862518816e-05
-2.45395927362e-06
1.57064057695e-05
-4.04334684082e-07
1.78908663157e-05
2.01525859832e-06
1.87866858947e-05
5.91934207393e-06
1.77343416367e-05
1.10711316505e-05
1.47393794784e-05
1.77190130583e-05
9.77034171193e-06
2.36562183307e-05
2.88486520124e-05
3.3124519673e-06
-1.19154409844e-08
-1.21889227914e-07
-5.54023920265e-08
-3.54039603603e-07
-1.45851533376e-07
-7.39669922523e-07
-3.27060775852e-07
-1.28432759563e-06
-7.3574804669e-07
-1.96745109809e-06
-1.73829005618e-06
-2.56331297658e-06
-3.11592216727e-06
-2.59908967139e-06
-3.47398258067e-06
-2.59187120195e-06
-2.58789465806e-06
-2.98253230537e-06
-3.73529306841e-07
-3.70900607205e-06
2.89284442297e-06
-4.72575060072e-06
7.33083319257e-06
-5.46376159218e-06
1.25407104237e-05
-5.57804116452e-06
1.78366265019e-05
-4.21368707838e-06
2.1114796393e-05
-1.42471110393e-06
2.25783418921e-05
3.12029066758e-06
2.18917081142e-05
9.21965482204e-06
1.80397372783e-05
1.72059701133e-05
1.18074675662e-05
2.42964250207e-05
2.98001916428e-05
3.95748377997e-06
-7.45514367434e-08
-7.81452994926e-08
-1.80078492243e-07
-2.66719020207e-07
-3.74113161865e-07
-5.85399513642e-07
-7.21977030339e-07
-1.03212886147e-06
-1.35865094633e-06
-1.56053571048e-06
-2.5204622256e-06
-1.89555081312e-06
-3.52716181131e-06
-2.02587171084e-06
-3.68050314435e-06
-2.29519491617e-06
-2.92352293635e-06
-2.94046413673e-06
-1.16643894529e-06
-3.86162540062e-06
1.67268797973e-06
-5.06139073511e-06
5.65999844429e-06
-6.08645725034e-06
1.11422737763e-05
-6.79856097721e-06
1.75997518356e-05
-6.32726685174e-06
2.33271314804e-05
-3.86829652776e-06
2.61445176778e-05
1.26863777596e-06
2.6028316115e-05
8.61816798338e-06
2.18236953828e-05
1.73607295928e-05
1.43450124377e-05
2.62242011661e-05
3.22997607167e-05
4.76579252249e-06
-1.32702116809e-07
-6.50851559664e-11
-2.98975895135e-07
-1.19588978639e-07
-5.91457245862e-07
-3.36540198394e-07
-1.08766614147e-06
-6.35801808093e-07
-1.88145431608e-06
-9.6922653576e-07
-2.83744216472e-06
-1.24758516493e-06
-3.42487984609e-06
-1.49325345819e-06
-3.2061433416e-06
-1.94422141224e-06
-2.33128456095e-06
-2.65516150716e-06
-8.24068752268e-07
-3.55877619565e-06
1.36715136647e-06
-4.6443950003e-06
4.57381913874e-06
-5.66615721729e-06
9.38226582799e-06
-6.56992809297e-06
1.6529081496e-05
-6.88265898753e-06
2.45219183989e-05
-4.95870730055e-06
3.04193078263e-05
2.53619731118e-07
3.19384961209e-05
9.20590336341e-06
2.78228113117e-05
2.03281137831e-05
1.79313159968e-05
3.06361939341e-05
3.7148475258e-05
5.84805565374e-06
-1.27627334262e-07
7.36518716236e-08
-2.79202583083e-07
1.51365785244e-08
-5.2248330703e-07
-1.27481335307e-07
-8.79095181056e-07
-3.44079151789e-07
-1.33568866002e-06
-6.10695365891e-07
-1.77102199413e-06
-8.91865254713e-07
-1.91017117041e-06
-1.22879647151e-06
-1.46542185991e-06
-1.82652359783e-06
-6.49187097598e-07
-2.57773140098e-06
4.64728992678e-07
-3.43365597837e-06
1.92752551472e-06
-4.36927208847e-06
4.1081832339e-06
-5.2778474706e-06
7.56391170034e-06
-6.11008383647e-06
1.33890596276e-05
-6.60551560465e-06
2.15541712578e-05
-4.92387561773e-06
3.01497480042e-05
6.33869512668e-07
3.47165246117e-05
1.2051142918e-05
3.20656104801e-05
2.5863172828e-05
2.10820587044e-05
3.67173703912e-05
4.41412880018e-05
6.77942775694e-06
-7.88266204491e-08
1.18179324103e-07
-1.74582041134e-07
9.63529897502e-08
-3.19590848622e-07
-7.12884274096e-09
-5.15696148803e-07
-1.86062891298e-07
-7.14024273807e-07
-4.52635125247e-07
-7.6590619892e-07
-8.28983401917e-07
-4.35749499061e-07
-1.3968223231e-06
1.8280869728e-07
-2.13955760729e-06
9.89019815309e-07
-3.02273497869e-06
1.9102254617e-06
-3.96980051273e-06
2.91808011226e-06
-4.89716707967e-06
4.41316686863e-06
-5.84809436725e-06
6.84832372136e-06
-6.68609691748e-06
1.06913886152e-05
-6.80753788981e-06
1.75259920936e-05
-5.23268478159e-06
2.74771755484e-05
1.00315763039e-06
3.68130842559e-05
1.59165047457e-05
3.6625209899e-05
3.36643518802e-05
2.51573615657e-05
4.6778090987e-05
5.41232528204e-05
7.76711647815e-06
5.08456140723e-08
8.22814594608e-08
8.72487108111e-08
4.7457894e-08
1.3899383662e-07
-7.72528884204e-08
2.43425434416e-07
-3.12413611172e-07
4.82055838566e-07
-7.05199946255e-07
9.70106577502e-07
-1.29865737994e-06
1.72832207012e-06
-2.0965833252e-06
2.68682079546e-06
-3.0642799814e-06
3.62780291154e-06
-4.03075987408e-06
4.52163695995e-06
-5.10097193264e-06
5.35233434431e-06
-6.15297070376e-06
6.01262288185e-06
-7.04538480245e-06
6.78994338771e-06
-7.65827424103e-06
8.79458154052e-06
-7.79825617678e-06
1.32912369144e-05
-6.2165277627e-06
2.13159755238e-05
1.02530117645e-06
3.15110083194e-05
2.01200416947e-05
3.39511484311e-05
4.20565966807e-05
2.43376347274e-05
5.65332161384e-05
6.3383720504e-05
7.59267164992e-06
2.63977824165e-07
-8.31172670344e-08
5.01809430978e-07
-2.10487627604e-07
8.32109009134e-07
-4.4230241538e-07
1.2777066793e-06
-8.12376476057e-07
1.84484140639e-06
-1.35279461174e-06
2.51127314888e-06
-2.08542052299e-06
3.23239506901e-06
-3.01692201446e-06
3.94858333585e-06
-4.13934388343e-06
4.71579054024e-06
-5.39334209788e-06
5.58154323181e-06
-6.93344893487e-06
6.6308776566e-06
-8.68284506125e-06
7.49179366711e-06
-9.94139713231e-06
8.2467181306e-06
-1.05050061515e-05
8.61409483802e-06
1.03431549785e-05
1.58447623151e-05
2.58739867139e-05
3.04632114994e-05
2.24888727065e-05
6.66056003803e-06
4.50263290023e-07
8.38684351669e-07
1.35312666707e-06
1.98364704766e-06
2.71010460323e-06
3.502358661e-06
4.33822505189e-06
5.51770954524e-06
6.82007534673e-06
7.74736281967e-06
7.87800654242e-06
7.27565288826e-06
-4.27956539279e-06
1.52436413969e-06
-5.04052309953e-06
-2.68178861005e-07
3.25247859465e-06
-6.10004856097e-06
2.37109673279e-06
4.09100936512e-06
-4.5493396982e-06
2.78545774273e-06
4.89628700113e-06
-2.61565658965e-06
2.54055686269e-06
5.54779946889e-06
-9.60566234924e-07
2.22447137731e-06
6.00327958894e-06
3.43655633459e-07
1.86969112424e-06
6.27251653322e-06
1.25708229544e-06
1.58062099577e-06
6.3627588973e-06
1.84470045154e-06
1.33944390398e-06
6.3004527424e-06
2.15332244174e-06
1.15565866529e-06
6.11430441843e-06
2.23964241697e-06
1.02230369385e-06
5.83566898168e-06
2.1537419923e-06
9.34133151318e-07
5.49406625748e-06
1.94066278516e-06
8.853568026e-07
5.11467695909e-06
1.64000173922e-06
8.69631818872e-07
4.71882064861e-06
1.28505170906e-06
8.82657007582e-07
4.32505625354e-06
9.03995583852e-07
9.22736570548e-07
3.95075929493e-06
5.21848498778e-07
9.91039993084e-07
3.61402108345e-06
1.64175893755e-07
1.09346094053e-06
3.33765919807e-06
-1.34730796431e-07
1.23252082403e-06
3.14864241785e-06
-3.60077752096e-07
1.40522762761e-06
3.09688450613e-06
-4.59229468519e-07
1.647250846e-06
3.23432184085e-06
-3.63360703475e-07
1.95221053421e-06
3.65356774493e-06
-8.2057192221e-09
2.36875382188e-06
4.41613897096e-06
7.05492966279e-07
2.92378449499e-06
5.64949466399e-06
1.91899794429e-06
3.3623871247e-06
7.31528991897e-06
3.50734671841e-06
3.7961618987e-06
9.47414928953e-06
5.46302627903e-06
3.7438923423e-06
1.14493983691e-05
7.29438847282e-06
3.23453948975e-06
)
;

boundaryField
{
    inletfuel
    {
        type            calculated;
        value           nonuniform List<scalar> 3(-8.30400582391e-08 -2.49097781388e-07 -4.15231177907e-07);
    }
    inletair
    {
        type            calculated;
        value           nonuniform List<scalar> 
20
(
-8.82453054718e-07
-1.40962279371e-06
-2.06629107233e-06
-2.87919221579e-06
-3.88027309262e-06
-5.10765426992e-06
-6.60676016123e-06
-8.43164604092e-06
-1.06466262203e-05
-1.33283036223e-05
-1.65681167666e-05
-2.04750281273e-05
-2.51782938145e-05
-3.08309428022e-05
-3.76152092655e-05
-4.5748833047e-05
-5.54896961115e-05
-6.71429545838e-05
-8.10725929679e-05
-9.77109528393e-05
)
;
    }
    outlet
    {
        type            calculated;
        value           nonuniform 0();
    }
    axis
    {
        type            empty;
        value           nonuniform 0();
    }
    leftside
    {
        type            calculated;