/*--------------------------------*- C++ -*----------------------------------*\
  =========                 |
  \\      /  F ield         | OpenFOAM: The Open Source CFD Toolbox
   \\    /   O peration     | Website:  https://openfoam.org
    \\  /    A nd           | Version:  7
     \\/     M anipulation  |
\*---------------------------------------------------------------------------*/
FoamFile
{
    version     2.0;
    format      ascii;
    class       volScalarField;
    location    "0.1";
    object      Qdot;
}
// * * * * * * * * * * * * * * * * * * * * * * * * * * * * * * * * * * * * * //

dimensions      [1 -1 -3 0 0 0 0];

internalField   nonuniform List<scalar> 
814
(
7.71406125056
9.33387833935
9.53362710187
885.389628075
1384.46865447
5586.11917536
47556.9840141
112043.682832
1069645.64645
1703646.60349
8060751.49853
213516376.625
9566026.49793
45085192.5082
483884183.587
14031309.9544
42521290.8675
207469628.248
13355090.16
30334839.4259
80934293.7083
10696593.1389
18314821.9055
30440173.5544
7362979.02229
9826323.25518
11457609.4809
4422143.83662
4859460.48163
4559298.7715
2369190.85739
2300699.693
2026456.54793
1172852.74266
1087912.75195
1017650.74804
565040.322004
542265.312548
588900.561744
288149.061259
305917.230633
403010.490493
172957.70009
208596.28488
324146.133645
130281.78975
171566.906773
289807.421893
120192.564044
163510.118802
281779.173169
128603.308761
175001.012648
299375.885215
146458.998082
195389.884346
323301.644045
162437.127008
209604.174881
327491.581584
168966.983616
209077.674029
304589.870485
163147.126977
194193.269532
264514.950184
153053.557566
176850.738913
230166.039987
152710.354593
175881.046558
228933.95839
191495.3455
224000.769987
302451.172555
260309.862917
307335.000221
419124.975553
325200.298129
379872.91502
512205.175337
301562.632
343112.87555
438797.116397
236158.449755
260173.598645
316327.289762
175424.48107
188790.904574
218249.50552
244991.586051
259144.604568
293042.992807
5771654.84484
5950353.91264
6302783.81693
32730175.6499
1402682529.68
373104233.826
98587248.0572
28114014.8623
9420524.27409
4143874.64653
2221782.97129
1298409.40757
872150.602518
681016.824591
592967.398789
540508.003256
520425.328083
542900.747803
561606.377616
532366.927796
457138.954714
370005.657285
309320.81405
313043.395988
431696.60647
604149.905107
728509.895564
589987.265716
401036.35239
261741.318747
344718.931101
6791298.54033
10353.2735896
2338.74456
1423.87690585
904.092246105
485.305541615
224.453437346
82.0651700479
20.9239178415
4.93262627636
1.07111041496
0.211416404808
0.0375030599561
0.00589468999143
0.000814247447548
9.75737994283e-05
1.00012908314e-05
8.67383459321e-07
6.12777600484e-08
3.51768164904e-09
2.73853552029e-10
467860.776469
107366.229309
45607.0299069
21133.0015425
9257.12151961
3258.7469938
768.917987937
172.362242848
36.3034351756
7.0980237185
1.27941479912
0.20816887089
0.0302021921918
0.0038712391796
0.000433300213803
4.19859271019e-05
3.46422152646e-06
2.37774748537e-07
1.35658795005e-08
9.57072462217e-10
5472904.95907
991609.048106
427970.869863
190748.858821
56058.316107
12536.8523979
2833.04065952
616.542115867
125.908262773
23.7293978022
4.14742800442
0.653891538691
0.0917150269011
0.0113427555181
0.00122160969682
0.000114263470116
9.09906962303e-06
6.13915728267e-07
3.44385652989e-08
2.19857305614e-09
243845084.046
185690866.96
16878934.8425
1324241.95018
192296.237829
44069.1082015
10134.834431
2201.78015331
440.018473924
80.0664793728
13.6646419907
2.12403380785
0.294139666286
0.0358345393349
0.00379177390266
0.000349131877327
2.73900536323e-05
1.85702079475e-06
1.05457431448e-07
9.31878903077e-09
710204052.414
191387278.939
519223105.158
51913195.2545
3960481.52704
369723.633528
39736.1588084
7725.25506872
1472.00346048
255.133429417
42.5714379763
6.63729331555
0.930345221093
0.11427726311
0.0121622127762
0.00112787336673
8.94618059577e-05
6.23734357145e-06
3.74158537588e-07
5.12403095225e-08
105482152.512
71949176.5463
601748552.945
78303037.9252
6303264.37825
676753.606098
112107.113773
19359.2709178
4014.87927288
696.753374213
115.882166353
18.4943697588
2.69191072282
0.342674617394
0.0376410379962
0.00359552194088
0.000294734644636
2.14266626226e-05
1.39722591429e-06
2.56279950636e-07
21693145.9531
55204171.0125
551564319.026
71014079.1447
5940062.0723
799199.051781
178983.198468
46337.4799661
8383.24193155
1575.12606645
269.201911145
44.8062886255
6.90920191613
0.931695749668
0.107947906925
0.0108292721688
0.000933405930881
7.15777360668e-05
5.13593283509e-06
1.089094646e-06
9412602.18664
50102982.4952
567724232.817
63754229.188
4969302.42327
801741.993792
242553.162397
78358.0653371
15520.2252129
3071.61296481
542.947717436
95.1480930398
15.7134927893
2.27697831037
0.282619384053
0.0302366069994
0.00277785418655
0.000226817764032
1.79391009725e-05
3.99736902535e-06
7354336.20912
44972028.2041
536041434.886
53651942.5199
4268314.28548
784239.448348
292382.989671
105560.90284
27173.8404107
4883.4275731
963.114050819
180.634259948
32.0628136555
5.02826902449
0.675410697361
0.0779302470889
0.00770959316411
0.000675167256055
5.87235878569e-05
1.30154115475e-05
6066687.51633
32229659.9549
301705398.552
54945825.0665
4549781.74597
807747.57051
321528.442303
127918.047125
37542.4501861
7477.50676204
1588.54679341
314.520799142
59.6283946045
10.13758165
1.48243330394
0.185878714815
0.0199502247806
0.00188459721104
0.000179673720136
3.84090020554e-05
3978513.28623
17270123.8999
131097573.06
86561436.0793
6600296.80094
933183.659624
335106.564329
142050.004943
46668.8120949
10647.600777
2452.68005871
510.300168916
102.650848454
18.8839526766
3.01355165198
0.412573457288
0.0482994967396
0.00494557032293
0.000516171434084
0.000105156647283
2484370.58525
10499621.7912
81247267.2707
138256432.119
10841240.3374
1207082.8139
346036.829182
150695.808028
53127.8005562
15345.7589472
3388.72706457
779.728953042
165.960519013
32.8726128637
5.72484856506
0.857995685348
0.109969952904
0.012256699258
0.00140164149553
0.000271366539182
1852414.57657
8376501.39033
62013800.393
178747533.528
16187840.9187
1684051.95881
372236.643685
158765.951167
60206.815861
19317.4515617
4680.16513642
1149.25651583
255.543565262
54.0937174692
10.2584489526
1.6842094406
0.236859266602
0.0288322030311
0.00361633788535
0.000668019778745
1570766.01951
7219692.30005
48766441.2794
194745835.812
20121102.247
2286002.75984
431996.044748
172021.871565
67845.1036614
22663.9054697
6648.06269713
1561.39884961
378.320472425
85.0873938427
17.4918613385
3.14318827892
0.48541121175
0.0646867698861
0.00889831875976
0.00158249003207
1410841.37734
6234564.33029
36729728.5282
187219364.815
21546719.0893
2920029.33333
563614.584548
202622.621914
78505.0961719
26856.4352199
8505.03681772
2156.06792964
551.488573345
129.450566962
28.625194339
5.61633386507
0.951895549552
0.13905255813
0.0209522549956
0.00363103728891
1267713.2863
5204306.73625
25503647.1461
103241018.587
23033399.8561
3794019.35744
867620.206997
283995.908746
100814.357236
33295.9845695
10750.1529508
2972.88435064
788.417889561
192.454293218
45.3429233009
9.67481902126
1.79713466107
0.287882470696
0.0474067692282
0.00811180628376
1188196.4658
4503140.70094
18040594.7479
58338108.7202
31524821.2132
6258995.94826
1632057.94287
504894.719648
156832.273114
46609.5829433
13997.6151265
4238.84765836
1085.87595366
283.116558282
70.0910051623
16.1941704748
3.29519288412
0.578660373863
0.103763984936
0.0177508478734
1205504.61806
4163505.06367
14009697.3549
40187443.8334
58877015.8862
13218755.1635
3496706.02974
1026732.56873
283062.884125
73725.0952304
19675.7547594
5754.05018945
1516.88512588
416.293454776
107.200759096
26.7630612579
5.96732660689
1.14676138443
0.222525872813
0.0384433737012
1181011.95784
3544989.76947
9542008.58655
22283122.4929
56402331.0993
34307849.1461
8324263.58387
2137636.47453
516953.155562
116887.072694
27449.3290164
7408.24159702
2191.49985128
590.121226318
167.808565697
45.1431414976
11.017716634
2.30442369172
0.478427432151
0.0839355486032
1032578.41712
2639640.86414
5931766.00223
12316252.2774
28388483.0025
91438833.2774
21009796.388
4527353.08658
905718.206602
167398.48121
34793.8011058
9200.57920676
2947.68881285
906.820719207
288.041213709
83.0951248497
21.8782758703
4.89774677297
1.06654515309
0.189731979971
805104.189156
1751411.1887
3488007.62041
6882618.96745
15264211.0435
45116175.1477
47299881.6462
9018796.95745
1388670.95245
196465.824316
38864.1823229
11616.8374652
4323.91364178
1689.50173101
578.149192935
183.536624218
49.4781119496
11.457522361
2.55127976544
0.457003147356
603159.49259
1199134.53855
2349948.20714
4963251.49953
12343577.6821
39247735.6589
66681227.6328
10906428.897
1317931.95457
173669.159613
46336.3795399
18933.222869
8582.9332713
3818.66817122
1459.23266771
493.171148931
131.888413135
29.7945338899
6.61423449207
1.18889071842
492130.206075
1006271.81718
2204032.21162
5388521.72692
14826811.1408
48357148.309
55956200.4005
6281844.74563
585353.5018
161824.458603
84063.0412839
45485.345825
23066.7475909
10611.4304826
4404.52877708
1478.52896971
404.546730225
85.0380282899
18.1250625174
3.27112126596
527190.687883
1227823.05446
3071642.3347
8153002.29354
22878093.0923
73562405.8168
32746699.0665
2834527.13345
493772.996482
320284.471672
227830.395179
139527.423599
73858.3755214
34109.2370099
13871.1104489
4907.04905618
1290.58623368
266.6583398
50.7260875128
9.12011933207
775704.925714
1962459.54241
5118879.3958
13842118.835
39283977.1644
118339477.13
20786779.3967
2503753.01269
973065.765909
823584.001516
666848.127437
447003.809319
252022.980338
119198.635516
47826.7579281
16356.2418468
4581.95505466
851.314616735
143.564596525
24.783792099
1088479.08206
2716043.14243
6935849.87862
18081429.4916
47470352.8506
119139673.801
19872055.1345
4308640.05899
2700505.87443
2419683.87742
2031582.03755
1412382.74124
836165.772656
415897.345764
171734.692437
57275.4813749
15543.1434674
2803.68629501
417.744786458
63.1488836534
1283150.65899
3085707.11252
7549381.06181
18538265.1148
44144906.0342
96839912.0115
26641426.3088
10574012.3262
8575202.67196
7911051.21884
6594054.93793
4645576.24349
2782475.77527
1384541.17465
579032.054716
198331.938856
52265.3057929
9925.87255056
1115.50306597
149.231243993
961038.044592
2074379.54552
4574825.34155
9998051.83002
21037539.9091
41047383.7773
59030476.806
32296586.4888
27538942.7584
24342590.1473
19025276.603
13190883.1414
7956885.57672
4059552.31694
1719324.43031
591313.980212
156082.055536
28479.7789826
2745.37269454
307.313215491
605304.371047
1169067.17955
2318194.9545
4605824.6177
8834185.5613
15710160.065
24956184.0603
32966751.3931
34903796.1271
35474133.3088
39349520.0738
30663380.4897
17442460.1209
9001753.11463
3967277.24993
1410669.81234
378906.142398
65347.6430365
6566.42838411
467.399876491
364372.367125
627531.414377
1117901.96061
2029414.72426
3684465.99242
6369361.00922
9875503.3109
13122624.5521
15726831.3501
18657106.6419
22203103.3252
28732267.5954
26608387.5693
12898733.9325
5784297.07035
2156489.60772
598683.505865
104235.082912
9865.42405341
618.963998519
477316.717891
829409.594448
1519262.49952
2779708.43345
4932373.7015
8356279.37212
13476479.8832
20711510.9524
29056793.2581
40294629.7041
50897974.5687
32896171.6109
18075983.4918
10109545.4153
5122192.21425
2078478.79137
611329.580899
112896.929702
10698.3604078
644.079943523
7839260.57962
9969042.02564
13262058.9488
18161994.3129
25094817.155
34624441.7033
48006980.9206
67547333.2714
86487439.1902
42096653.2371
22145401.0983
12776928.4751
7884357.74029
3.07811963641e-08
7.15464224829e-08
1.18719428242e-07
1.38016339562e-07
3.95506914114e-07
2.93567544839e-07
1.29799491406e-06
7.44785261657e-07
3.76302633898e-06
1.80275254471e-06
9.82152647991e-06
4.12091400445e-06
2.35786526516e-05
8.94139298252e-06
5.35600512336e-05
1.88239935183e-05
0.000117205300747
3.88656598e-05
0.00025051840047
7.94491908588e-05
0.000528030457508
0.000161804936662
0.00110948432573
0.000331126903243
0.00233727057004
0.000685032381574
0.00493886707658
0.00143087632047
0.0105115279435
0.00302295336412
0.0228194234786
0.00651943867314
0.0515694523824
0.0145919705993
0.124192083708
0.0345619422758
0.322879007415
0.087732332669
0.891096238256
0.235498090261
2.51824247998
0.649228097922
6.95837025652
1.75377792223
17.808272245
4.42072465796
41.2697637326
9.90686983893
81.8711020607
18.7482775477
133.722495728
29.7987432257
174.734927012
37.4090515297
178.370614202
36.9023056259
)
;

boundaryField
{
    inletfuel
    {
        type            zeroGradient;
    }
    inletair
    {
        type            zeroGradient;
    }
    outlet
    {
        type            zeroGradient;
    }
    axis
    {
        type            empty;
    }
    leftside
    {
        type            zeroGradient;
    }
    burnerwall
    {
        type            zeroGradient;
    }
    front
    {
        type            wedge;
    }
    back
    {
        type            wedge;
    }
    procBoundary0to1
    {
        type            processor;
        value           nonuniform List<scalar> 
27
(
38765163.4947
38846126.9016
39442336.6837
40183240.3324
5060272.58301
3110564.9078
1472437.91877
442193.333597
78958.007018
7756.3844969
499.680820748
41832714.0375
45348101.7598
50849231.6972
59120622.606
70614698.1277
86624182.0247
57098674.712
30751012.3289
16882359.3831
9802882.78424
6238830.62465
4261321.3698
5060272.58301
3021408.9862
138.889320859
29.0815812441
)
;
    }
}


// ************************************************************************* //
