/*--------------------------------*- C++ -*----------------------------------*\
  =========                 |
  \\      /  F ield         | OpenFOAM: The Open Source CFD Toolbox
   \\    /   O peration     | Website:  https://openfoam.org
    \\  /    A nd           | Version:  7
     \\/     M anipulation  |
\*---------------------------------------------------------------------------*/
FoamFile
{
    version     2.0;
    format      ascii;
    class       volScalarField;
    location    "0.1";
    object      T;
}
// * * * * * * * * * * * * * * * * * * * * * * * * * * * * * * * * * * * * * //

dimensions      [0 0 0 1 0 0 0];

internalField   nonuniform List<scalar> 
814
(
294.245305543
294.24703591
294.256647479
294.343526466
294.348623287
294.369995895
294.411489361
294.423888647
294.487729516
294.759977469
295.508409104
306.707742592
295.986898424
299.396277356
330.559389871
298.182327893
304.902478764
347.683765996
301.390481885
311.694633296
360.829085164
305.958419289
320.072825451
372.740246101
312.715625709
330.776021956
385.629666703
322.735397629
344.44759805
400.365579417
336.868514056
361.195142862
416.670426994
355.341047301
380.648509595
434.094057998
377.60979946
402.276423378
452.579057037
402.797323186
425.815190315
472.673866974
430.675962969
451.980939248
496.192881354
462.345081216
482.672090171
526.014800369
500.189456724
520.642215889
565.335237908
546.714187242
568.329830621
616.328189555
602.387740727
625.657244708
677.579002018
663.62979705
688.177594971
742.520057607
724.054425907
748.539589176
801.883526086
777.540856692
800.195371598
848.548529944
821.761494722
841.373690729
882.494180209
856.394426312
872.5774683
906.275112378
884.490540939
897.989431778
926.35850543
909.953348572
922.130443385
948.111200392
933.838452968
945.425727207
970.37754692
951.660714949
962.031241583
984.512787463
967.089961392
975.917249524
995.11883887
991.866320984
999.12650059
1014.89785101
1053.19637114
1059.73603775
1073.83779074
1292.15804481
1299.56890605
1315.4236565
370.802276001
501.696075196
503.831863691
490.37757321
481.620627832
481.565073167
487.86226874
497.202140682
508.186954859
521.057263568
536.844410302
558.185889499
588.614823517
631.475575042
688.105281933
754.643999927
821.253801476
876.62816727
913.925506982
936.583841565
950.198753438
963.878245233
983.360727296
1004.89399901
1015.8464353
1021.9253359
1036.73551417
1093.46756112
1336.90337551
292.501723293
292.487734315
292.474051784
292.460684518
292.45017579
292.443203611
292.438570215
292.434342162
292.429205806
292.423266404
292.418048759
292.414512371
292.411533487
292.407304781
292.402493592
292.399259807
292.397011194
292.39437025
292.393021184
292.395561952
294.521061955
292.865965548
292.165907795
291.851728422
291.680192606
291.594920067
291.559417795
291.551019794
291.550519118
291.551555688
291.550565273
291.549696165
291.548247661
291.545412964
291.54185055
291.538439933
291.536628608
291.533500671
291.531490396
291.521568068
323.186102924
298.999493724
295.94314259
293.701474631
292.415854522
291.75738187
291.480543755
291.380035564
291.353850387
291.349484188
291.34916669
291.348748038
291.348362985
291.346845141
291.344159576
291.341711929
291.339774248
291.337653222
291.33399248
291.329923236
548.951151585
418.164493581
338.723625066
308.630787027
297.793307203
293.913041899
292.234007355
291.620313969
291.432850616
291.387238177
291.379609717
291.378109556
291.378668114
291.37858428
291.377056882
291.375951987
291.374336114
291.373607345
291.369425724
291.407935973
1159.90863164
2112.65726407
1532.62326764
639.086554011
379.208426234
313.472856656
295.719748835
292.675331435
291.754388443
291.523811521
291.478764966
291.470512594
291.470337862
291.47079339
291.469856851
291.468984323
291.467769549
291.467289698
291.464729876
291.510159606
1048.94228413
2003.75526982
1996.46334479
859.614094139
447.530761618
336.837843512
305.870950441
294.96829893
292.462722521
291.721025397
291.560797286
291.529953327
291.525315127
291.524899165
291.52358564
291.52188226
291.520585401
291.519420937
291.518826798
291.568714434
953.182461688
1993.68737674
2144.4642022
943.04381926
494.873935515
364.579448161
318.640065957
300.834504856
293.660361741
292.050988945
291.638116478
291.55203894
291.536023545
291.533252616
291.531082687
291.528488982
291.526786241
291.524948382
291.524772423
291.578582645
860.761911758
1850.00168761
2157.71592505
963.079653458
539.164715567
398.079582763
336.255241997
308.712145464
295.813902488
292.670555789
291.773803666
291.573633434
291.532846121
291.525095705
291.521826757
291.518829186
291.516870534
291.514843836
291.514423503
291.574184058
798.991218166
1711.81761435
2177.69079962
1007.94745688
602.202476856
440.701766123
358.163368716
317.612461755
300.209406658
293.58490504
292.035788537
291.631080946
291.540705674
291.522151523
291.516825398
291.513651124
291.511715646
291.509804635
291.50967482
291.576342278
760.289726415
1567.71262661
2316.08679433
1137.80733413
695.296863379
492.647602631
383.717728008
329.235789421
305.532742383
295.220965436
292.530547786
291.754693886
291.570589078
291.529784335
291.519814863
291.516068886
291.514205184
291.512375531
291.512969895
291.586132102
733.569651517
1420.40565681
2412.41699074
1351.0953695
815.207387681
551.76470555
412.705068603
343.480288694
312.523754819
297.774952512
293.386280667
291.982133035
291.630515213
291.547214974
291.527409851
291.521966739
291.519949666
291.518049308
291.519410227
291.598861429
715.996041019
1304.63812678
2385.83725169
1595.91325292
944.726113359
615.063110117
445.26286231
360.844659464
320.576273404
302.508200493
294.567715914
292.373433422
291.737023029
291.577048957
291.537976466
291.528587436
291.525920492
291.523847145
291.526057215
291.612437041
708.714703984
1237.11515
2303.52930383
1840.18376543
1075.70039436
682.466530165
482.502302989
381.929434386
331.595017592
308.065392103
296.565319603
293.048511924
291.922972346
291.628807208
291.553864017
291.536136499
291.531814827
291.529463234
291.53280836
291.627205013
712.295532881
1208.15084338
2214.49853883
2080.27623374
1212.75035798
758.009757947
526.493256555
407.549187466
345.493127096
314.597056628
300.26394922
294.0177752
292.243164339
291.720217652
291.580828955
291.546453421
291.538410782
291.535482103
291.540310707
291.643899193
729.825387745
1217.44830148
2152.36573523
2319.30648266
1365.88328932
846.862372713
580.583318241
439.278092033
363.111650713
323.778612125
304.870313643
295.698559208
292.807912107
291.881401918
291.628526421
291.562442692
291.546606726
291.542326091
291.548900016
291.663003133
764.798793723
1257.98524079
2113.60400896
2505.63122795
1555.44388542
960.173803191
652.274113679
481.215662766
386.689729323
336.285707762
311.174251266
298.427825739
293.754173195
292.162795771
291.712986586
291.588954598
291.557665252
291.55030672
291.558683463
291.684895412
819.208676356
1322.19027068
2095.16769842
2542.03989489
1829.71637718
1137.77162281
759.143045606
543.300727645
420.502607749
353.939172217
319.541714123
303.02484423
295.175058561
292.655400571
291.86078743
291.634611503
291.574009064
291.56000057
291.569827247
291.709933838
889.666154699
1391.05838403
2069.63899684
2461.17127996
2213.38777541
1437.98027966
933.935731777
640.755634604
470.86958086
379.14437484
331.65903491
308.915401832
297.485918093
293.503161086
292.117077614
291.715028413
291.600479059
291.572626399
291.582690248
291.738519711
963.652957235
1440.33103224
1991.92731433
2341.83756518
2491.61971284
1906.13325653
1207.97752969
784.375265203
540.839369633
412.03402317
347.070774565
315.848206521
301.39411972
294.724044955
292.567117316
291.858929333
291.646787446
291.590721363
291.597915252
291.771168626
1023.61123668
1437.67857766
1864.04079531
2172.77165848
2400.38705606
2391.11940765
1573.16780487
966.400401307
622.319987555
447.668830307
363.869308136
324.301451678
305.918326448
296.739733481
293.375256777
292.125949774
291.73344308
291.619831467
291.61669803
291.808545389
1057.66995989
1384.6135098
1710.91613612
1981.74641473
2240.72614808
2481.96505372
1888.91073874
1121.92453443
682.238384154
474.467754732
378.924676651
333.658641565
311.373198369
300.342984686
294.76850011
292.672311207
291.906699388
291.67263461
291.641598052
291.85150999
1063.87974697
1312.35458299
1567.77210196
1816.22384324
2100.97062774
2406.88386678
1971.84193729
1148.88991446
694.819221625
488.60545317
393.864909157
345.997158402
320.072428313
305.885363238
297.603126991
293.874286966
292.28922795
291.778834529
291.678598504
291.901313412
1055.78877618
1249.36498002
1465.37085247
1713.13457975
2030.37673241
2355.83752746
1833.03785522
1048.62815916
670.297947041
502.529209149
418.040156758
367.986331708
336.38134224
316.17498385
303.851788802
296.501454086
293.217185127
292.012681346
291.74185431
291.960115726
1045.51784222
1208.67932189
1412.97524623
1678.86599173
2027.20391345
2292.87664228
1584.52341163
972.972039643
696.873500504
556.894764601
474.599434035
414.939141203
370.407763472
338.029875218
316.13323703
302.878734457
295.38417553
292.590436169
291.86470123
292.032254209
1046.56083158
1203.24520352
1417.33331339
1712.4206268
2064.03136578
2159.08496711
1441.13924841
998.678230723
796.563865737
681.339369938
594.059080992
513.570171758
442.903584185
385.187311643
343.230276748
316.226197006
301.162369221
293.97797738
292.128710188
292.126568011
1061.01512393
1216.68733933
1441.55291516
1751.19827011
2082.05280731
2126.29852869
1536.20996513
1169.53506342
1013.11633762
919.374068718
831.095165063
714.956463847
595.051016761
485.877271577
401.838563036
345.302672163
313.492484047
297.370827929
292.750329935
292.261774309
1080.339431
1236.97114644
1467.53512917
1778.43239348
2090.34502052
2157.52187908
1776.97674871
1491.89661541
1386.13350819
1326.57410817
1243.37746864
1092.96624912
904.762956537
700.784892489
527.00660842
407.36388688
338.669449794
306.079321955
294.001254007
292.471122542
1084.75145011
1229.94983897
1444.04584993
1732.64341582
2047.99681431
2242.66435432
2188.5387725
1985.22978048
1929.5476385
1904.54286166
1839.64792841
1680.23282308
1428.69924344
1103.05737175
779.2486858
530.541476494
386.345231756
321.126873584
296.35204547
292.791626875
1081.83155247
1209.04342892
1396.13316758
1648.74565363
1935.02315313
2156.5930029
2239.07003043
2253.00041492
2278.71745214
2310.74430374
2335.45651629
2251.88694809
2031.59598164
1657.47531188
1183.75593676
746.092287287
465.564692737
342.548130643
301.207934452
293.157776798
1086.29352151
1189.75108342
1339.4053674
1538.17210073
1766.0982333
1964.06128282
2093.23993262
2176.91785926
2241.91547042
2297.15910247
2348.28921262
2385.77753518
2313.87020899
2039.57035737
1567.11906308
990.254232311
551.447815365
363.292042479
305.020265063
293.568286988
1138.74675605
1228.95711348
1354.93990742
1513.00896737
1690.2706746
1864.69076941
2016.06506527
2133.67841181
2216.0879236
2249.59917068
2253.19744937
2220.13239157
2149.56175831
2023.98581096
1704.5882061
1118.69740774
591.451788208
371.929390883
306.56918845
293.894592824
1385.43593092
1473.41810346
1588.11978545
1722.22903967
1864.08068293
1996.87764027
2095.50441754
2133.61856669
2116.55710223
1989.81835779
1838.76692247
1728.80538292
1690.67101153
293.569126501
293.662561823
292.821605193
293.118486127
292.42005653
292.709405719
292.204866151
292.505374031
292.099795674
292.422951945
292.054913565
292.39217908
292.04618189
292.393641407
292.060632699
292.417294785
292.092020364
292.458866719
292.137085543
292.516311485
292.194209765
292.589142266
292.262148887
292.677602757
292.340349577
292.782299644
292.429142396
292.904906606
292.529509413
293.048057856
292.642940447
293.215332605
292.771477573
293.411377757
292.917758051
293.642095029
293.085163595
293.91523556
293.278075369
294.24109848
293.502166987
294.632116797
293.763415749
295.103876845
294.072480157
295.675498673
294.440839059
296.367551218
294.895909245
297.2142412
295.458841199
298.258772194
296.19248244
299.570449915
297.163859892
301.230577306
)
;

boundaryField
{
    inletfuel
    {
        type            fixedValue;
        value           uniform 294;
    }
    inletair
    {
        type            fixedValue;
        value           uniform 294;
    }
    outlet
    {
        type            zeroGradient;
    }
    axis
    {
        type            empty;
    }
    leftside
    {
        type            fixedValue;
        value           uniform 294;
    }
    burnerwall
    {
        type            zeroGradient;
    }
    front
    {
        type            wedge;
    }
    back
    {
        type            wedge;
    }
    procBoundary0to1
    {
        type            processor;
        value           nonuniform List<scalar> 
27
(
1908.0165532
1912.81137885
1923.05130858
1936.90991069
1692.85263034
1560.11724355
1069.44609295
555.437787778
359.411330899
304.231052729
294.092138558
1967.39739355
2018.30025386
2074.02369461
2119.19474067
2140.32182683
2122.18680131
2025.86195158
1846.79235481
1645.40393441
1470.76699397
1349.59784425
1286.41892891
1692.85263034
1279.95694962
298.504986795
303.340700942
)
;
    }
}


// ************************************************************************* //
