/*--------------------------------*- C++ -*----------------------------------*\
  =========                 |
  \\      /  F ield         | OpenFOAM: The Open Source CFD Toolbox
   \\    /   O peration     | Website:  https://openfoam.org
    \\  /    A nd           | Version:  7
     \\/     M anipulation  |
\*---------------------------------------------------------------------------*/
FoamFile
{
    version     2.0;
    format      ascii;
    class       volVectorField;
    location    "0.1";
    object      U;
}
// * * * * * * * * * * * * * * * * * * * * * * * * * * * * * * * * * * * * * //

dimensions      [0 1 -1 0 0 0 0];

internalField   nonuniform List<vector> 
814
(
(0.944742111341 2.89415144462e-15 61.2623673022)
(-3.14916714041 5.83965234572e-16 60.6600153972)
(4.20846048813 2.24036529365e-16 57.3033874818)
(0.844385551548 3.69321279534e-15 63.447180122)
(-1.66982446158 1.17321749472e-15 62.2393594021)
(1.97296149664 3.02356202043e-16 57.0759709854)
(0.567667006161 -4.81246784389e-15 63.6191679358)
(-1.03602615769 -1.16513201824e-14 62.1205968984)
(1.42750233524 -1.67406126405e-14 55.2408506763)
(0.313772848625 -9.42404478401e-13 61.9002319439)
(-0.931729996942 -1.29482765228e-12 59.8061919618)
(1.95986074456 -5.19108317135e-12 46.7300648867)
(0.399399379794 -1.32339917728e-10 60.6267259247)
(0.190749427725 -8.44070699633e-11 57.9242573926)
(2.27775681505 -1.64204643964e-11 45.4272096893)
(0.257005464534 -1.96261423776e-10 59.5109088768)
(0.103773167333 -8.51686880242e-11 56.1404597953)
(1.31529051934 3.02543181193e-11 43.4814487582)
(0.132178884755 -9.108640804e-11 57.1372618657)
(0.210905573825 -6.33143977274e-11 53.1014377442)
(0.990443917344 5.33230056971e-11 40.6961664008)
(0.188160885782 -4.40667124819e-11 54.249732254)
(0.407926489475 -3.37688990141e-11 49.598273861)
(0.956516128509 7.72895723788e-11 37.6970412417)
(0.229265844199 -1.90520147498e-11 50.8765434104)
(0.538933178608 -1.34702950522e-11 45.7554544428)
(0.963180484357 4.5766698391e-11 34.652356444)
(0.245085657105 8.32035944828e-11 46.9781419005)
(0.619140361255 1.93736377685e-11 41.7002178543)
(0.977112763219 3.31838854724e-11 31.6421637989)
(0.259627256193 3.71933531438e-11 42.6609337824)
(0.659024440843 3.45369041667e-11 37.5802321152)
(0.968501332609 6.8426420928e-11 28.6979365953)
(0.269368186728 3.88939356767e-11 38.0868860154)
(0.663902893503 1.1687288926e-10 33.4843832457)
(0.929854015986 1.06554458839e-10 25.7841447662)
(0.271704337531 2.59862409699e-11 33.4174570597)
(0.652276305078 6.77913856485e-11 29.44870107)
(0.887089814257 6.91729392682e-11 22.8697245033)
(0.267684059948 -1.76688213086e-11 28.753090749)
(0.64031735268 -7.40176387514e-11 25.4477070385)
(0.869585688709 6.36748677923e-12 19.895724214)
(0.252519240445 1.27030781811e-10 24.1932154375)
(0.615722843383 -8.19266355033e-12 21.4956718853)
(0.853962285425 -6.27907234477e-11 16.8565047747)
(0.230783279369 1.0919469849e-11 19.8117688985)
(0.569096074559 -1.53462294258e-12 17.6231672211)
(0.806143030926 -7.67786845119e-12 13.7699485805)
(0.198817696612 -5.5622359145e-13 15.7635785602)
(0.494124214275 -4.8463880081e-12 13.9861622298)
(0.708522056497 -1.27671225339e-11 10.8015576408)
(0.159172566328 1.04581895704e-12 12.3657734479)
(0.396248432005 3.57943298883e-12 10.9222061845)
(0.56698477277 1.14573643418e-11 8.31323313886)
(0.114232378187 -3.93471782615e-13 9.80126450691)
(0.289129014875 -1.6259696976e-12 8.62476611833)
(0.416278465701 -6.52721997711e-12 6.49649716834)
(0.0805357126093 -3.98438318314e-13 7.97650802579)
(0.202662753041 -1.31002423054e-12 6.99858157518)
(0.288782587648 -3.21599542853e-12 5.23554233495)
(0.0684839284793 1.58797673464e-12 6.57256993504)
(0.172707794489 4.51775803675e-12 5.72536758812)
(0.251050012707 7.27639849837e-12 4.21530590639)
(0.0710405444919 5.26757978602e-11 5.11434846045)
(0.181098065818 1.63618061081e-10 4.34875421395)
(0.271835762516 5.8992392667e-11 3.0046530042)
(0.0709134040215 1.23777925115e-11 3.52446632924)
(0.181458136851 3.20790241405e-11 2.80507066644)
(0.274320119133 3.2607078391e-11 1.5710625345)
(0.0531629721387 -9.86610665921e-11 1.92008095513)
(0.134474994092 1.71220961567e-11 1.25376995608)
(0.19763209025 1.23011520979e-10 0.132523637543)
(0.0179953694021 3.91504950469e-12 0.982135538701)
(0.0434453193891 1.28250736734e-11 0.378326322985)
(0.0536302658839 1.93120240673e-11 -0.610909413073)
(-0.0267549703639 2.42518473358e-11 1.01968382316)
(-0.0729366969406 -1.33419815166e-10 0.498539644033)
(-0.130900339369 -1.58340332249e-10 -0.353691711426)
(-0.0649096701838 -7.59689139497e-12 2.36859772608)
(-0.174017745766 -2.09780206013e-11 1.92451702286)
(-0.292348906454 -2.51918001711e-11 1.21028753632)
(-0.0627184115191 -1.70846050605e-11 4.2754584526)
(-0.165171606616 -4.86071121652e-11 3.91554892817)
(-0.272384939068 -8.36087237415e-11 3.33790210148)
(-0.0320597806358 6.69452308218e-12 5.76908748679)
(-0.0870702254986 2.12866872298e-11 5.46412355259)
(-0.148729918316 4.91071248254e-11 4.984573033)
(0.0336551514887 -2.33788709957e-11 5.67996573458)
(0.0887911409245 -6.49912095296e-11 5.41921338249)
(0.139885476045 3.96930604342e-13 5.01943645153)
(0.154776620967 2.26754536175e-12 3.35695874053)
(0.403279768223 7.73354674088e-12 3.09803638035)
(0.637062892691 2.04646156313e-11 2.71531732568)
(0.247578606146 1.01219497602e-11 -4.72687192837)
(0.641011369893 2.96633268006e-11 -5.03609130661)
(1.00821985104 5.5187412583e-11 -5.44152721694)
(-2.34343495296 -3.5496315597e-11 12.5364696848)
(1.40275479794 -2.26210540941e-11 18.2064194351)
(0.943366063898 -1.65913306401e-11 22.598817476)
(0.796298068529 -3.33301137538e-12 23.8443343601)
(0.952096795448 1.62983780259e-11 23.6881064404)
(1.03448299743 1.99515595574e-11 22.7229751609)
(1.06005528967 2.62829718489e-11 21.3611102402)
(1.06737877389 3.99047277592e-11 19.7893526051)
(1.03767682107 5.25250239774e-11 18.0289346484)
(1.00513678262 4.47425757492e-11 16.1150053997)
(1.0036781953 1.93309874979e-11 14.0316149129)
(1.00129658952 1.73505807123e-11 11.7965376913)
(0.963809080089 1.88548019288e-11 9.44043417247)
(0.851969525118 -2.76596013845e-11 7.13906162155)
(0.674556214173 3.26419424144e-11 5.27234307129)
(0.485266920448 -2.311221094e-11 3.99843808256)
(0.332940113287 -6.14315751458e-12 3.15767807878)
(0.298642388825 1.28065842298e-11 2.43022014283)
(0.337578317538 7.50009799131e-12 1.41276395776)
(0.344148494384 3.07287982398e-11 0.109348057827)
(0.243774255665 7.43006660439e-11 -1.1910781769)
(0.0457196322212 1.65157795892e-11 -1.7718198523)
(-0.204181668704 -1.14058470727e-10 -1.36614396233)
(-0.420613774067 -1.91549951535e-11 0.352522585076)
(-0.392755296168 -2.88985600911e-11 2.64530435629)
(-0.21872811837 9.5261210852e-11 4.40649871519)
(0.184526045778 4.57110873285e-11 4.54393419978)
(0.855548476794 3.5272673188e-11 2.25239940428)
(1.36566407899 8.99312036638e-11 -5.89662856204)
(0.11678589692 -4.4821354484e-12 1.55590989625)
(0.299813252835 -3.78963737697e-11 1.65070242503)
(0.40495221156 -7.39997436152e-12 1.63739373791)
(0.503864550157 -1.53717521334e-12 1.71072864006)
(0.563574550204 -3.45557241075e-13 1.73136485628)
(0.612006350334 -8.71923175516e-14 1.7810857694)
(0.630097951055 -4.47843830473e-14 1.80769718053)
(0.635980830352 -1.07609024212e-13 1.84091181456)
(0.617985605546 -3.52480282685e-13 1.86204521315)
(0.590143991533 -1.08033649263e-13 1.8854465391)
(0.548233816744 -8.46873357444e-14 1.9013633827)
(0.508093886333 -2.77729552101e-13 1.91637798143)
(0.459091349172 -2.44357241228e-13 1.92596458212)
(0.412565852976 -3.84089610674e-14 1.93280022963)
(0.348186323548 -4.65097691926e-15 1.94011442121)
(0.29938147825 -4.94832781267e-16 1.94317885737)
(0.227611293947 -3.35191076542e-17 1.94939566214)
(0.176986551177 8.62585120417e-15 1.9497691515)
(0.093756829935 1.42819245475e-13 1.95488350318)
(0.0322900425933 2.87571332903e-15 1.95178345228)
(0.451530552601 -8.38051431416e-12 0.672682107241)
(0.489977501374 -6.89285739639e-11 0.870709350198)
(0.644931075209 -1.64048697174e-11 0.96737233461)
(0.780789212377 -4.14116964978e-12 1.11705370047)
(0.789993601504 -1.11667542506e-12 1.22008638434)
(0.826783634738 -3.42195403283e-13 1.39202750221)
(0.798001821133 -3.31287221218e-13 1.49310165538)
(0.77605513849 -1.42211571543e-12 1.59306072063)
(0.725027048801 -1.15384956292e-11 1.65406493501)
(0.676434006367 -1.52246342062e-12 1.71251716894)
(0.611027415664 -8.77715671321e-13 1.75110853705)
(0.555219311272 -6.8955401641e-12 1.78588485187)
(0.489671747943 -6.00082683526e-12 1.80797694942)
(0.437883702566 -4.07425832277e-13 1.82429076531)
(0.363976414663 -2.90574680085e-14 1.84059185861)
(0.317130980239 -3.51247888437e-15 1.84876284513)
(0.235732260212 -1.01913622656e-14 1.86283118141)
(0.192084194532 9.63569405802e-14 1.86463872323)
(0.0970201281917 3.93385359143e-12 1.8835376853)
(0.0114783763149 4.11890712639e-14 1.87194231587)
(0.421825407607 -1.47073654674e-11 -1.0744726312)
(0.65231899229 -5.41528068619e-11 0.217187584327)
(0.804257131158 -2.10959001243e-11 0.0103576909332)
(0.958253287093 -7.05643158962e-12 0.680558493613)
(1.02325236273 -2.17481920638e-12 0.85605025201)
(1.04566946169 -6.98649960732e-13 1.15360388618)
(0.946603041719 -6.32841647442e-13 1.30757562265)
(0.879094968867 -2.20135211968e-12 1.45428989676)
(0.78580519504 -9.5695015387e-12 1.53784832635)
(0.713994453722 -2.06321966188e-12 1.6136386689)
(0.628540291002 -1.45160117692e-12 1.66184353953)
(0.561533903994 -6.56029719151e-12 1.70453978613)
(0.485999476615 -5.63772358325e-12 1.73178031982)
(0.432643949415 -5.93923325202e-13 1.75270140904)
(0.355692130006 -5.35598871328e-14 1.77288872671)
(0.31268555389 -1.73230202144e-14 1.78385216646)
(0.228957308446 -2.10877210739e-13 1.80192120811)
(0.194976715627 1.52159445238e-13 1.8047740168)
(0.0940240737215 3.97427440739e-12 1.8394895324)
(-0.000469630075767 6.27951407356e-14 1.80514685022)
(-2.69263252805 -5.04096426972e-11 -0.577076314372)
(1.08796600677 -4.93544005587e-11 -0.0257279906374)
(1.37275651888 -2.54266245173e-11 -0.220656814884)
(1.78101091164 -9.45791404367e-12 0.351520730341)
(1.38743939312 -3.56924955771e-12 0.50797474276)
(1.33294543592 -1.28660010351e-12 0.970775611472)
(1.11242528738 -1.3901862014e-12 1.17267614597)
(0.992820534345 -3.19763051135e-12 1.36848136503)
(0.851367019309 -8.32345511383e-12 1.46345460544)
(0.756882192621 -2.60061361716e-12 1.54673952188)
(0.651537062856 -2.07356442545e-12 1.59853726326)
(0.574168156233 -6.74568990634e-12 1.64368718412)
(0.489337496959 -5.49080861309e-12 1.67298925593)
(0.434150226108 -8.22214768873e-13 1.69637278474)
(0.353871412214 -7.73667438409e-14 1.71833044348)
(0.313893467819 -8.8295834919e-14 1.73109614835)
(0.227189713464 -2.67530705101e-12 1.75125181387)
(0.204708768732 1.78132245427e-13 1.75605328903)
(0.0922074493208 5.72778638296e-12 1.80681477082)
(0.027682417134 2.05637893847e-14 1.77349086283)
(2.86487979095 4.58414629722e-11 5.04539157492)
(1.96892036085 -1.12866440163e-10 -0.592045704904)
(2.23515559185 -4.02965435854e-11 -0.321870788369)
(2.33288166584 -1.59236305576e-11 -0.225698257004)
(2.05513475149 -6.5583181853e-12 0.506963086459)
(1.84073735524 -2.87987542921e-12 0.938016829689)
(1.37732493133 -1.04356691482e-11 1.14365431443)
(1.1636700079 -1.15440602183e-11 1.32066335735)
(0.945531116753 -8.34071075772e-12 1.41114621808)
(0.824021356764 -3.27407673002e-12 1.48881255067)
(0.696547668235 -3.18863311301e-12 1.53958124189)
(0.607190122227 -1.26229075801e-11 1.58379982385)
(0.511942876494 -6.08062545062e-12 1.61375388246)
(0.452884834534 -1.11293187437e-12 1.63866491348)
(0.367353533955 1.19298903702e-13 1.66150778432)
(0.327791418153 -1.58494056447e-13 1.67575555551)
(0.236264941369 -2.57427193184e-12 1.69631943788)
(0.224656721042 1.99025211502e-13 1.70355381686)
(0.111167319713 5.64008813706e-12 1.7567299014)
(0.166425775811 -2.95483339934e-12 1.75479843709)
(1.08123957953 -1.05278022716e-10 4.87696086153)
(1.42057257756 -2.01873471263e-10 -3.45724488523)
(2.30893234308 -6.33297771639e-11 -1.05500706191)
(2.26009159327 -2.21681327309e-11 0.311956120025)
(2.18488330216 -8.5885384794e-12 1.12248145795)
(1.91167694574 -4.36512978529e-12 1.18174507176)
(1.5236723127 -9.39700231228e-12 1.2616406626)
(1.28960087871 -1.70510969917e-11 1.31752800497)
(1.04103929425 -8.91653502979e-12 1.38079833005)
(0.899791712385 -4.24224231411e-12 1.44002306324)
(0.754632694164 -7.72370277631e-12 1.48391971165)
(0.653282858784 -1.18738037455e-11 1.52441584149)
(0.547367074832 -1.12481375075e-11 1.55387826373)
(0.482750540479 -1.54270383377e-12 1.57945592627)
(0.390628550531 3.61743475766e-12 1.6024187737)
(0.349286270847 -1.10705918414e-13 1.61766502167)
(0.251797951789 -2.48859328973e-12 1.63697970477)
(0.247617308239 2.21596598845e-13 1.6454494437)
(0.129986501732 7.25030214538e-12 1.68456321549)
(0.259162743359 -2.62541494629e-12 1.65898145419)
(0.477969189829 -7.97686543262e-11 4.31479638797)
(0.936579990266 -1.55638156431e-10 -4.96012971085)
(2.0561215768 -6.30250650325e-11 -2.83379534833)
(2.09163606179 -2.50057385859e-11 0.364782549946)
(2.09156946913 -9.79889466853e-12 1.31006012164)
(1.86875729596 -6.22707941484e-12 1.36022662435)
(1.57540336655 -1.82176265518e-11 1.34911732844)
(1.35727309738 -1.61799203408e-11 1.32409292876)
(1.12554362581 -9.14595684173e-12 1.35551561138)
(0.971393215346 -5.2973322825e-12 1.39713792513)
(0.813533655452 -8.25648079961e-12 1.43091798582)
(0.701912254936 -1.15143239308e-11 1.46605025094)
(0.586074485262 -1.0631864466e-11 1.49441778027)
(0.51516930936 -1.88539417901e-12 1.51985647076)
(0.416195410608 3.02837401593e-12 1.54237433534)
(0.371813599328 -7.39120354927e-14 1.55804799163)
(0.268458829026 -2.36572676122e-12 1.57486727986)
(0.267752832403 2.36603969442e-13 1.58407789485)
(0.144368542985 6.99661380766e-12 1.60198061684)
(0.298587369676 -2.43110834663e-12 1.55945475281)
(0.825566908858 -3.1671099659e-11 4.19370821331)
(0.44341785112 9.53309925457e-11 -6.24196187146)
(1.75277638705 1.4187189825e-12 -3.7279156066)
(1.91931745597 -1.78553869136e-11 0.381170877404)
(1.93081583824 -9.80376754955e-12 1.31905965099)
(1.78275634328 -8.20411517514e-12 1.4262759491)
(1.56740493335 -1.67727360933e-11 1.3549036621)
(1.39537111943 -1.54952913474e-11 1.32343707528)
(1.18831506866 -9.58470652963e-12 1.3223847767)
(1.03306653125 -7.15618522195e-12 1.35595710601)
(0.866383431244 -1.59522528778e-11 1.37955629301)
(0.747644127284 -1.18625518015e-11 1.40826010867)
(0.623597707007 -1.03349654766e-11 1.43532224991)
(0.546252310594 -2.27991639946e-12 1.4600028215)
(0.440785797842 2.60823765279e-12 1.48148716564)
(0.392587651087 -1.78737402946e-14 1.49714476812)
(0.28407335197 -2.20170329079e-12 1.51068756668)
(0.282898113195 2.51331648376e-13 1.5205967242)
(0.153915022126 6.78541283612e-12 1.51728205665)
(0.293146428136 -2.23214784637e-12 1.46813225884)
(1.22225115785 -7.27134310983e-12 4.37853770815)
(-0.161235397845 1.03905030752e-10 -7.09061758317)
(1.54131600367 1.06062192049e-10 -4.18194568506)
(1.85195827735 1.50389638649e-12 0.154081171613)
(1.82119107296 -8.07140025609e-12 1.13923096514)
(1.73833796338 -9.42814050883e-12 1.34540421729)
(1.56377318449 -7.43502001491e-12 1.29556743441)
(1.42191219527 -1.3660753963e-11 1.29089999847)
(1.23863600213 -1.06197066404e-11 1.28053702567)
(1.09084623174 -1.7503562169e-11 1.3097853253)
(0.913477917585 -2.23972612192e-11 1.32799957838)
(0.790475240015 -1.25295609136e-11 1.35046029463)
(0.660244467731 -1.01635275655e-11 1.37621702523)
(0.576267874696 -2.9825399434e-12 1.39975704064)
(0.46472993764 1.90892576048e-12 1.41974515192)
(0.411952752873 1.21498659664e-14 1.43510163782)
(0.2990070499 -2.02202771255e-12 1.44508057051)
(0.293942076455 2.67557186293e-13 1.45578300777)
(0.160291909547 6.53431891135e-12 1.43516523209)
(0.270899372157 -1.99154225745e-12 1.38530388514)
(1.38637796539 3.97228194436e-11 4.79552783413)
(-0.303913015885 2.35871621925e-10 -7.1780384313)
(1.27057695047 7.43203822122e-12 -4.75854835971)
(1.82726491643 -3.30836416107e-12 -0.413933672163)
(1.82334098101 -8.20993118394e-12 0.861983840871)
(1.74819122269 -1.01893871624e-11 1.14495780178)
(1.57308051575 -1.86464704593e-11 1.20019284619)
(1.45655480612 -1.4333984149e-11 1.22971594953)
(1.28577817969 -1.16387675766e-11 1.2374213363)
(1.14354120864 -1.69420668065e-11 1.25830848868)
(0.959533861074 -2.06379824237e-11 1.27610189703)
(0.832339813748 -1.29487252611e-11 1.29301996483)
(0.6975665261 -1.05129242737e-11 1.31681128546)
(0.606559382143 -7.82583045071e-12 1.3389757846)
(0.48919841255 -2.5757088031e-12 1.35718742897)
(0.430953444101 -1.58804219945e-13 1.37214107343)
(0.31413546632 -1.85241913109e-12 1.378684117)
(0.302309000689 2.85010941814e-13 1.39027586054)
(0.16496996069 6.23785696918e-12 1.35675716697)
(0.243416772985 -1.7430275637e-12 1.30910610347)
(1.30556164836 1.98299233491e-11 5.00602153123)
(0.0980636394868 -5.40336047789e-11 -7.0000236445)
(0.922143629143 -1.24730570819e-10 -6.26038154571)
(1.82391832754 -2.57865841016e-11 -1.40875557519)
(1.84339761635 -1.09358640233e-11 0.426823943209)
(1.74216549831 -1.05750904015e-11 0.872878120467)
(1.61120447511 -1.55243623708e-11 1.093642062)
(1.49368279821 -1.2954537373e-11 1.15741833559)
(1.33284908574 -1.88826431993e-12 1.19391060042)
(1.1938416381 -1.56802306575e-11 1.20000232959)
(1.00602258815 -1.95502344227e-11 1.22243466138)
(0.873755208255 -1.34400009698e-11 1.23587967414)
(0.735918443186 -1.54734177183e-11 1.25681835118)
(0.637803031984 -8.18234771036e-12 1.27760872669)
(0.514776316703 -6.28636570636e-12 1.29398561372)
(0.450210800039 -3.59039317002e-13 1.30862168546)
(0.329940773221 -1.71096743821e-12 1.312146691)
(0.309175119825 2.9567707108e-13 1.32464721897)
(0.169284245413 5.76260327781e-12 1.28228333051)
(0.217252361812 -1.52275218064e-12 1.23847427486)
(1.17732181717 -1.7156097442e-11 4.80343219907)
(0.33578892428 -2.09769562928e-10 -6.85217834802)
(0.629320875729 1.63722422988e-11 -8.02764902215)
(1.74044785423 -1.32329656183e-11 -2.74612995009)
(1.8415055703 -1.01651940572e-11 -0.151684077201)
(1.75853257407 -1.11230654799e-11 0.599570151296)
(1.65297207736 -2.41980376876e-11 0.983175325207)
(1.52982168067 -1.29538041529e-11 1.0755316338)
(1.37083654835 -5.52578348435e-12 1.14415908551)
(1.2363360145 -1.49967754413e-11 1.14026771268)
(1.05691704237 -1.80606739217e-11 1.16570938561)
(0.915844903184 -8.66383406683e-12 1.17918776497)
(0.775262168545 -1.42797837897e-11 1.19663588415)
(0.670240444141 -8.78791417157e-12 1.21582183578)
(0.541613064988 -6.19589124658e-12 1.23043034704)
(0.469980387141 2.01248879936e-12 1.24488879828)
(0.346545098437 -1.74834994506e-12 1.24598218465)
(0.315374131242 2.270336628e-13 1.2592779459)
(0.173977751481 1.84738821219e-12 1.21144199158)
(0.194028234786 -1.48354845903e-12 1.17181461268)
(1.13121394924 2.1655161729e-12 4.28844015554)
(0.60945529145 -1.41491421322e-12 -6.73173746244)
(0.394971197481 2.41654304428e-10 -9.27239558244)
(1.67285209196 2.80443998524e-11 -4.16117182183)
(1.82454888384 -4.8983442225e-12 -0.788922378196)
(1.74188879154 -1.15275635107e-11 0.324319322161)
(1.67609540635 -1.99540151674e-11 0.847585454125)
(1.54823592002 -1.28983653693e-11 0.982705955729)
(1.40978151996 -1.78639660695e-11 1.07757348258)
(1.27422416277 -1.53792984185e-11 1.08647816788)
(1.10602004179 -1.71274100819e-11 1.10416214775)
(0.959333321271 -1.59296668981e-11 1.12230351455)
(0.814849532687 -1.4248486983e-11 1.13683808236)
(0.703638359808 -9.3609169341e-12 1.1536245865)
(0.5697415124 -6.69885442435e-12 1.16678085799)
(0.490508427047 1.28854207011e-12 1.18115995243)
(0.364056036383 -6.36199715103e-12 1.18049313581)
(0.321604964733 -2.49582991914e-14 1.19440525081)
(0.179557113819 1.66716838841e-12 1.14382718952)
(0.174737164319 -4.57854787148e-12 1.10806664067)
(1.16530545293 1.94435252788e-11 3.47927841016)
(0.820072876919 7.27085810216e-11 -6.72161957805)
(0.347771320613 3.76111924968e-10 -9.95715078433)
(1.53139992592 8.93790091659e-11 -5.58964552075)
(1.76236838643 3.82945856995e-12 -1.59364644432)
(1.72133452573 -1.19910181542e-11 0.0014467739259)
(1.6805672959 -3.05622036776e-11 0.650529174845)
(1.5594766352 -1.55495726356e-11 0.867523095001)
(1.44617165894 -1.65520555701e-11 0.992373176746)
(1.30361590396 -1.55379217138e-11 1.02219075242)
(1.15286162295 -2.31575146552e-11 1.04186518662)
(1.00662120035 -1.60983627628e-11 1.06176413382)
(0.854976063021 -1.426037157e-11 1.07785514323)
(0.737932843017 -1.01338311698e-11 1.09120342139)
(0.599491567769 -1.32537929651e-11 1.10327111869)
(0.512137906547 5.62572515197e-12 1.1175313717)
(0.382666344318 -5.38800836771e-12 1.11576674377)
(0.328509649463 -2.58414679256e-13 1.13016094907)
(0.186345787254 1.2429418408e-12 1.07899238738)
(0.159710049027 -4.29203034411e-12 1.0463654412)
(1.19574789262 1.66483464481e-10 2.44848685272)
(0.882238715905 1.19383823776e-10 -6.80982498948)
(0.344024871943 2.73406315972e-10 -10.1177804827)
(1.19788384183 1.8345032632e-10 -6.92789189832)
(1.65520108536 2.05959228341e-11 -2.53783765745)
(1.70013072987 -1.07230193471e-11 -0.382979028062)
(1.67100584267 -2.39039901144e-11 0.374396900549)
(1.5719757692 -1.31555588711e-12 0.723474259367)
(1.47662518862 -2.63704514878e-11 0.882034416469)
(1.33896236409 -1.74673601715e-11 0.944279639818)
(1.20035752389 -2.13880287497e-11 0.98367503721)
(1.05381285632 -1.68204696792e-11 0.996304693028)
(0.897957907086 -1.88774945479e-11 1.0206821912)
(0.772748256027 -1.12156467004e-11 1.02963564925)
(0.631017899668 -1.50521556989e-11 1.04012567647)
(0.535192655027 3.37204627109e-12 1.05403192495)
(0.402641625173 -4.91309944066e-12 1.05172081059)
(0.336679517131 -4.93727242306e-13 1.06660127427)
(0.194581125927 9.89302673826e-13 1.01655710546)
(0.14883578737 -1.20887699742e-12 0.986256155916)
(1.19565668054 6.96298415431e-11 1.2666358738)
(0.824274326046 8.77270067558e-11 -6.92081141569)
(0.510205677893 1.90155079778e-10 -9.96528679318)
(0.574904700809 2.08746265874e-10 -8.17286972418)
(1.37433999529 2.67934693483e-11 -3.6580343785)
(1.64861696384 -1.09571536852e-11 -1.00128498959)
(1.64247527498 -4.68942549521e-11 0.0083567409654)
(1.60134934093 -1.20183691986e-11 0.515608810193)
(1.50139736649 -2.37023855332e-11 0.742941738434)
(1.38575161508 -1.94586455217e-11 0.855049115765)
(1.24608344456 -3.39968931678e-11 0.916279202013)
(1.10130099771 -1.89905667417e-11 0.933464187408)
(0.945693994622 -1.77562322655e-11 0.962224774274)
(0.807297628936 -8.3090414028e-12 0.969180141995)
(0.663938193352 -1.36170462536e-11 0.977508652891)
(0.559867265224 1.6792573684e-12 0.990598960047)
(0.424247836206 -4.37403740411e-12 0.988170416259)
(0.346682981222 -6.97642568526e-13 1.00371691397)
(0.204488673891 8.53983978482e-13 0.95626127261)
(0.14168978211 -1.14836781834e-12 0.927605814572)
(1.05563368558 -1.00118835795e-10 0.133099845532)
(0.592070457317 4.13076790725e-11 -6.92014972217)
(0.33398549577 2.22753058036e-10 -9.55758604528)
(-0.12457257119 2.02319456005e-10 -8.93659474148)
(0.73250517353 3.09185166497e-11 -4.94982920437)
(1.6037523575 -1.12086266881e-11 -2.00286348734)
(1.70492497764 -3.31031046668e-11 -0.475265202575)
(1.65844610383 -1.50023564371e-11 0.183524480722)
(1.55536354413 -2.30131886744e-11 0.577291878046)
(1.44548029412 -2.14023639489e-11 0.751299537811)
(1.29864095186 -3.01398659824e-11 0.847469854099)
(1.15326803441 -2.0179540961e-11 0.875018973344)
(0.993408258697 -1.73880220101e-11 0.903767595825)
(0.843398881523 -9.95829859971e-12 0.910659798747)
(0.697955587398 -1.26966115069e-11 0.915842214466)
(0.586182113116 1.23201218415e-14 0.927156258012)
(0.447785242688 -3.86043715947e-12 0.92501031617)
(0.359110541148 -8.68466845215e-13 0.94150142586)
(0.216342064695 7.39065420016e-13 0.897987931339)
(0.137805408349 -8.29075490511e-13 0.870576907004)
(0.778617644273 1.16487750231e-10 -0.553268788314)
(0.29082009173 -3.99973604322e-11 -6.51134362532)
(-0.120219988729 1.9137828248e-11 -8.78509182711)
(-0.377223426707 1.02930259481e-10 -8.80353540514)
(-0.0323783224523 2.81788520585e-11 -6.32072229725)
(1.44721930501 -2.14567573223e-11 -3.34600670343)
(1.76197127656 -2.9515166472e-11 -1.12968520669)
(1.75056525073 -1.85047364431e-11 -0.206540837646)
(1.67641469468 -3.61229539005e-11 0.410442243233)
(1.52228514657 -2.43689599672e-11 0.643891431477)
(1.35971414546 -2.89703075885e-11 0.784269566661)
(1.20118229816 -2.60377624056e-11 0.823013210348)
(1.03973842208 -1.35333949008e-11 0.843670286161)
(0.879039053076 -1.05605497676e-11 0.851481000147)
(0.731595574662 -1.20161887482e-11 0.854970706771)
(0.613799247214 -1.56837081353e-12 0.862836590316)
(0.473587760736 -3.5041786941e-12 0.861954451211)
(0.374571916856 -1.0276581741e-12 0.879909534984)
(0.230523304676 5.02403029857e-13 0.84172114195)
(0.136907703713 -7.41271323015e-13 0.815575239547)
(0.47325567617 -1.01791677957e-10 -0.771482299416)
(0.129452745786 1.55334272375e-10 -5.83787393496)
(-0.319188407806 1.37373910798e-10 -8.00176100393)
(-0.038212516616 9.92923384329e-11 -8.47026662837)
(-0.555010050115 2.72657437708e-11 -7.88187673259)
(1.09902049175 -9.42981101597e-11 -5.03087143083)
(1.8520152073 -3.86205809871e-11 -2.16331883594)
(1.83524065159 -2.32834986947e-11 -0.52925745878)
(1.76607202921 -3.13578418252e-11 0.225046777048)
(1.56865306326 -2.52269463948e-11 0.585244612039)
(1.41493189346 -2.79624333601e-11 0.740522539156)
(1.23219205892 -2.48700263917e-11 0.786589113334)
(1.075421114 -1.48261415805e-11 0.791268198829)
(0.915875049299 -1.16195488594e-11 0.791290337675)
(0.765358508804 -1.72535587621e-11 0.793456554899)
(0.642363772508 -3.39398007149e-12 0.797355111832)
(0.502539649834 -3.37417426947e-12 0.798891343881)
(0.393901385903 -1.28436204759e-12 0.819176046016)
(0.247637704108 -3.10036489339e-12 0.78769122223)
(0.138945736029 -3.88423658771e-12 0.763211117938)
(0.320526827207 -1.01865734796e-11 -0.807000078147)
(0.0352350966128 -6.48149663199e-12 -5.22079466983)
(-0.181436999224 2.30472532322e-10 -7.51787897151)
(0.0126097304575 1.19541746478e-10 -8.44801692881)
(0.24540887182 4.27509946861e-11 -8.97435200211)
(1.0338931908 -2.79543500023e-11 -7.36827128051)
(1.79042529138 -3.38493983854e-11 -3.62932903483)
(1.83040843589 -2.62379052083e-11 -1.01097281681)
(1.70761001603 -3.03640878966e-11 0.0601353560874)
(1.57694068963 -2.57790545403e-11 0.558170401062)
(1.40155367186 -2.69424188672e-11 0.705235264626)
(1.23013713174 -2.41782364215e-11 0.741348611913)
(1.08445336743 -1.14214848211e-11 0.736675746728)
(0.93867456127 -1.21779463245e-11 0.720314719085)
(0.796754795488 -1.56437841611e-11 0.722725398029)
(0.672179373051 -5.09025031396e-12 0.729094768672)
(0.535310519012 -3.31421662172e-12 0.734366164483)
(0.418039618858 -1.55392004992e-12 0.759224995803)
(0.26839898199 -3.05810359758e-12 0.736189093537)
(0.14402293515 -3.8134274562e-12 0.71432765948)
(0.323582342321 3.14905059326e-11 -0.991361021429)
(0.187974051753 1.13730666723e-10 -5.00527282567)
(0.188962890207 2.26307602138e-10 -7.57621523717)
(0.478855590985 1.26471842275e-10 -9.1393266442)
(0.994561303236 5.31260594097e-11 -10.2123313692)
(1.38523675462 -1.21403157491e-11 -9.84567814117)
(1.52387870956 -4.53699625391e-11 -5.47741216141)
(1.51414237061 -2.87518020154e-11 -1.70124765098)
(1.47357988428 -1.15822437685e-11 -0.00926172196648)
(1.39400596687 -2.37188983228e-11 0.554895346736)
(1.28259873697 -2.6353658291e-11 0.695660799014)
(1.17300421312 -2.89910323754e-11 0.70734591101)
(1.06370719916 -1.36910233456e-11 0.684162310046)
(0.950703421144 -1.27922853246e-11 0.65130882855)
(0.831883933385 -1.52070544733e-11 0.646984489702)
(0.708145545102 -1.13421377328e-11 0.655135710583)
(0.573924978233 5.22611487367e-13 0.669796326927)
(0.44919376063 -1.59042336191e-12 0.700658529063)
(0.294134898562 -3.23056072174e-12 0.688445571717)
(0.152575110798 -3.98706438564e-12 0.67030233039)
(0.415578277696 -7.18914539904e-11 -1.67384992264)
(0.423499481086 1.62169540329e-10 -5.52907907407)
(0.577041570875 7.1378664208e-11 -8.47993555452)
(0.887501593787 9.74608117514e-11 -10.6368014163)
(1.29395735913 4.98439679105e-11 -12.0890201519)
(1.27098897037 -9.46426682654e-12 -11.9259891522)
(1.09825762566 -9.91624640223e-11 -7.09474535781)
(1.08727305317 -3.93503698153e-11 -2.18960223778)
(1.08215915203 -3.60630831563e-11 -0.177037717243)
(1.08196040959 -2.62037209776e-11 0.438535417936)
(1.06721247028 -3.35599004391e-11 0.57361826456)
(1.04066804655 -2.18125859257e-11 0.581084883076)
(0.994375042406 -1.42932613412e-11 0.555790027396)
(0.932410318797 -1.32268839367e-11 0.536445462122)
(0.851703324604 -1.50677465935e-11 0.537482693748)
(0.747667763417 -1.59197171483e-11 0.565294779602)
(0.621859995214 2.70976210353e-12 0.600841088925)
(0.48826384488 -1.4464004155e-12 0.643226094674)
(0.326266686651 -3.08953870483e-12 0.645440340324)
(0.164963019323 -3.99262888697e-12 0.632842110891)
(0.431553595933 3.60211370093e-11 -2.74143358963)
(0.482287807126 8.20514630072e-11 -6.50533390079)
(0.585000622313 1.00312759514e-10 -9.70590932635)
(0.740006881678 8.76956176195e-11 -12.1635176328)
(0.805262890382 4.53686306665e-11 -13.5797082341)
(0.574457906767 1.26116748944e-11 -12.7999206542)
(0.396489228752 -6.0545388814e-11 -6.9874871493)
(0.397249103076 -3.60283291281e-11 -2.0761370961)
(0.492864391993 -3.11487605401e-11 -0.308926763144)
(0.669701572238 -2.60896921163e-11 0.128530746148)
(0.793705011579 -2.31235013211e-11 0.259481151413)
(0.888776814857 -2.12705043598e-11 0.312698667902)
(0.934793905486 -1.4958972147e-11 0.357582365209)
(0.93614104403 -1.35733467001e-11 0.40788445372)
(0.900876152409 -1.48393495299e-11 0.433976986489)
(0.817431131722 -1.4777854149e-11 0.477397261996)
(0.68955187519 5.94828515173e-13 0.531481591885)
(0.542020944835 -1.27984327489e-12 0.59344258229)
(0.367822675861 3.92405021529e-13 0.610809011714)
(0.182317886412 -3.80198952927e-12 0.605416350326)
(0.291332568786 2.96994619315e-11 -3.75651046498)
(0.280145250439 -2.00112074434e-11 -7.31886908343)
(0.248427110696 6.36389561031e-11 -10.4872663785)
(0.195005003178 6.8372850093e-11 -12.8424139755)
(0.178565934283 3.85886717663e-11 -13.7348181738)