/*--------------------------------*- C++ -*----------------------------------*\
  =========                 |
  \\      /  F ield         | OpenFOAM: The Open Source CFD Toolbox
   \\    /   O peration     | Website:  https://openfoam.org
    \\  /    A nd           | Version:  7
     \\/     M anipulation  |
\*---------------------------------------------------------------------------*/
FoamFile
{
    version     2.0;
    format      ascii;
    class       volScalarField;
    location    "0.03";
    object      alphat;
}
// * * * * * * * * * * * * * * * * * * * * * * * * * * * * * * * * * * * * * //

dimensions      [1 -1 -1 0 0 0 0];

internalField   nonuniform List<scalar> 
815
(
0.000382802139705
0.000382883142566
0.00038336088096
0.000387830101928
0.00038795995997
0.000388206449482
0.000383636417088
0.000383789056282
0.00038421386572
0.000377117343538
0.000377523933748
0.000378183914889
0.000370428898947
0.000370877444287
0.000371800199411
0.000363020376472
0.000363701843226
0.00036490640444
0.000355583521721
0.000356313819779
0.000357803174282
0.000347454474034
0.000348386541117
0.000350130113744
0.000338947654707
0.000339962027828
0.000341950597966
0.00032965422861
0.000330831964088
0.000333037149537
0.00031992963172
0.000321154860531
0.000323524046086
0.000309591923973
0.000310858524437
0.000313346895423
0.000299012818795
0.000300302220248
0.000302816973132
0.000288669277068
0.000289881136144
0.00029233992283
0.000279067924798
0.000280229029412
0.000282551510285
0.000271227807736
0.000272233121135
0.000274328308532
0.000265889132148
0.000266759002227
0.000268581689436
0.000263988712784
0.00026469887206
0.000266210054536
0.000265967467465
0.000266522066776
0.000267725471428
0.000271666140447
0.000272080032934
0.000272993710965
0.000280082073216
0.000280379590492
0.000281036227728
0.000289647371167
0.000289827746865
0.00029025481136
0.000298667314443
0.000298766376377
0.000299002373727
0.000306114776291
0.000306137156499
0.00030621177354
0.000311543719127
0.000311525742031
0.000311489485978
0.000315062283909
0.000315014620113
0.000314901771824
0.000316859076945
0.000316782654243
0.000316610250278
0.000316776368952
0.000316672791802
0.000316453946996
0.000310300757766
0.000310115780189
0.000309814904374
0.000248529190495
0.000247874375951
0.00024720476318
0.000144251787291
0.000144109244675
0.000143896727981
0.000383797342199
0.000388440931422
0.000384608385757
0.000378956963521
0.000372848663998
0.000366361496541
0.000359565979715
0.000352285634992
0.000344393894763
0.000335788553479
0.000326471334812
0.000316448249664
0.00030597319419
0.000295441340242
0.000285512516557
0.000277036454309
0.000270978137515
0.000268247593054
0.000269394762145
0.000274306867075
0.000282019737545
0.000290933683085
0.000299423088694
0.00030642054848
0.000311549245473
0.000314861931003
0.000316502890134
0.000316299589376
0.000309605491214
0.000246827088478
0.00014375520292
0.000186544153256
0.00017557841211
0.000185377374167
0.000240855404633
0.000278432122247
0.000364646703456
0.00071813798184
0.000384744850577
0.000383615334455
0.000376857590014
0.000362764752069
0.000341993342098
0.000317205949343
0.000291474702559
0.000267172414764
0.000245640792765
0.000227562732551
0.000212538332558
0.00019969701871
0.000188603077471
0.000181070289105
0.000182877174895
0.000215354998886
0.000261585539921
0.000289793505693
0.000421216362379
0.000818310988894
0.000388841397774
0.000386616450877
0.000378412488262
0.000362628303999
0.000340055626213
0.000313506021979
0.000286257442371
0.000260867766639
0.000238754580094
0.00022062612005
0.000206330807713
0.000195252232099
0.000187665702637
0.000187709002518
0.000203744123953
0.000244213839167
0.00027199235357
0.00030762046876
0.000488498984566
0.000910902315548
0.000385414534916
0.000383642230878
0.000375564259072
0.000359464414029
0.000336252997696
0.000309025325052
0.000281363179506
0.000255975525143
0.000234394596302
0.000217350639147
0.000205048760743
0.000197566400139
0.000195981360997
0.000205549836782
0.000231734084215
0.000264130352646
0.000277461088741
0.000332198480755
0.00056490013232
0.000994950402902
0.000380370705173
0.000379386589719
0.000371912567784
0.00035615529308
0.000333041709166
0.000305840501923
0.000278406915845
0.000253649719619
0.000233249059431
0.000218183831376
0.000209121221078
0.000206682814241
0.000212462859297
0.000230137193939
0.000257632143381
0.00027450675165
0.000282133825423
0.000363202033736
0.000648262831331
0.00107106827642
0.000374893887156
0.000374850455918
0.000368224498873
0.000353127094799
0.000330490282593
0.000303731983306
0.000276968396558
0.000253387190894
0.000234898025032
0.000222707372498
0.000217832443513
0.000221201854405
0.000233848161258
0.000255321156518
0.000275896255816
0.000278452155442
0.000288185755132
0.000400696366135
0.000739312859536
0.00114017154659
0.000369113364161
0.000370128041386
0.00036456936715
0.000350473523694
0.000328741478979
0.000302892488845
0.000277259838135
0.000255322358142
0.00023926246569
0.000230508893921
0.000230202675798
0.000239012417548
0.00025610900118
0.000276251366962
0.000286306365042
0.000279126739541
0.000296381259422
0.000444711980408
0.000838465913414
0.00120361052724
0.000362998220337
0.000365145304331
0.000360836000891
0.000348038064233
0.000327617208956
0.000303116507066
0.000279037505244
0.000259122636649
0.000245832817773
0.000240731013627
0.000244757460521
0.000257622369058
0.000275866935004
0.000290950699047
0.000291093594524
0.000278637666079
0.000307235457341
0.000496240163661
0.000945855789877
0.00126268048793
0.000356382910242
0.00035967284019
0.000356737415401
0.000345504848613
0.000326799290579
0.000304130761325
0.000282063650351
0.000264522480201
0.000254164013138
0.000252541123101
0.000260046913939
0.000274906795625
0.00029136162828
0.000300038050369
0.00029257306703
0.000278048490541
0.000321129173121
0.000556693867437
0.00106068540053
0.00131797023535
0.000349110929954
0.000353511267638
0.000352030398327
0.000342597170387
0.000325994262824
0.00030563667504
0.000286036509861
0.000271168164642
0.000263736279039
0.000265087493405
0.000274783900817
0.00028948675661
0.000302327823892
0.000305019980085
0.000292281285609
0.000277876285905
0.000338670650297
0.000627490209681
0.00118113536154
0.00137055408717
0.000341049278055
0.000346486190897
0.000346480828192
0.000339021841223
0.000324862237647
0.000307265438742
0.000290565669213
0.000278617331038
0.000273978365196
0.000277574013975
0.000288013601035
0.00030084550731
0.000309444369384
0.000307351100731
0.000291103687233
0.000278445450502
0.000360810624866
0.000710066486022
0.00130468712297
0.00142150795809
0.000332138921094
0.000338481582059
0.000339922811432
0.000334553094892
0.000323108774239
0.000308647098276
0.000295199310781
0.000286319325545
0.00028421255567
0.000289206133655
0.000299058581278
0.000309014473143
0.00031362385825
0.000308007732006
0.000289449998532
0.000280098664231
0.000388990575371
0.000805648219263
0.00142893903731
0.00147171406663
0.000322391060076
0.00032947112561
0.00033227895951
0.000329053508066
0.000320513860017
0.000309456764824
0.000299487345551
0.000293690777534
0.00029373909634
0.000299285606666
0.000307579650298
0.00031437206715
0.000315694371058
0.000307582397859
0.00028748103185
0.000283314570597
0.000424954890573
0.000914642636801
0.00155226860692
0.00152175781215
0.000312000354735
0.000319607574265
0.000323656868819
0.000322568974011
0.000317027787025
0.00030950809437
0.000303078521299
0.00030021168124
0.000301929094322
0.000307294739927
0.000313537267947
0.00031743420489
0.000316297214653
0.000306408570809
0.000285274235345
0.00028879805374
0.000470734934055
0.00103701645904
0.00167392300575
0.00157223975749
0.000301375731395
0.000309277718855
0.000314409125213
0.00031538910501
0.00031283320498
0.000308823582972
0.000305798948638
0.000305519832266
0.000308344895214
0.000312999470994
0.000317155064437
0.000318748640455
0.000315906638531
0.000304667254384
0.000282927582141
0.000297511715563
0.000528423519735
0.00117227846161
0.00179372869542
0.00162352886065
0.000291170013477
0.000299123517797
0.000305151790811
0.000308070257595
0.000308369865019
0.000307664792188
0.000307692930275
0.000309478974114
0.000312841792342
0.000316503906529
0.000318869081938
0.000318847835659
0.000314872191643
0.000302445908777
0.000280597098389
0.000310669206509
0.000600121519145
0.0013195895872
0.00191216818923
0.00167613250512
0.00028225384505
0.000290034135849
0.000296755671835
0.000301408461273
0.000304290002298
0.000306475387663
0.000308979386755
0.000312168098075
0.000315562251969
0.000318187890026
0.000319225498542
0.000318197605863
0.000313432684683
0.000299782726675
0.000278596789849
0.000329882998069
0.000688296797175
0.00147810513766
0.0020302495315
0.0017304824779
0.00027563854054
0.000283042433571
0.000290223154028
0.000296301154907
0.000301307460654
0.000305738522973
0.000309943528846
0.000313818491853
0.000316864260068
0.000318582416737
0.000318764394863
0.000317166797674
0.000311736962614
0.000296670212652
0.000277454125387
0.000357197252169
0.000795407609811
0.0016468160863
0.00214923100819
0.00178701898337
0.000272276997086
0.000279131722921
0.000286484298564
0.000293531822035
0.000299990941797
0.000305808945034
0.000310825410252
0.000314725276822
0.000317208877414
0.000318235381879
0.000317935170685
0.000316007560957
0.000309837339474
0.000293078638016
0.000278019205339
0.000395245094381
0.000924201577438
0.00182502225419
0.00227045238161
0.00184603927643
0.000272771236094
0.000278917216219
0.000286075602903
0.000293473533647
0.000300528716454
0.000306765377284
0.000311746679285
0.000315181219833
0.000317043610687
0.000317597263908
0.000317049611287
0.000314851063415
0.000307686027808
0.00028899080435
0.000281639836063
0.00044769125924
0.00107781956721
0.0020122692076
0.002394818811
0.00190728760637
0.000277036291295
0.000282316518665
0.000288848763105
0.00029587986857
0.000302628268746
0.000308400775386
0.000312714382526
0.000315427128389
0.000316723442604
0.000316976073903
0.000316283258345
0.000313723418217
0.000305151624645
0.000284484488331
0.000290416319773
0.000519577760329
0.00125973210829
0.00220811363698
0.00252280801987
0.00197006752355
0.000284124123892
0.000288401146596
0.000293899519546
0.000299919314739
0.000305636944161
0.0003103529481
0.000313684902444
0.000315639005382
0.000316481087632
0.000316538595008
0.000315695029286
0.000312545577734
0.000301968141222
0.000279893532938
0.000307831585296
0.000618442498919
0.00147331942475
0.00241182296785
0.0026535620691
0.00203268520704
0.000292450315519
0.000295663174853
0.00029988264301
0.000304516127389
0.000308844792046
0.000312299387039
0.000314633917857
0.000315934466253
0.000316440273437
0.000316348068157
0.000315259322342
0.00031113265993
0.000297766849879
0.000276273906506
0.000339424920906
0.000753910361406
0.00172017786434
0.00262169726474
0.00278476464676
0.00209274998647
0.00030041952769
0.000302630624315
0.000305571870464
0.000308794472867
0.00031175696102
0.000314061078156
0.000315568629066
0.00031637851542
0.000316644574935
0.000316395099376
0.000314879105784
0.000309180682677
0.000292180847389
0.000276192648626
0.00039352663194
0.000936772651187
0.00199765897264
0.00283382758234
0.00291190478096
0.00214653474995
0.00030699172086
0.000308375091058
0.000310243932457
0.000312292180954
0.000314153811713
0.000315578523117
0.000316491745497
0.000316966645543
0.000317058502995
0.000316603062782
0.000314376330236
0.000306272909996
0.000285297726496
0.000284414609457
0.000480043286318
0.00117285756359
0.00229491422826
0.00304062020158
0.00302814518534
0.00218827262119
0.000311812817826
0.000312588815413
0.000313677151777
0.000314882716286
0.000315977160358
0.000316811304366
0.000317342994962
0.000317607449313
0.000317562436881
0.000316821497022
0.000313523044577
0.00030213235257
0.000278521088003
0.000306286031467
0.000604302791885
0.0014524613168
0.00259032184953
0.00322991649166
0.00312369309162
0.00220751437289
0.00031492399748
0.000315299065206
0.000315879430637
0.000316545333725
0.000317159944855
0.000317635361383
0.000317943473124
0.000318083092145
0.000317922993995
0.000316839354516
0.000312214413442
0.000297221933985
0.000274223233209
0.000341410066018
0.000754627110229
0.00174074473997
0.00285302189754
0.00338436577025
0.00318306986986
0.00218327189995
0.000316435453206
0.000316565628306
0.000316839386721
0.000317186343389
0.000317523477297
0.000317797384733
0.000317983998969
0.000318058064663
0.000317819595634
0.000316476236015
0.000310782353775
0.000293147543077
0.000272549225798
0.000375409096611
0.000890955296014
0.00197964050839
0.00304615486695
0.00347856212129
0.00318041365242
0.00208214394575
0.000316150321316
0.000316135016711
0.000316233556542
0.000316401588315
0.000316586192225
0.000316751811444
0.000316876410013
0.00031693205842
0.00031668345358
0.00031534800045
0.000309512811047
0.000291298089351
0.000270326599703
0.000386333764695
0.000959370208502
0.00210664432045
0.00312805227149
0.00347280035719
0.00307172267351
0.00186144883793
0.000309377636369
0.000309261829704
0.00030925545109
0.000309321676899
0.000309421915004
0.000309531205845
0.00030962441354
0.000309694154859
0.000309531478663
0.000308582813899
0.000304133166791
0.000289274713763
0.000264823499425
0.000351722786412
0.000902489497151
0.00205993231486
0.00303864507659
0.00328783562127
0.00277824414763
0.00148986336582
0.000246427744237
0.000246190816425
0.000246100242268
0.000246096561086
0.000246136912712
0.000246205262816
0.000246264497369
0.000246347469568
0.000246290678538
0.000245981272559
0.000244171253293
0.000238654874165
0.000228512585257
0.000276025287931
0.000697434487078
0.00176314447452
0.00266172876819
0.00277306328659
0.00217699567221
0.000988420964475
0.000143572958974
0.000143456868388
0.000143412191173
0.000143405380326
0.000143417201729
0.000143440808816
0.000143467170635
0.000143506892398
0.000143527914192
0.000143538789707
0.000143395551874
0.00014322348603
0.000145243743525
0.000173930315666
0.000401786261178
0.00114000000168
0.0017591687841
0.00169730387945
0.00119412444646
0.000488569951465
0.000275320267973
8.61945493549e-05
0.00029732004356
9.12671147236e-05
0.000313121148712
9.56954538093e-05
0.000324986133104
9.97315815085e-05
0.000334677598733
0.000103557706291
0.000343361838423
0.000107263676637
0.000350992756951
0.000110887713932
0.000358032788076
0.000114452657697
0.000364867254509
0.000117951413503
0.000371570770558
0.000121371815966
0.000378176088161
0.000124710025858
0.000384848297144
0.000127959762309
0.000391699835644
0.000131121173193
0.000398923683246
0.000134202793651
0.000406745700145
0.000137216996984
0.000415313059698
0.000140177464004
0.000424804817756
0.000143098206963
0.000435411981382
0.000145988108057
0.000447168325002
0.000148854021454
0.000460220258658
0.000151690772095
0.000474143917113
0.000154487863982
0.000488697471529
0.000157227220732
0.000502907290264
0.000159884122808
0.000515690579133
0.000162415244092
0.000524933026477
0.000164695973744
0.000526907677676
0.000166459931902
0.000516032927378
0.00016721617116
0.000484186366078
0.000166296038844
0.000425286869857
0.000163071052282
0.0003430272693
0.000157125309082
0.000261528144121
0.00014721463537
0.000216306398215
0.000128543275337
)
;

boundaryField
{
    inletfuel
    {
        type            calculated;
        value           nonuniform 0();
    }
    inletair
    {
        type            calculated;
        value           nonuniform 0();
    }
    outlet
    {
        type            calculated;
        value           nonuniform List<scalar> 
26
(
0.000392148178309
0.000392148757399
0.000392149971559
0.000392151645144
0.000392155323569
0.000392162542912
0.000392171330286
0.000392180461376
0.000392188773671
0.000392195338924
0.000392199527465
0.000392200156179
0.000392192936257
0.000392161676865
0.000392050882087
0.00039167907113
0.000390451725487
0.000386164041199
0.000371365483775
0.000339301198227
0.000303491591899
0.000272855072446
0.000245713142976
0.000220345414758
0.000224162465518
0.000241932109768
)
;
    }
    axis
    {
        type            empty;
    }
    leftside
    {
        type            compressible::alphatWallFunction;
        Prt             0.85;
        value           nonuniform List<scalar> 
32
(
1.51314274061e-05
1.63396877335e-05
1.74211559073e-05
1.84416726785e-05
1.94445007918e-05
2.04477566258e-05
2.14572777304e-05
2.2477634579e-05
2.3506439337e-05
2.45421885134e-05
2.55864526756e-05
2.6640323304e-05
2.77065875832e-05
2.8790553761e-05
2.98982724617e-05
3.10361867673e-05
3.22108450017e-05
3.34277126039e-05
3.46918640534e-05
3.6004753302e-05
3.73648485757e-05
3.87666933541e-05
4.01990139357e-05
4.16397395543e-05
4.30321511459e-05
4.42624155171e-05
4.51301013264e-05
4.53633557768e-05
4.47034504331e-05
4.29823425738e-05
3.97733592218e-05
3.33824513935e-05
)
;
    }
    burnerwall
    {
        type            compressible::alphatWallFunction;
        Prt             0.85;
        value           nonuniform 0();
    }
    front
    {
        type            wedge;
    }
    back
    {
        type            wedge;
    }
    procBoundary1to0
    {
        type            processor;
        value           nonuniform List<scalar> 
27
(
0.000323914115064
0.00032525842026
0.000327856739852
0.000331244310914
0.00020110587158
0.000183239717564
0.00016589750395
0.000209305492031
0.000270540089782
0.000321084218184
0.000613922135952
0.000337944291352
0.000346474820613
0.000350636545486
0.000347270858132
0.000335596562758
0.000317649924737
0.000296567612023
0.000275089608469
0.000255163072842
0.000237874719101
0.000222972528163
0.000209670443742
0.000197833648953
0.000197833648953
0.000245277961411
8.02769801423e-05
)
;
    }
}


// ************************************************************************* //
