/*--------------------------------*- C++ -*----------------------------------*\
  =========                 |
  \\      /  F ield         | OpenFOAM: The Open Source CFD Toolbox
   \\    /   O peration     | Website:  https://openfoam.org
    \\  /    A nd           | Version:  7
     \\/     M anipulation  |
\*---------------------------------------------------------------------------*/
FoamFile
{
    version     2.0;
    format      ascii;
    class       volScalarField;
    location    "0.03";
    object      dQ;
}
// * * * * * * * * * * * * * * * * * * * * * * * * * * * * * * * * * * * * * //

dimensions      [1 2 -3 0 0 0 0];

internalField   nonuniform List<scalar> 
815
(
1.42422162848e-05
4.20903062998e-05
6.79574652753e-05
1.22991672723e-06
3.65326609879e-06
5.95885111952e-06
1.23343775875e-07
3.69474796121e-07
6.14179287187e-07
2.70785878508e-08
8.19768517691e-08
1.39341922103e-07
1.80786249353e-08
5.47584296245e-08
9.32246596283e-08
1.89564680093e-08
5.72735308658e-08
9.69117964143e-08
2.20793750933e-08
6.65558529944e-08
1.12102221803e-07
2.66253350459e-08
8.01711948528e-08
1.34644337283e-07
3.27565728732e-08
9.85413949184e-08
1.65204931644e-07
4.0774711743e-08
1.22612214258e-07
2.05314008655e-07
5.1111668651e-08
1.53603684893e-07
2.56940717011e-07
6.41307218887e-08
1.92610327821e-07
3.21825884478e-07
8.00698398219e-08
2.40321483606e-07
4.00976111826e-07
9.88156997595e-08
2.96276847169e-07
4.93464704287e-07
1.19451093628e-07
3.57804676299e-07
5.94701884253e-07
1.40111875278e-07
4.19126510943e-07
6.94918807906e-07
1.57543083107e-07
4.70673261609e-07
7.7832517265e-07
1.67822315797e-07
5.0070171621e-07
8.25654932884e-07
1.67465597531e-07
4.98980809245e-07
8.20532596156e-07
1.55257872048e-07
4.62061332444e-07
7.57845747962e-07
1.33183988536e-07
3.95981774182e-07
6.48002882398e-07
1.05705272157e-07
3.14021454933e-07
5.12921318955e-07
7.77693679087e-08
2.30900156767e-07
3.76599121683e-07
5.32044601743e-08
1.57887628996e-07
2.57202516612e-07
3.39451883114e-08
1.00698734203e-07
1.63881586917e-07
2.02774626795e-08
6.01316491094e-08
9.77760588907e-08
1.13754407676e-08
3.37228143898e-08
5.47972640824e-08
6.00818796083e-09
1.78088825386e-08
2.89285297015e-08
3.03206281806e-09
8.9897234124e-09
1.46065233763e-08
1.77970339013e-09
5.28989585333e-09
8.61444491946e-09
1.96318867311e-09
5.83947476034e-09
9.51879881113e-09
7.78591147116e-05
6.9276951939e-06
7.33431994108e-07
1.71766235004e-07
1.1516958402e-07
1.18688084177e-07
1.36331945806e-07
1.63054000593e-07
1.99505142129e-07
2.47505383865e-07
3.09242304763e-07
3.86693900282e-07
4.80848183514e-07
5.90321473377e-07
7.09439346463e-07
8.26312308819e-07
9.22276554745e-07
9.74812406856e-07
9.65309685611e-07
8.88622076128e-07
7.57657399807e-07
5.98300369138e-07
4.38460230617e-07
2.98983536996e-07
1.90256702808e-07
1.1338379282e-07
6.34921664107e-08
3.35066449333e-08
1.69229810381e-08
9.99418657783e-09
1.10463986809e-08
0.0110307635044
0.0117758988603
0.00736384193348
0.00335598981587
0.00114912370191
0.000176770907827
1.09610272416e-05
0.000261621043749
0.000338615122028
0.00037055600667
0.000359874774323
0.000329150649558
0.000305699085641
0.000314949254171
0.000391394548151
0.000595008265357
0.00102010669473
0.00179099449819
0.00302973060774
0.00475701796118
0.0064483557092
0.00655217590906
0.00394593893273
0.00189673895991
0.000618017333901
8.26760060705e-05
5.40159109389e-06
2.40611895947e-05
3.3376031088e-05
4.06618688453e-05
4.65175326772e-05
5.40918294994e-05
6.96936796812e-05
0.000105276059447
0.000184325432402
0.000349073598367
0.000661682261353
0.00118849133096
0.0019635436809
0.00292191613696
0.00371014960547
0.00353703495555
0.00213545096935
0.00105076592106
0.00030675454188
3.6254638633e-05
2.52150766342e-06
2.7075816416e-06
4.29290455528e-06
6.40975958498e-06
9.7437816652e-06
1.60463436132e-05
2.9292901019e-05
5.78935095479e-05
0.00011848343802
0.000240155079712
0.000463132771072
0.000821120984776
0.0013052106661
0.00181611379996
0.00211461574435
0.00188731160478
0.00116106498373
0.000556512953917
0.00014189491303
1.52560809899e-05
1.12541722664e-06
6.7910703456e-07
1.24451221879e-06
2.26746423504e-06
4.33227054767e-06
8.80050118629e-06
1.86825537199e-05
4.01829045128e-05
8.50676958579e-05
0.000172932676092
0.000328939064557
0.000568549506314
0.000866598809828
0.00112849568201
0.00120600344385
0.00101266861356
0.000624922216277
0.000279377001579
6.20065135112e-05
6.32307140769e-06
4.85352083314e-07
4.57584768786e-07
8.49398661749e-07
1.58184418732e-06
3.10464344873e-06
6.45767507082e-06
1.39088268903e-05
2.99991748695e-05
6.29109498779e-05
0.000125330189998
0.00023181258429
0.000387006376303
0.00056387445333
0.000691206323971
0.000687940992873
0.000545554303105
0.00032728021458
0.000132884326258
2.59075291312e-05
2.57009381052e-06
2.03237599376e-07
4.62377165661e-07
8.22260942224e-07
1.44657221857e-06
2.66956666917e-06
5.2586339021e-06
1.08722156236e-05
2.27599411416e-05
4.64843269152e-05
8.98862122998e-05
0.000160398330214
0.000256789859242
0.000356630712069
0.000414255809175
0.000389862365561
0.00029184098679
0.000165269809952
6.01294634077e-05
1.04901038794e-05
1.02502306041e-06
8.30065639766e-08
5.22611873372e-07
8.94120105809e-07
1.48156635605e-06
2.52938922966e-06
4.58637069448e-06
8.82143728603e-06
1.74849194353e-05
3.42474783502e-05
6.3709753098e-05
0.000108937094705
0.000166161552114
0.000219214835683
0.000242161575713
0.00021683358566
0.000152732994898
8.02711423202e-05
2.60298550916e-05
4.13149521925e-06
4.02245430155e-07
3.32624227435e-08
6.18513651262e-07
1.03052389967e-06
1.63199447291e-06
2.60234501557e-06
4.32263387661e-06
7.57729485708e-06
1.38432354204e-05
2.54241883435e-05
4.48399779303e-05
7.28238889799e-05
0.000105229565826
0.000131477383482
0.000138094222253
0.000117446267978
7.74955123278e-05
3.75036638192e-05
1.08847124016e-05
1.58714088673e-06
1.5591535931e-07
1.31582865323e-08
7.51795254214e-07
1.23184590838e-06
1.89346779382e-06
2.87293708643e-06
4.42948377445e-06
7.0556943962e-06
1.16395150739e-05
1.94982102954e-05
3.18495771184e-05
4.83922833181e-05
6.56877391164e-05
7.73195780133e-05
7.67991934896e-05
6.16833859512e-05
3.80031498732e-05
1.69218627344e-05
4.40894186562e-06
5.98795749235e-07
5.99357734753e-08
5.16853740438e-09
9.28504140665e-07
1.50505652971e-06
2.26995410545e-06
3.33333626481e-06
4.86922600775e-06
7.15387519892e-06
1.06338901217e-05
1.59184692432e-05
2.34252223715e-05
3.25406762117e-05
4.08939240858e-05
4.49167056482e-05
4.17774489428e-05
3.13978297922e-05
1.80212420934e-05
7.38509132623e-06
1.73614571854e-06
2.23301972045e-07
2.29329721773e-08
2.02435188366e-09
1.15579913716e-06
1.85811167687e-06
2.76503206025e-06
3.97103730248e-06
5.58937254489e-06
7.73477398243e-06
1.05268275745e-05
1.40768727634e-05
1.83294246595e-05
2.27038056318e-05
2.58489663134e-05
2.60589269654e-05
2.23708603973e-05
1.5554363502e-05
8.28394001428e-06
3.12867938548e-06
6.67501697194e-07
8.27359276676e-08
8.76219133261e-09
7.92877486992e-10
1.43982723203e-06
2.29638744452e-06
3.37645255679e-06
4.76172444497e-06
6.51580168098e-06
8.62624793018e-06
1.09713646927e-05
1.333071747e-05
1.54043396663e-05
1.67890586459e-05
1.69433266962e-05
1.53330964192e-05
1.19199723399e-05
7.56527098447e-06
3.71712056621e-06
1.29389211e-06
2.51867930714e-07
3.06107974415e-08
3.35435950815e-09
3.11300244872e-10
1.78266202436e-06
2.8178881303e-06
4.0894420774e-06
5.6614313008e-06
7.54756940287e-06
9.628180001e-06
1.16092446922e-05
1.30794973277e-05
1.36657688048e-05
1.31894626033e-05
1.16797554209e-05
9.29705346407e-06
6.41037364462e-06
3.65712175548e-06
1.6451728534e-06
5.26146404078e-07
9.39128121468e-08
1.13713963315e-08
1.29089096885e-09
1.22792360212e-10
2.17745392843e-06
3.40593739163e-06
4.86749291748e-06
6.59751902483e-06
8.55375560112e-06
1.05258531447e-05
1.21136940847e-05
1.28403469406e-05
1.23847604616e-05
1.07886767561e-05
8.44039820874e-06
5.86072600112e-06
3.52793636615e-06
1.78243387399e-06
7.27481460838e-07
2.12293392693e-07
3.49125594605e-08
4.26535417324e-09
5.01087174801e-10
4.87923503948e-11
2.601666047e-06
4.02009375545e-06
5.64275737918e-06
7.46283663847e-06
9.37834956088e-06
1.11131932962e-05
1.2232061188e-05
1.22978279359e-05
1.11170510352e-05
8.91470593264e-06
6.26760444574e-06
3.82279693649e-06
2.00126598927e-06
8.87138243709e-07
3.25603652886e-07
8.5817519292e-08
1.30772414963e-08
1.62563619307e-09
1.9713254914e-10
1.96259205517e-11
3.01078789183e-06
4.58904477406e-06
6.31175101207e-06
8.12012509003e-06
9.85951812439e-06
1.12266307938e-05
1.18214365693e-05
1.13190932901e-05
9.67744054483e-06
7.24576154511e-06
4.65950876669e-06
2.5373768476e-06
1.16568363882e-06
4.53755428016e-07
1.49037307054e-07
3.50745938571e-08
4.99042168912e-09
6.34090843743e-10
7.9124479939e-11
8.04846145117e-12
3.33731945891e-06
5.01247080751e-06
6.74498231571e-06
8.42463129133e-06
9.86533689677e-06
1.07826482791e-05
1.08655999347e-05
9.93001429286e-06
8.06628793987e-06
5.68576200661e-06
3.38980469139e-06
1.67778478719e-06
6.88162606643e-07
2.37912151689e-07
7.00464292437e-08
1.45938721475e-08
1.96115300042e-09
2.5523480874e-10
3.26679935375e-11
3.3932280994e-12
3.50245432316e-06
5.18207849148e-06
6.82000006445e-06
8.26804968571e-06
9.33813275563e-06
9.80226968528e-06
9.46164557603e-06
8.26298653487e-06
6.38914267237e-06
4.2578521905e-06
2.37515219153e-06
1.08497935173e-06
4.04972645566e-07
1.26617575601e-07
3.36785860072e-08
6.19987773382e-09
7.99882177419e-10
1.06747351801e-10
1.39701447221e-11
1.48032771014e-12
3.44426821337e-06
5.0227580043e-06
6.4717141986e-06
7.62699495204e-06
8.32389663181e-06
8.40723300658e-06
7.78357523266e-06
6.49944410673e-06
4.78618418252e-06
3.02221168923e-06
1.58710051777e-06
6.77004344207e-07
2.33924942146e-07
6.75027534995e-08
1.639673284e-08
2.684061453e-09
3.39271225617e-10
4.649117411e-11
6.20311044124e-12
6.69420426474e-13
3.15028596017e-06
4.53417853863e-06
5.73211704757e-06
6.58566304857e-06
6.96605569102e-06
6.78612911204e-06
6.03401982974e-06
4.81907306696e-06
3.38027846127e-06
2.02549995331e-06
1.00581058155e-06
4.04235842956e-07
1.31200898931e-07
3.56201298816e-08
7.97353409939e-09
1.17763368371e-09
1.4900453038e-10
2.10004606994e-11
2.85009232449e-12
3.12468278451e-13
2.6709296075e-06
3.80114942282e-06
4.72753080065e-06
5.31207808961e-06
5.46249730242e-06
5.14388644896e-06
4.39754170281e-06
3.36027847691e-06
2.24611980185e-06
1.27918477715e-06
6.02869721129e-07
2.29854487651e-07
7.09337120521e-08
1.84308255678e-08
3.81665412233e-09
5.19692847392e-10
6.71451127924e-11
9.74820942091e-12
1.34325543606e-12
1.49161288842e-13
2.09924873412e-06
2.95947367226e-06
3.62981132528e-06
3.99964566989e-06
4.00794566035e-06
3.65437738719e-06
3.00676715142e-06
2.19993136998e-06
1.40284944232e-06
7.60739341618e-07
3.41376597654e-07
1.24212381641e-07
3.68680770812e-08
9.29528462847e-09
1.77514161926e-09
2.29282323843e-10
3.07408463788e-11
4.59989262085e-12
6.4252642898e-13
7.19824214252e-14
1.5324323677e-06
2.14310208706e-06
2.59656516364e-06
2.81079358791e-06
2.7493172301e-06
2.43064694805e-06
1.92727083028e-06
1.35211426101e-06
8.23957012797e-07
4.26413222727e-07
1.82788182552e-07
6.38449606102e-08
1.84441767481e-08
4.54400294841e-09
7.94397492468e-10
1.00762493686e-10
1.41800794586e-11
2.18479509966e-12
3.08756947734e-13
3.47088317757e-14
1.04148900404e-06
1.44619534973e-06
1.73275326067e-06
1.84496232052e-06
1.7639092965e-06
1.51442043653e-06
1.15926319022e-06
7.81470294607e-07
4.56162193961e-07
2.25877606099e-07
9.28127664567e-08
3.13248667594e-08
8.91736902824e-09
2.13457896555e-09
3.41091908311e-10
4.40900207439e-11
6.55349649311e-12
1.03694257516e-12
1.47851526538e-13
1.65468253769e-14
6.60820285281e-07
9.11693554128e-07
1.0811493215e-06
1.13359283699e-06
1.06103383252e-06
8.86443800099e-07
6.56711500773e-07
4.26542794217e-07
2.39197362994e-07
1.13686679087e-07
4.49605057428e-08
1.47727632438e-08
4.18055684641e-09
9.53319893422e-10
1.41716664859e-10
1.92417611331e-11
3.02218892795e-12
4.89051472275e-13
7.00624206729e-14
7.7148237492e-15
3.92792559209e-07
5.38787798746e-07
6.33022720401e-07
6.54577349116e-07
6.01041673301e-07
4.89921405604e-07
3.52357745098e-07
2.21267146871e-07
1.19628329105e-07
5.47735237815e-08
2.09355304256e-08
6.73406180525e-09
1.89037988008e-09
4.02940201487e-10
5.76606266407e-11
8.33287793107e-12
1.37501527511e-12
2.26428001848e-13
3.24078280693e-14
3.45171843953e-15
2.19501489042e-07
2.99667491719e-07
3.49348045052e-07
3.5701697432e-07
3.22484534998e-07
2.57339527373e-07
1.80373289678e-07
1.09964401408e-07
5.75593687086e-08
2.54893415318e-08
9.44255505473e-09
2.96901932602e-09
8.15842581995e-10
1.6268682384e-10
2.30419736174e-11
3.51811831461e-12
6.0292185271e-13
1.00429746554e-13
1.42553672502e-14
1.43395079847e-15
1.15695109598e-07
1.57420580266e-07
1.82438779379e-07
1.84719452869e-07
1.64654523085e-07
1.29106094184e-07
8.85507226834e-08
5.26327837032e-08
2.67807375524e-08
1.15070139152e-08
4.13157384474e-09
1.25723259241e-09
3.32598431037e-10
6.29916060526e-11
8.87068335232e-12
1.40054353296e-12
2.45688555098e-13
4.10854791323e-14
5.72545345207e-15
5.26954705696e-16
5.84264680412e-08
7.9374625342e-08
9.16657666127e-08
9.22355150735e-08
8.14408732729e-08
6.30230698508e-08
4.25040128642e-08
2.47557213313e-08
1.23062035319e-08
5.15057919098e-09
1.7921899003e-09
5.19841088748e-10
1.28593009434e-10
2.3473343873e-11
3.21885789909e-12
5.0700992188e-13
8.90107080704e-14
1.47157191662e-14
1.98153239949e-15
1.61036448386e-16
3.45391733629e-08
4.6894029793e-08
5.40209308097e-08
5.40919476681e-08
4.73936351067e-08
3.62729528994e-08
2.41143021514e-08
1.37963013975e-08
6.71836652064e-09
2.74418357589e-09
9.25938912604e-10
2.53155532699e-10
5.483524302e-11
8.69509095162e-12
1.09093634149e-12
1.63684953483e-13
2.8002434469e-14
4.48629844115e-15
5.71767940466e-16
4.04706268128e-17
3.81487027256e-08
5.16274905546e-08
5.91543522344e-08
5.87618387413e-08
5.09365106668e-08
3.84425281419e-08
2.51222923766e-08
1.40792754352e-08
6.69674540665e-09
2.66275546802e-09
8.70350627042e-10
2.26896479461e-10
4.42006218658e-11
5.51803725884e-12
4.8147320366e-13
5.75722578591e-14
9.35494082475e-15
1.49467856768e-15
1.92872953508e-16
1.42369954892e-17
4.08689709495e-07
9.05893097458e-08
2.1845736379e-07
5.17242119099e-08
1.08710641542e-07
2.69317922666e-08
5.10837255105e-08
1.30474588533e-08
2.29783302198e-08
5.99109013426e-09
9.97030981235e-09
2.63834098743e-09
4.19989911598e-09
1.1222192676e-09
1.73194874516e-09
4.6590444581e-10
7.04048909476e-10
1.90513746079e-10
2.84164360691e-10
7.73581165141e-11
1.14432778678e-10
3.13667161096e-11
4.60981697239e-11
1.27326585413e-11
1.86094386803e-11
5.18337760414e-12
7.54180124684e-12
2.11971714541e-12
3.0764830209e-12
8.7371724641e-13
1.26985221914e-12
3.64972977194e-13
5.3427499461e-13
1.55721078579e-13
2.30993050114e-13
6.84090859718e-14
1.0321733827e-13
3.1106886354e-14
4.76976439628e-14
1.46466478167e-14
2.26697490241e-14
7.09262438862e-15
1.09673695677e-14
3.49397056882e-15
5.33243740949e-15
1.7266200061e-15
2.57264279002e-15
8.44275841618e-16
1.2168602071e-15
4.03314888925e-16
5.56956018006e-16
1.85263052332e-16
2.40691956332e-16
7.95646983103e-17
9.4165039378e-17
3.03471852529e-17
3.13098662727e-17
9.53522447689e-18
8.17362023711e-18
2.25922288903e-18
1.64845496745e-18
4.10569795902e-19
4.86218759788e-19
1.21907515461e-19
)
;

boundaryField
{
    inletfuel
    {
        type            zeroGradient;
    }
    inletair
    {
        type            zeroGradient;
    }
    outlet
    {
        type            zeroGradient;
    }
    axis
    {
        type            empty;
    }
    leftside
    {
        type            zeroGradient;
    }
    burnerwall
    {
        type            zeroGradient;
    }
    front
    {
        type            wedge;
    }
    back
    {
        type            wedge;
    }
    procBoundary1to0
    {
        type            processor;
        value           nonuniform List<scalar> 
27
(
0.000139272575222
0.000410176537787
0.000656948732565
0.000745585583523
0.0185581377837
0.0203754093039
0.013640022787
0.00598841493725
0.00196800469152
0.000344973803049
2.11090288841e-05
0.00245375245876
0.00308968974303
0.00327601484871
0.00302450277278
0.00252331624345
0.00199683655669
0.00158699029264
0.00137296217379
0.0014340878634
0.00189927841781
0.00297405357783
0.00491919795224
0.00789031749596
0.00789031749596
7.06574887408e-07
1.43058580923e-07
)
;
    }
}


// ************************************************************************* //
