/*--------------------------------*- C++ -*----------------------------------*\
  =========                 |
  \\      /  F ield         | OpenFOAM: The Open Source CFD Toolbox
   \\    /   O peration     | Website:  https://openfoam.org
    \\  /    A nd           | Version:  7
     \\/     M anipulation  |
\*---------------------------------------------------------------------------*/
FoamFile
{
    version     2.0;
    format      ascii;
    class       volScalarField;
    location    "0.03";
    object      ed::R_H2O;
}
// * * * * * * * * * * * * * * * * * * * * * * * * * * * * * * * * * * * * * //

dimensions      [1 -3 -1 0 0 0 0];

internalField   nonuniform List<scalar> 
815
(
0.00934775095991
0.00920859861237
0.00892085161174
0.000776752658816
0.000769080253933
0.000752685657589
7.49511752524e-05
7.48395192494e-05
7.46458447508e-05
1.58321013972e-05
1.59768184023e-05
1.62947793429e-05
1.01702197435e-05
1.02684256983e-05
1.04894893112e-05
1.02607325861e-05
1.03338954489e-05
1.04920413542e-05
1.14992317591e-05
1.15546959163e-05
1.16778248001e-05
1.33427379861e-05
1.33924255063e-05
1.34960346028e-05
1.57951484357e-05
1.58392842546e-05
1.59337617531e-05
1.89190543833e-05
1.89641872962e-05
1.90545348454e-05
2.28202050669e-05
2.28608998935e-05
2.29458559178e-05
2.75526902482e-05
2.75847838841e-05
2.76560682787e-05
3.3103293809e-05
3.31197231321e-05
3.31582323973e-05
3.93130566229e-05
3.92916099751e-05
3.926771624e-05
4.57309990871e-05
4.56622093623e-05
4.5539235472e-05
5.16180962605e-05
5.14708535971e-05
5.12062934907e-05
5.5850137526e-05
5.56201575268e-05
5.51878973839e-05
5.72475703918e-05
5.6934129675e-05
5.63325074797e-05
5.49658782171e-05
5.45928941078e-05
5.38656347976e-05
4.90290171414e-05
4.86387529619e-05
4.78656835071e-05
4.04623877703e-05
4.01011360304e-05
3.93746248428e-05
3.08932284133e-05
3.05919341731e-05
2.99815618111e-05
2.18631095867e-05
2.1637535231e-05
2.11746942211e-05
1.43867383284e-05
1.42312175742e-05
1.39098458625e-05
8.82842934964e-06
8.72988500692e-06
8.52446359851e-06
5.07218835871e-06
5.01376454339e-06
4.89153600539e-06
2.73663536057e-06
2.70427859003e-06
2.63656270465e-06
1.39012258834e-06
1.37348870735e-06
1.33864747626e-06
6.74691161179e-07
6.66794400755e-07
6.50045589589e-07
3.80863758094e-07
3.77353087366e-07
3.68705298545e-07
4.04053039419e-07
4.00616543615e-07
3.91821726438e-07
0.00852819601147
0.000730167814665
7.43803169613e-05
1.67608772716e-05
1.08132883747e-05
1.07223623491e-05
1.18508198845e-05
1.36381324916e-05
1.60567061961e-05
1.91678124497e-05
2.30451141339e-05
2.77296996784e-05
3.31809098307e-05
3.91988921875e-05
4.53319899613e-05
5.08081385027e-05
5.45682201118e-05
5.54974611211e-05
5.28773664473e-05
4.6832102492e-05
3.84142100318e-05
2.91809507156e-05
2.05703907584e-05
1.34917202238e-05
8.25750377627e-06
4.73298323824e-06
2.54900233373e-06
1.29372339163e-06
6.28411785691e-07
3.56919242255e-07
3.79400132525e-07
0.00964822877671
0.00847121717306
0.00437457523003
0.00164784455938
0.000466558418043
5.9363693114e-05
3.04448719293e-06
0.00770132838755
0.00624022189063
0.00465858234603
0.00324665206832
0.00220300509072
0.00155400625456
0.00123740308435
0.00120459169603
0.00144992926386
0.00198545627025
0.00280463411827
0.00384127854965
0.00490988865983
0.00544523694077
0.00454714111858
0.00225798008643
0.000896075470713
0.000241285494708
2.66916081356e-05
1.44264981061e-06
0.000681562388562
0.000591894150492
0.000491962761934
0.000403911329221
0.000348489982079
0.000341081058507
0.000398282128725
0.000546393404567
0.000819522016278
0.00124114959773
0.00179425090372
0.00240076506611
0.00290888311952
0.003021466434
0.00236555066138
0.00117629627783
0.000477513877484
0.000115158434778
1.12528776212e-05
6.4758556871e-07
7.37980464193e-05
7.32583485256e-05
7.46300501735e-05
8.14262230133e-05
9.95069536867e-05
0.00013800946615
0.000210887007415
0.000338240581451
0.000543103661368
0.000837006615408
0.00119462436016
0.00153808683637
0.00174255197324
0.00165929792393
0.00121547033484
0.000615414670367
0.000243242416685
5.12202578556e-05
4.55268402288e-06
2.77946083833e-07
1.78103318859e-05
2.04359818055e-05
2.54056813689e-05
3.48423394105e-05
5.25273641745e-05
8.47302800143e-05
0.000140922509223
0.000233841221018
0.000376640998665
0.000572614772682
0.000796815257536
0.000983747006887
0.00104291877239
0.000911214549449
0.000627703138541
0.000318652772095
0.000117437606625
2.1522213691e-05
1.81424818591e-06
1.15271160379e-07
1.15471563511e-05
1.3421319023e-05
1.70555527121e-05
2.40296143131e-05
3.70968214274e-05
6.07184413741e-05
0.000101280462083
0.000166498464105
0.000262832886996
0.000388589340687
0.000522302711596
0.000616356168197
0.000614987347534
0.000500280066355
0.000325368140542
0.000160521209855
5.37190167765e-05
8.64684406717e-06
7.09049490445e-07
4.64181305945e-08
1.1227179187e-05
1.25019877159e-05
1.50088915181e-05
1.98842217984e-05
2.90735417187e-05
4.56823340695e-05
7.39646276512e-05
0.000118429546238
0.000181472523328
0.000258855074798
0.000333634368438
0.000375242225138
0.000354726886405
0.000272798692807
0.000167437496263
7.7964006793e-05
2.33762301896e-05
3.36667601304e-06
2.71913658971e-07
1.823127298e-08
1.22103217746e-05
1.30813050046e-05
1.4792176553e-05
1.81303819258e-05
2.44029423668e-05
3.56733561189e-05
5.46909805015e-05
8.39846371987e-05
0.000123808097822
0.000169219345819
0.00020778450059
0.000221974296686
0.000199526807476
0.000145965600004
8.42872997727e-05
3.64192027019e-05
9.73175225542e-06
1.27504239218e-06
1.02604234915e-07
7.02553364041e-09
1.39051158316e-05
1.45077580754e-05
1.56794000049e-05
1.79502981072e-05
2.2133735036e-05
2.94896580647e-05
4.1673021895e-05
6.00054186601e-05
8.38640309932e-05
0.000108866882185
0.000126628927709
0.000128099289588
0.000109464970671
7.60514705119e-05
4.11340582054e-05
1.63646201109e-05
3.91353364007e-06
4.71011868924e-07
3.82422481659e-08
2.6726637576e-09
1.62632461202e-05
1.66873652361e-05
1.75051859779e-05
1.90695992713e-05
2.1826257107e-05
2.64256138732e-05
3.37199963764e-05
4.42864448216e-05
5.73235322207e-05
6.96130186449e-05
7.605603069e-05
7.24757455777e-05
5.8561812442e-05
3.84193501861e-05
1.9401006063e-05
7.10128202811e-06
1.52447308789e-06
1.70881302405e-07
1.41358585499e-08
1.00955318183e-09
1.93276522956e-05
1.96189555867e-05
2.0194015555e-05
2.12910496499e-05
2.30883957952e-05
2.57832195635e-05
2.96451093899e-05
3.47916959711e-05
4.05687132324e-05
4.50390128465e-05
4.55530666113e-05
4.05021825448e-05
3.06426752106e-05
1.88093943096e-05
8.84828758052e-06
2.98056012349e-06
5.77303336182e-07
6.12781412685e-08
5.20089071519e-09
3.80241156448e-10
2.31510348459e-05
2.33071395087e-05
2.36701622754e-05
2.44072204842e-05
2.55030925495e-05
2.68247615971e-05
2.82385363475e-05
2.96038659466e-05
3.05421891981e-05
3.02324216143e-05
2.76998399635e-05
2.26029531668e-05
1.57823890173e-05
8.96205486818e-06
3.91178575753e-06
1.21437839822e-06
2.13451867523e-07
2.18322897413e-08
1.91077553907e-09
1.43213537604e-10
2.77520834615e-05
2.7717750131e-05
2.78134595248e-05
2.81623137947e-05
2.86076197662e-05
2.87862591639e-05
2.83182494546e-05
2.69734607151e-05
2.4694980883e-05
2.15071633701e-05
1.74655144846e-05
1.2792491423e-05
8.08826635533e-06
4.19228788826e-06
1.68812267448e-06
4.8299124938e-07
7.74542384635e-08
7.76720727897e-09
7.03367927569e-10
5.40697411342e-11
3.30639293892e-05
3.27289723598e-05
3.24151599558e-05
3.22190058593e-05
3.18854406639e-05
3.09147093643e-05
2.88303038364e-05
2.54618848026e-05
2.10760062457e-05
1.62533169782e-05
1.15809472296e-05
7.46055369505e-06
4.1835294055e-06
1.94908624177e-06
7.18562792752e-07
1.88882859819e-07
2.77724891843e-08
2.77447351506e-09
2.60275484595e-10
2.05085109813e-11
3.88629278339e-05
3.80661559367e-05
3.71256040523e-05
3.61275632981e-05
3.47696002391e-05
3.25175747722e-05
2.89427951979e-05
2.40475042655e-05
1.83741823324e-05
1.2788534064e-05
8.04978129176e-06
4.52340267415e-06
2.21437695869e-06
9.13619956326e-07
3.05582178991e-07
7.32930544243e-08
9.9284252507e-09
1.00066502181e-09
9.71451598483e-11
7.8359769078e-12
4.46824547659e-05
4.32341883788e-05
4.14128713447e-05
3.93207812266e-05
3.66784823908e-05
3.30309539629e-05
2.81165279832e-05
2.21561575265e-05
1.58655923407e-05
1.01643590259e-05
5.74936529763e-06
2.83774645915e-06
1.20809488179e-06
4.37321229929e-07
1.31536245357e-07
2.84929545587e-08
3.5761292131e-09
3.66702369703e-10
3.67471026414e-11
3.03068343166e-12
4.97574834329e-05
4.74890511082e-05
4.45715741888e-05
4.11648471283e-05
3.70992759196e-05
3.21021299553e-05
2.61402879572e-05
1.96169204616e-05
1.3284821287e-05
7.946257321e-06
4.11097188936e-06
1.81154199822e-06
6.76765030062e-07
2.15122337073e-07
5.79026372987e-08
1.119909826e-08
1.31226299375e-09
1.37527109674e-10
1.4181581451e-11
1.19504155882e-12
5.30710498428e-05
4.99102785329e-05
4.58287201162e-05
4.10906319053e-05
3.57130853873e-05
2.96614291834e-05
2.31127799115e-05
1.65540375817e-05
1.06507854862e-05
5.99736273872e-06
2.87644495577e-06
1.1520331545e-06
3.84242934252e-07
1.0847569441e-07
2.61717830734e-08
4.48107620332e-09
4.95871132939e-10
5.32246907842e-11
5.62959255143e-12
4.84432433363e-13
5.35916663732e-05
4.9646780363e-05
4.45831624747e-05
3.87974275901e-05
3.25207530846e-05
2.5939121727e-05
1.93599642936e-05
1.32497962893e-05
8.11426813843e-06
4.31961199607e-06
1.93839650546e-06
7.1649151961e-07
2.17468090125e-07
5.552133104e-08
1.21015608345e-08
1.83065897824e-09
1.94465780857e-10
2.14021113562e-11
2.31465945694e-12
2.03197438211e-13
5.07065614518e-05
4.62973013243e-05
4.07017160753e-05
3.44301480762e-05
2.78862960871e-05
2.14004896365e-05
1.53192885965e-05
1.00242389367e-05
5.84632733147e-06
2.94885156104e-06
1.24571797188e-06
4.29970385616e-07
1.20809025221e-07
2.84665824159e-08
5.66605140787e-09
7.62111555433e-10
7.93065061917e-11
8.96159987632e-12
9.88137293722e-13
8.83465002994e-14
4.46202924782e-05
4.02079658749e-05
3.46808946806e-05
2.85987499427e-05
2.24488059042e-05
1.66155886383e-05
1.14227744092e-05
7.14872594789e-06
3.97121362414e-06
1.90075998126e-06
7.59261408011e-07
2.46909008102e-07
6.51644873297e-08
1.44462444055e-08
2.64974369049e-09
3.21532447684e-10
3.34879661776e-11
3.89177099358e-12
4.36492601699e-13
3.96475075931e-14
3.63940351345e-05
3.24265273201e-05
2.75147557678e-05
2.2189672206e-05
1.69324312036e-05
1.21140864989e-05
8.00693147326e-06
4.79423619694e-06
2.53789039769e-06
1.15448990034e-06
4.37678602633e-07
1.35023175296e-07
3.38825927088e-08
7.18864199831e-09
1.21971273949e-09
1.36437100066e-10
1.4508123715e-11
1.73673065092e-12
1.97776207292e-13
1.81959824358e-14
2.7516106188e-05
2.42853515443e-05
2.03210753895e-05
1.60703486132e-05
1.19496020113e-05
8.27758118549e-06
5.26545046175e-06
3.01872574356e-06
1.52445369644e-06
6.60314466178e-07
2.38352740427e-07
7.01733276248e-08
1.6936456139e-08
3.4866085866e-09
5.45529282538e-10
5.78768571794e-11
6.38553134056e-12
7.87822299745e-13
9.09475973065e-14
8.44202511149e-15
1.93211127819e-05
1.6915786277e-05
1.39820629582e-05
1.08625405587e-05
7.88396451366e-06
5.29530001235e-06
3.24600322651e-06
1.78439843273e-06
8.61126064734e-07
3.5595996782e-07
1.2274043009e-07
3.46884207522e-08
8.14849340791e-09
1.63912252283e-09
2.34756134898e-10
2.44541916745e-11
2.83151677237e-12
3.59706519687e-13
4.20137876233e-14
3.91341411538e-15
1.26301953728e-05
1.0979305756e-05
8.97429049007e-06
6.85762328146e-06
4.864881127e-06
3.17310614108e-06
1.87781180141e-06
9.91859917832e-07
4.58498263224e-07
1.81341688986e-07
5.9937610803e-08
1.63680436005e-08
3.78876730368e-09
7.40472143863e-10
9.69221709283e-11
1.02868633357e-11
1.25791448158e-12
1.64111625217e-13
1.93407544443e-14
1.79360317086e-15
7.70771032881e-06
6.65701294509e-06
5.38550929567e-06
4.05243163606e-06
2.81444431957e-06
1.78629149162e-06
1.0230667451e-06
5.20663364326e-07
2.31222102164e-07
8.77782975579e-08
2.79237979646e-08
7.42365637669e-09
1.70818614532e-09
3.18015935942e-10
3.87188937072e-11
4.31569434073e-12
5.57609111587e-13
7.44032044237e-14
8.81082327554e-15
8.03971357454e-16
4.40635097534e-06
3.78372438913e-06
3.03269321719e-06
2.25052746604e-06
1.53330854993e-06
9.49481023393e-07
5.27921896792e-07
2.59756355367e-07
1.11214300814e-07
4.06725057643e-08
1.25048535261e-08
3.25447731535e-09
7.42827557504e-10
1.29258261303e-10
1.51467804601e-11
1.79664851892e-12
2.43874838618e-13
3.31169694635e-14
3.91827462096e-15
3.45833119383e-16
2.36820110011e-06
2.02397463518e-06
1.60964191419e-06
1.18051620237e-06
7.91209845133e-07
4.79647885534e-07
2.599039836e-07
1.24152441792e-07
5.14630888966e-08
1.8202938488e-08
5.42420186186e-09
1.37995923362e-09
3.08308897016e-10
5.01862655845e-11
5.81992644837e-12
7.29259037775e-13
1.02809154235e-13
1.41230530242e-14
1.65724673183e-15
1.38133936821e-16
1.20048303307e-06
1.02255325581e-06
8.08436644459e-07
5.87424994926e-07
3.88518811504e-07
2.31428817723e-07
1.22711921445e-07
5.7149563756e-08
2.30279595237e-08
7.90311669016e-09
2.28251937278e-09
5.6198010995e-10
1.2087866141e-10
1.8687621194e-11
2.15458564795e-12
2.79160537409e-13
4.02867582769e-14
5.55635245875e-15
6.40101095133e-16
4.88082693972e-17
5.83052089737e-07
4.95863680332e-07
3.90653365443e-07
2.82093367324e-07
1.84814103271e-07
1.08648576628e-07
5.66471408119e-08
2.58514753921e-08
1.01767731429e-08
3.40208413855e-09
9.52219276624e-10
2.23476867107e-10
4.49481316611e-11
6.69773899047e-12
7.51975077002e-13
9.72018651308e-14
1.40392158228e-14
1.91434362168e-15
2.13078735265e-16
1.4342198252e-17
3.3148553174e-07
2.81742789825e-07
2.21411805882e-07
1.59104069238e-07
1.03434723556e-07
6.01396345486e-08
3.09083593356e-08
1.38556055987e-08
5.34321695973e-09
1.74323356857e-09
4.73140282172e-10
1.04666601592e-10
1.84343073818e-11
2.38639740258e-12
2.45182509717e-13
3.01926161531e-14
4.2495317993e-15
5.61501190567e-16
5.91436135645e-17
3.46594497155e-18
3.52116683241e-07
2.98311732179e-07
2.3317356896e-07
1.66225552724e-07
1.06912655108e-07
6.12975721868e-08
3.09680522547e-08
1.35986712826e-08
5.12219705516e-09
1.62677446824e-09
4.27716884569e-10
9.02206533942e-11
1.42910076678e-11
1.45665612573e-12
1.04102281362e-13
1.02184045757e-14
1.366011309e-15
1.79979770304e-16
1.91906520451e-17
1.17251380206e-18
4.97156900621e-07
1.08018321659e-07
2.55652234382e-07
5.9337223919e-08
1.2237547199e-07
2.97213146723e-08
5.53114940145e-08
1.38505669984e-08
2.3929986182e-08
6.11736867985e-09
9.98642277499e-09
2.5911393844e-09
4.04582282877e-09
1.0600487214e-09
1.60457813883e-09
4.23274757931e-10
6.27304236342e-10
1.66463639117e-10
2.43492894751e-10
6.500653179e-11
9.42974249302e-11
2.53494647417e-11
3.65306005186e-11
9.89596399907e-12
1.41814573184e-11
3.87419798345e-12
5.52672310368e-12
1.52358802691e-12
2.16791713754e-12
6.03909728511e-13
8.60453585144e-13
2.42585138596e-13
3.48109461166e-13
9.95277470985e-14
1.44716209775e-13
4.20431002878e-14
6.21768455841e-14
1.83828333046e-14
2.76261896839e-14
8.32261498787e-15
1.26243557409e-14
3.87511867674e-15
5.87211174068e-15
1.8354603577e-15
2.74498001014e-15
8.72092376401e-16
1.27323655154e-15
4.10000207679e-16
5.79007710736e-16
1.8831071712e-16
2.54788771007e-16
8.31672219956e-17
1.05862209105e-16
3.43418462752e-17
3.98193832248e-17
1.25943337286e-17
1.27296511944e-17
3.80505018034e-18
3.19513465534e-18
8.66927131942e-19
6.19606966206e-19
1.51504016736e-19
1.75745031733e-19
4.32610374465e-20
)
;

boundaryField
{
    inletfuel
    {
        type            calculated;
        value           nonuniform 0();
    }
    inletair
    {
        type            calculated;
        value           nonuniform 0();
    }
    outlet
    {
        type            calculated;
        value           uniform 0;
    }
    axis
    {
        type            empty;
    }
    leftside
    {
        type            calculated;
        value           uniform 0;
    }
    burnerwall
    {
        type            calculated;
        value           nonuniform 0();
    }
    front
    {
        type            wedge;
    }
    back
    {
        type            wedge;
    }
    procBoundary1to0
    {
        type            processor;
        value           uniform 0;
    }
}


// ************************************************************************* //
