/*--------------------------------*- C++ -*----------------------------------*\
  =========                 |
  \\      /  F ield         | OpenFOAM: The Open Source CFD Toolbox
   \\    /   O peration     | Website:  https://openfoam.org
    \\  /    A nd           | Version:  7
     \\/     M anipulation  |
\*---------------------------------------------------------------------------*/
FoamFile
{
    version     2.0;
    format      ascii;
    class       volScalarField;
    location    "0.03";
    object      ed::R_O2;
}
// * * * * * * * * * * * * * * * * * * * * * * * * * * * * * * * * * * * * * //

dimensions      [1 -3 -1 0 0 0 0];

internalField   nonuniform List<scalar> 
815
(
-0.00830167454429
-0.00817809428351
-0.0079225481141
-0.000689828794387
-0.000683014983387
-0.000668455053013
-6.65636329344e-05
-6.64644719917e-05
-6.62924709765e-05
-1.40603824081e-05
-1.41889046037e-05
-1.44712835693e-05
-9.03210352056e-06
-9.11931956628e-06
-9.31564466909e-06
-9.1124873653e-06
-9.17746280996e-06
-9.31791112124e-06
-1.02123901228e-05
-1.02616474665e-05
-1.03709973973e-05
-1.18495955621e-05
-1.18937227135e-05
-1.19857372529e-05
-1.40275647323e-05
-1.40667614553e-05
-1.41506662841e-05
-1.68018845227e-05
-1.68419667581e-05
-1.69222038069e-05
-2.0266470118e-05
-2.03026109188e-05
-2.03780597907e-05
-2.44693582704e-05
-2.44978604118e-05
-2.45611676016e-05
-2.93988118346e-05
-2.94134026055e-05
-2.9447602424e-05
-3.4913660283e-05
-3.48946136599e-05
-3.4873393795e-05
-4.0613391674e-05
-4.05522999837e-05
-4.04430877016e-05
-4.58416829447e-05
-4.5710917729e-05
-4.54759636839e-05
-4.96001302328e-05
-4.93958865475e-05
-4.90119992317e-05
-5.08411809303e-05
-5.0562816345e-05
-5.00285197334e-05
-4.88148255079e-05
-4.84835808375e-05
-4.7837706752e-05
-4.35423392515e-05
-4.31957482674e-05
-4.25091905016e-05
-3.59343735188e-05
-3.56135482865e-05
-3.49683386036e-05
-2.74360676712e-05
-2.71684902898e-05
-2.66264227141e-05
-1.9416480081e-05
-1.92161490179e-05
-1.88051030405e-05
-1.27767652207e-05
-1.26386482884e-05
-1.235324024e-05
-7.84046852685e-06
-7.75295196111e-06
-7.57051859458e-06
-4.50457625176e-06
-4.45269045564e-06
-4.34414011591e-06
-2.43038739556e-06
-2.40165156601e-06
-2.34151354518e-06
-1.23455848947e-06
-1.21978605203e-06
-1.18884378982e-06
-5.99188667097e-07
-5.92175607455e-07
-5.77301101288e-07
-3.38242533308e-07
-3.35124730326e-07
-3.27444687434e-07
-3.5883677756e-07
-3.55784848828e-07
-3.47974231045e-07
-0.00757383332534
-0.000648457108674
-6.60566575385e-05
-1.48852219943e-05
-9.60320843221e-06
-9.52245764245e-06
-1.05246331643e-05
-1.2111933429e-05
-1.42598524143e-05
-1.70228048828e-05
-2.04662103426e-05
-2.46265591508e-05
-2.94677420996e-05
-3.48122716183e-05
-4.02590343622e-05
-4.51223649261e-05
-4.84616680282e-05
-4.92869206976e-05
-4.69600322995e-05
-4.15912741772e-05
-3.41154006914e-05
-2.59154054032e-05
-1.82684252135e-05
-1.1981905682e-05
-7.33343337802e-06
-4.20333047339e-06
-2.26375177067e-06
-1.14894701343e-06
-5.58088266041e-07
-3.16977570381e-07
-3.36942697318e-07
-0.00856852686562
-0.00752323080347
-0.00388503074001
-0.00146343963272
-0.000414347382499
-5.27204952392e-05
-2.70378853035e-06
-0.00683949776864
-0.00554189894899
-0.00413725554311
-0.00288332979188
-0.00195647395411
-0.00138010246748
-0.00109892932861
-0.00106978975607
-0.0012876723944
-0.00176327031478
-0.00249077663339
-0.00341141355711
-0.00436043898446
-0.00483587817997
-0.00403828534108
-0.00200529687681
-0.000795798578384
-0.000214284019538
-2.37046370572e-05
-1.28120756109e-06
-0.000605290957765
-0.00052565720066
-0.000436908808868
-0.000358710925689
-0.000309491601303
-0.000302911786278
-0.000353711670718
-0.000485248295265
-0.00072781197212
-0.00110225658185
-0.00159346211911
-0.00213210325367
-0.00258335946788
-0.0026833439497
-0.00210082957848
-0.00104466078612
-0.000424076852096
-0.000102271428781
-9.9936046755e-06
-5.75116373346e-07
-6.55395469996e-05
-6.50602449424e-05
-6.62784439189e-05
-7.23140791541e-05
-8.83714540474e-05
-0.000122565275532
-0.000187287328116
-0.000300389177773
-0.000482326696531
-0.000743339926613
-0.00106093783235
-0.00136596453962
-0.00154754864784
-0.00147361128848
-0.00107945100178
-0.000546545615633
-0.000216021948739
-4.54883653422e-05
-4.04320795698e-06
-2.46842041335e-07
-1.5817235555e-05
-1.81490575294e-05
-2.25626141737e-05
-3.09432464973e-05
-4.6649197643e-05
-7.52483898792e-05
-0.000125152329427
-0.000207672810311
-0.000334492329157
-0.000508535315334
-0.000707646252918
-0.00087365907801
-0.000926209123635
-0.000809243492044
-0.00055745892129
-0.000282993376472
-0.000104295545917
-1.91137327365e-05
-1.61122157047e-06
-1.02371539626e-07
-1.02549516296e-05
-1.19193828507e-05
-1.51469212644e-05
-2.13405383078e-05
-3.29454367622e-05
-5.39236380266e-05
-8.99464948858e-05
-0.000147866162358
-0.000233420113216
-0.000345103571073
-0.000463853513413
-0.000547381753502
-0.000546166113109
-0.000444295350795
-0.000288957249872
-0.000142557803196
-4.77074962769e-05
-7.67920386291e-06
-6.29702067451e-07
-4.12236285287e-08
-9.97078206944e-06
-1.1102930921e-05
-1.33292952698e-05
-1.76590431907e-05
-2.58200161979e-05
-4.05701726004e-05
-6.56874866675e-05
-0.000105176480793
-0.000161164523302
-0.000229887445048
-0.000296298431082
-0.000333250087827
-0.000315030553945
-0.000242270678103
-0.000148700110481
-6.92393082936e-05
-2.07602722772e-05
-2.9899222472e-06
-2.41484685526e-07
-1.61910705e-08
-1.08439043668e-05
-1.16174186956e-05
-1.31368321719e-05
-1.61014698356e-05
-2.16720884329e-05
-3.16812668279e-05
-4.85706907019e-05
-7.45861895267e-05
-0.000109953136158
-0.000150282559047
-0.000184532012743
-0.000197133874896
-0.000177198411215
-0.000129631064316
-7.48549821161e-05
-3.23436481449e-05
-8.64270350341e-06
-1.13235654388e-06
-9.11221286045e-08
-6.2393290143e-09
-1.23490395315e-05
-1.28842420413e-05
-1.39247693321e-05
-1.59415386116e-05
-1.96568207161e-05
-2.61895663166e-05
-3.7009529515e-05
-5.32904073661e-05
-7.44790799695e-05
-9.66839433818e-05
-0.000112458296144
-0.000113764114606
-9.72151017296e-05
-6.7540797729e-05
-3.65308794994e-05
-1.45333086841e-05
-3.4755828153e-06
-4.18302462173e-07
-3.39626825187e-08
-2.37357464668e-09
-1.4443279127e-05
-1.48199364516e-05
-1.55462375334e-05
-1.69355824218e-05
-1.93837516425e-05
-2.34684093478e-05
-2.99465012228e-05
-3.93304927795e-05
-5.0908642118e-05
-6.18228520758e-05
-6.75448475924e-05
-6.43652205457e-05
-5.2008350426e-05
-3.41199656276e-05
-1.72299025571e-05
-6.30660064623e-06
-1.35387426147e-06
-1.51758531475e-07
-1.25539605825e-08
-8.96577367825e-10
-1.71647575713e-05
-1.74234620583e-05
-1.79341689353e-05
-1.89084375116e-05
-2.05046484939e-05
-2.28979032966e-05
-2.63276215895e-05
-3.08982704005e-05
-3.60288004442e-05
-3.99988433636e-05
-4.04553710431e-05
-3.59697149895e-05
-2.72135530627e-05
-1.67044961514e-05
-7.85810448768e-06
-2.64701533139e-06
-5.12699196938e-07
-5.44207037257e-08
-4.618875946e-09
-3.37689604988e-10
-2.05602778122e-05
-2.06989133097e-05
-2.1021311379e-05
-2.16758878001e-05
-2.26491243858e-05
-2.38228897477e-05
-2.50784535628e-05
-2.62909935658e-05
-2.71243121132e-05
-2.68492096124e-05
-2.46000409395e-05
-2.00735301717e-05
-1.4016233179e-05
-7.9591404481e-06
-3.47403053262e-06
-1.07848126024e-06
-1.89565163069e-07
-1.93891091843e-08
-1.6969468614e-09
-1.27186976271e-10
-2.46464380375e-05
-2.46159468384e-05
-2.47009457051e-05
-2.50107608279e-05
-2.54062340562e-05
-2.55648824997e-05
-2.51492462352e-05
-2.3954948431e-05
-2.19314458684e-05
-1.91003666481e-05
-1.5511005548e-05
-1.13609253028e-05
-7.18313476659e-06
-3.72314258195e-06
-1.49921035493e-06
-4.28941269112e-07
-6.87865864803e-08
-6.89800436753e-09
-6.24656309803e-10
-4.80189722122e-11
-2.93638525589e-05
-2.90663794816e-05
-2.87876848033e-05
-2.8613481674e-05
-2.83172446751e-05
-2.74551447588e-05
-2.56039982761e-05
-2.26125280639e-05
-1.87174589156e-05
-1.4434461123e-05
-1.02849610807e-05
-6.6256673891e-06
-3.71536423252e-06
-1.73097033793e-06
-6.38150767029e-07
-1.67745593131e-07
-2.46645602222e-08
-2.46399120522e-09
-2.31148901402e-10
-1.82134702011e-11
-3.45139039432e-05
-3.38062961983e-05
-3.29709984171e-05
-3.20846451585e-05
-3.087864733e-05
-2.88786387107e-05
-2.57039010951e-05
-2.13564262539e-05
-1.63179873314e-05
-1.1357410799e-05
-7.14895644135e-06
-4.01720338878e-06
-1.96657323331e-06
-8.11379717658e-07
-2.71385470944e-07
-6.50910670168e-08
-8.81736746327e-09
-8.88683852891e-10
-8.62739608781e-11
-6.95907821081e-12
-3.96821865385e-05
-3.83959909337e-05
-3.67784915668e-05
-3.49205204515e-05
-3.25739126869e-05
-2.93345673054e-05
-2.49700987578e-05
-1.96767339787e-05
-1.40901254889e-05
-9.02689865686e-06
-5.10597252129e-06
-2.52018347987e-06
-1.0729009117e-06
-3.88382033042e-07
-1.1681645183e-07
-2.53044006592e-08
-3.17593622068e-09
-3.25665899846e-10
-3.26348538684e-11
-2.69152950312e-12
-4.41892852488e-05
-4.21747058098e-05
-3.95837142463e-05
-3.65582229341e-05
-3.29476165801e-05
-2.85096849724e-05
-2.32150133273e-05
-1.74216546773e-05
-1.17981601325e-05
-7.05701750154e-06
-3.65092639209e-06
-1.60881822344e-06
-6.01030456056e-07
-1.91048695803e-07
-5.14229414296e-08
-9.94584358774e-09
-1.16541190895e-09
-1.22136898001e-10
-1.25945667824e-11
-1.06130834366e-12
-4.71320412159e-05
-4.43249815461e-05
-4.07001770605e-05
-3.64923128954e-05
-3.17165501231e-05
-2.63421150879e-05
-2.0526303863e-05
-1.47015290616e-05
-9.45889071361e-06
-5.32621737512e-06
-2.55455135356e-06
-1.02311287003e-06
-3.41243556849e-07
-9.63365321581e-08
-2.32429839274e-08
-3.97961353567e-09
-4.40379806782e-10
-4.72684886991e-11
-4.99960315367e-12
-4.30221174882e-13
-4.75943972432e-05
-4.40909705996e-05
-3.95940057247e-05
-3.44557336187e-05
-2.88814613485e-05
-2.30363589558e-05
-1.71934536386e-05
-1.17670546684e-05
-7.20622677468e-06
-3.83621826286e-06
-1.72147685525e-06
-6.3631128333e-07
-1.93131943259e-07
-4.93081194115e-08
-1.07473145098e-08
-1.62579588439e-09
-1.72703747629e-10
-1.90070706635e-11
-2.05563344326e-12
-1.80458273599e-13
-4.50321550326e-05
-4.11163208693e-05
-3.61469193713e-05
-3.05771821549e-05
-2.47656313646e-05
-1.90056304251e-05
-1.36049568205e-05
-8.90245895117e-06
-5.1920838492e-06
-2.61885517107e-06
-1.10631372411e-06
-3.81853797815e-07
-1.0728968002e-07
-2.52809797371e-08
-5.03198201804e-09
-6.76826129278e-10
-7.04315729497e-11
-7.95873637289e-12
-8.7755806212e-13
-7.84599307104e-14
-3.96269806303e-05
-3.57084231504e-05
-3.07998685222e-05
-2.53983568257e-05
-1.99366330279e-05
-1.47561921396e-05
-1.01444888664e-05
-6.34873527122e-06
-3.5268080199e-06
-1.6880521121e-06
-6.74294932586e-07
-2.19278223833e-07
-5.78721414357e-08
-1.28296121661e-08
-2.35321948975e-09
-2.8555079693e-10
-2.97404367691e-11
-3.45625555582e-12
-3.87646133903e-13
-3.52106839326e-14
-3.23212969981e-05
-2.87977800829e-05
-2.44356689143e-05
-1.97064981394e-05
-1.50375778836e-05
-1.07584384679e-05
-7.11090180671e-06
-4.25772881264e-06
-2.25388333526e-06
-1.02529468943e-06
-3.88699413328e-07
-1.19913170778e-07
-3.00909019283e-08
-6.38418444622e-09
-1.08321865272e-09
-1.21168867824e-10
-1.28845667633e-11
-1.54237877077e-12
-1.75643715005e-13
-1.61597292058e-14
-2.44368682134e-05
-2.1567656817e-05
-1.80470099169e-05
-1.42719681528e-05
-1.06123609044e-05
-7.35126398966e-06
-4.67621102124e-06
-2.68090996102e-06
-1.35385704005e-06
-5.86420821287e-07
-2.11679460252e-07
-6.23204586995e-08
-1.50411524015e-08
-3.09643355642e-09
-4.84480874323e-10
-5.14000462796e-11
-5.67094729085e-12
-6.99659667793e-13
-8.0769947409e-14
-7.49730553059e-15
-1.71589498733e-05
-1.50227956366e-05
-1.24173757554e-05
-9.64694896447e-06
-7.00169567973e-06
-4.70272020569e-06
-2.88275355984e-06
-1.58471220611e-06
-7.6476024679e-07
-3.16125645229e-07
-1.0900494765e-07
-3.08065523756e-08
-7.23662200554e-09
-1.45569365092e-09
-2.08485339153e-10
-2.17176025972e-11
-2.51465093708e-12
-3.19452932659e-13
-3.73121612587e-14
-3.47547666624e-15
-1.12167912759e-05
-9.75064734815e-06
-7.97000682132e-06
-6.09020895766e-06
-4.32046809828e-06
-2.81801415022e-06
-1.66767198844e-06
-8.8086409947e-07
-4.07189213399e-07
-1.61048330206e-07
-5.32301876658e-08
-1.4536349062e-08
-3.36477867394e-09
-6.57608313896e-10
-8.60759259231e-11
-9.13569390765e-12
-1.11714536207e-12
-1.4574642685e-13
-1.71763935011e-14
-1.59288687193e-15
-6.84516552761e-06
-5.91204827175e-06
-4.78283446143e-06
-3.59893718819e-06
-2.49948900696e-06
-1.58639341894e-06
-9.0857867217e-07
-4.62397620166e-07
-2.05346788532e-07
-7.79553136902e-08
-2.47989365289e-08
-6.59289912967e-09
-1.51702858799e-09
-2.82427806583e-10
-3.43859882073e-11
-3.83273901958e-12
-4.95208888981e-13
-6.60769837394e-14
-7.82483269126e-15
-7.14001536962e-16
-3.91325056498e-06
-3.36030009556e-06
-2.69331438009e-06
-1.99867825493e-06
-1.36172097567e-06
-8.43227689313e-07
-4.68843873865e-07
-2.30687866238e-07
-9.87686700246e-08
-3.61209778913e-08
-1.11054760277e-08
-2.89027934095e-09
-6.59700140855e-10
-1.14793389565e-10
-1.34517535087e-11
-1.59559142499e-12
-2.1658359839e-13
-2.9410957091e-14
-3.47979324844e-15
-3.07132059473e-16
-2.10318341523e-06
-1.79747821473e-06
-1.42951212134e-06
-1.04840847262e-06
-7.02668123991e-07
-4.25972050244e-07
-2.30818973876e-07
-1.10258945714e-07
-4.57040219509e-08
-1.61659068289e-08
-4.81719706834e-09
-1.22553248274e-09
-2.7380705082e-10
-4.4570083784e-11
-5.16863740308e-12
-6.4765003005e-13
-9.13041160696e-14
-1.25425880815e-14
-1.47178963862e-15
-1.22675817095e-16
-1.06614088022e-06
-9.08122645793e-07
-7.17967128217e-07
-5.21688173762e-07
-3.45040934582e-07
-2.05530371225e-07
-1.08979629315e-07
-5.07541418984e-08
-2.04509754491e-08
-7.01870459843e-09
-2.02709005141e-09
-4.99090743129e-10
-1.0735152345e-10
-1.65963502692e-11
-1.91347297374e-12
-2.47920589361e-13
-3.57783981509e-14
-4.93455912163e-15
-5.68469462872e-16
-4.33462946695e-17
-5.17804626174e-07
-4.40373188172e-07
-3.4693661753e-07
-2.50525215816e-07
-1.64132157899e-07
-9.64900676899e-08
-5.03079434724e-08
-2.29585208373e-08
-9.03792355039e-09
-3.02136796452e-09
-8.45659513528e-10
-1.98468297546e-10
-3.99181323962e-11
-5.94821679781e-12
-6.67823991189e-13
-8.63243204569e-14
-1.24681328287e-14
-1.70011565148e-15
-1.89233786829e-16
-1.27372094794e-17
-2.94390063712e-07
-2.50213870305e-07
-1.96634330609e-07
-1.41299250178e-07
-9.18596799615e-08
-5.34096035909e-08
-2.74495053412e-08
-1.23050698278e-08
-4.74527492329e-09
-1.54815396805e-09
-4.20192691614e-10
-9.29537025321e-11
-1.6371383982e-11
-2.11934342865e-12
-2.17744932268e-13
-2.6813858651e-14
-3.77398051304e-15
-4.98665418058e-16
-5.25250440766e-17
-3.07808233934e-18
-3.1271245013e-07
-2.64928636195e-07
-2.07079873024e-07
-1.47623791603e-07
-9.49484075024e-08
-5.4437960193e-08
-2.75025182198e-08
-1.20768881955e-08
-4.54898863759e-09
-1.44472742697e-09
-3.79852478742e-10
-8.01243534262e-11
-1.26917474671e-11
-1.29364647503e-12
-9.24525335448e-14
-9.07489614484e-15
-1.21314542501e-15
-1.59838819416e-16
-1.70430885734e-17
-1.04130159491e-18
-4.41521688383e-07
-9.59303425052e-08
-2.27043024088e-07
-5.26969881258e-08
-1.08680830825e-07
-2.63952989864e-08
-4.91217645652e-08
-1.23005950808e-08
-2.12520592369e-08
-5.43279384158e-09
-8.8688746732e-09
-2.30117340101e-09
-3.59306795104e-09
-9.41422115747e-10
-1.42501501662e-09
-3.75907456053e-10
-5.57104658939e-10
-1.47835234521e-10
-2.16244396619e-10
-5.77318621868e-11
-8.37449067153e-11
-2.25126885665e-11
-3.24425797942e-11
-8.78853884476e-12
-1.2594456541e-11
-3.44064908412e-12
-4.90824549134e-12
-1.35308824478e-12
-1.92531257968e-12
-5.36328154412e-13
-7.64163022204e-13
-2.15438224504e-13
-3.09153663248e-13
-8.83899205362e-14
-1.28521489285e-13
-3.73381936381e-14
-5.52188369634e-14
-1.63256702015e-14
-2.45346326232e-14
-7.39125820564e-15
-1.12116051382e-14
-3.44146674562e-15
-5.21498280901e-15
-1.63005995709e-15
-2.43779822253e-15
-7.74499354175e-16
-1.13075278899e-15
-3.64118417557e-16
-5.14212840477e-16
-1.67237477062e-16
-2.26276188091e-16
-7.38602486011e-17
-9.4015513496e-17
-3.04987619214e-17
-3.53633255212e-17
-1.11849427917e-17
-1.13051173198e-17
-3.37923938682e-18
-2.83757752507e-18
-7.69912135428e-19
-5.50268765276e-19
-1.3454969484e-19
-1.56077976668e-19
-3.84198354096e-20
)
;

boundaryField
{
    inletfuel
    {
        type            calculated;
        value           nonuniform 0();
    }
    inletair
    {
        type            calculated;
        value           nonuniform 0();
    }
    outlet
    {
        type            calculated;
        value           uniform 0;
    }
    axis
    {
        type            empty;
    }
    leftside
    {
        type            calculated;
        value           uniform 0;
    }
    burnerwall
    {
        type            calculated;
        value           nonuniform 0();
    }
    front
    {
        type            wedge;
    }
    back
    {
        type            wedge;
    }
    procBoundary1to0
    {
        type            processor;
        value           uniform 0;
    }
}


// ************************************************************************* //
