/*--------------------------------*- C++ -*----------------------------------*\
  =========                 |
  \\      /  F ield         | OpenFOAM: The Open Source CFD Toolbox
   \\    /   O peration     | Website:  https://openfoam.org
    \\  /    A nd           | Version:  7
     \\/     M anipulation  |
\*---------------------------------------------------------------------------*/
FoamFile
{
    version     2.0;
    format      ascii;
    class       volScalarField;
    location    "0.03";
    object      ed::R_H2;
}
// * * * * * * * * * * * * * * * * * * * * * * * * * * * * * * * * * * * * * //

dimensions      [1 -3 -1 0 0 0 0];

internalField   nonuniform List<scalar> 
815
(
-0.00104607641562
-0.00103050432886
-0.000998303497631
-8.6923864429e-05
-8.60652705454e-05
-8.42306045758e-05
-8.387542318e-06
-8.37504725775e-06
-8.35337377435e-06
-1.77171898913e-06
-1.78791379861e-06
-1.82349577362e-06
-1.13811622292e-06
-1.14910613201e-06
-1.17384464214e-06
-1.14824522084e-06
-1.15643263892e-06
-1.17413023297e-06
-1.28684163629e-06
-1.29304844978e-06
-1.30682740281e-06
-1.49314242397e-06
-1.49870279281e-06
-1.51029734991e-06
-1.76758370335e-06
-1.77252279934e-06
-1.783095469e-06
-2.11716986054e-06
-2.12222053807e-06
-2.13233103854e-06
-2.55373494892e-06
-2.55828897463e-06
-2.56779612708e-06
-3.08333197783e-06
-3.08692347227e-06
-3.09490067708e-06
-3.70448197448e-06
-3.7063205266e-06
-3.71062997326e-06
-4.39939633987e-06
-4.39699631525e-06
-4.39432244505e-06
-5.11760741303e-06
-5.1099093786e-06
-5.09614777039e-06
-5.77641331575e-06
-5.75993586805e-06
-5.73032980676e-06
-6.25000729326e-06
-6.22427097933e-06
-6.17589815223e-06
-6.4063894615e-06
-6.37131333004e-06
-6.30398774634e-06
-6.15105270917e-06
-6.10931327026e-06
-6.02792804554e-06
-5.48667788996e-06
-5.44300469458e-06
-5.35649300553e-06
-4.52801425151e-06
-4.48758774391e-06
-4.40628623917e-06
-3.45716074209e-06
-3.42344388333e-06
-3.35513909693e-06
-2.44662950573e-06
-2.42138621304e-06
-2.36959118055e-06
-1.60997310771e-06
-1.59256928578e-06
-1.55660562247e-06
-9.87960822792e-07
-9.76933045816e-07
-9.53945003931e-07
-5.67612106952e-07
-5.61074087745e-07
-5.47395889485e-07
-3.06247965004e-07
-3.02627024022e-07
-2.95049159467e-07
-1.55564098863e-07
-1.53702655328e-07
-1.49803686443e-07
-7.55024940825e-08
-7.46187932998e-08
-7.27444883011e-08
-4.2621224786e-08
-4.22283570397e-08
-4.12606111112e-08
-4.52162618588e-08
-4.48316947873e-08
-4.38474953934e-08
-0.000954362686129
-8.17107059912e-05
-8.32365942279e-06
-1.87565527731e-06
-1.2100799425e-06
-1.19990470662e-06
-1.32618672022e-06
-1.52619906261e-06
-1.79685378187e-06
-2.14500756691e-06
-2.5789037913e-06
-3.10314052761e-06
-3.71316773109e-06
-4.38662056911e-06
-5.07295559915e-06
-5.68577357667e-06
-6.1065520836e-06
-6.21054042351e-06
-5.91733414783e-06
-5.24082831483e-06
-4.29880934047e-06
-3.26554531243e-06
-2.30196554494e-06
-1.50981454178e-06
-9.24070398246e-07
-5.29652764849e-07
-2.85250563061e-07
-1.44776378202e-07
-7.03235196494e-08
-3.99416718743e-08
-4.24574352076e-08
-0.00107970191109
-0.000947986369589
-0.000489544490017
-0.000184404926657
-5.22110355438e-05
-6.64319787474e-06
-3.4069866258e-07
-0.000861830618904
-0.000698322941636
-0.000521326802917
-0.000363322276444
-0.000246531136609
-0.000173903787081
-0.000138473755741
-0.00013480193996
-0.000162256869459
-0.000222185955473
-0.00031385748488
-0.000429864992535
-0.000549449675369
-0.000609358760799
-0.000508855777506
-0.000252683209628
-0.000100276892329
-2.70014751706e-05
-2.98697107842e-06
-1.61442249515e-07
-7.62714307971e-05
-6.62369498318e-05
-5.50539530662e-05
-4.52004035313e-05
-3.89983807758e-05
-3.81692722291e-05
-4.45704580073e-05
-6.11451093014e-05
-9.17100441576e-05
-0.000138893015871
-0.00020078878461
-0.000268661812436
-0.000325523651643
-0.0003381224843
-0.000264721082904
-0.000131635491713
-5.3437025388e-05
-1.28870059972e-05
-1.25927294575e-06
-7.24691953633e-08
-8.2584994197e-06
-8.19810358324e-06
-8.35160625456e-06
-9.11214385924e-06
-1.11354996392e-05
-1.54441906177e-05
-2.35996792986e-05
-3.78514036775e-05
-6.07769648367e-05
-9.36666887949e-05
-0.000133686527812
-0.000172122296754
-0.0001950033254
-0.000185686635443
-0.000136019333058
-6.88690547338e-05
-2.72204679461e-05
-5.73189251344e-06
-5.09476065903e-07
-3.11040424972e-08
-1.99309633087e-06
-2.28692427605e-06
-2.84306719516e-06
-3.89909291321e-06
-5.87816653152e-06
-9.48189013504e-06
-1.57701797962e-05
-2.61684107071e-05
-4.21486695086e-05
-6.40794573481e-05
-8.9169004618e-05
-0.000110087928877
-0.000116709648758
-0.000101971057406
-7.0244217251e-05
-3.56593956225e-05
-1.31420607079e-05
-2.40848095446e-06
-2.03026615439e-07
-1.28996207527e-08
-1.29220472156e-06
-1.50193617231e-06
-1.90863144771e-06
-2.68907600524e-06
-4.15138466526e-06
-6.79480334756e-06
-1.13339671973e-05
-1.86323017466e-05
-2.94127737799e-05
-4.34857696141e-05
-5.84491981822e-05
-6.89744146947e-05
-6.8821234425e-05
-5.59847155601e-05
-3.64108906703e-05
-1.79634066585e-05
-6.01152049953e-06
-9.67640204257e-07
-7.93474229942e-08
-5.19450206582e-09
-1.25639711753e-06
-1.39905679495e-06
-1.67959624822e-06
-2.22517860772e-06
-3.25352552083e-06
-5.11216146915e-06
-8.27714098372e-06
-1.32530654446e-05
-2.03080000259e-05
-2.89676297508e-05
-3.73359373564e-05
-4.19921373114e-05
-3.96963324595e-05
-3.05280147044e-05
-1.87373857821e-05
-8.72469849946e-06
-2.61595791248e-06
-3.76753765839e-07
-3.04289734455e-08
-2.04020248002e-09
-1.36641740781e-06
-1.46388630908e-06
-1.65534438114e-06
-2.0289120902e-06
-2.73085393385e-06
-3.99208929099e-06
-6.12028979965e-06
-9.39844767201e-06
-1.3854961664e-05
-1.89367867722e-05
-2.32524878477e-05
-2.48404217905e-05
-2.23283962612e-05
-1.63345356878e-05
-9.43231765656e-06
-4.07555455697e-06
-1.08904875201e-06
-1.42685848296e-07
-1.14821063107e-08
-7.86204626105e-10
-1.55607630009e-06
-1.62351603409e-06
-1.75463067282e-06
-2.0087594956e-06
-2.47691431981e-06
-3.30009174811e-06
-4.66349238002e-06
-6.71501129403e-06
-9.38495102371e-06
-1.21829388036e-05
-1.41706315647e-05
-1.43351749817e-05
-1.22498689413e-05
-8.51067278287e-06
-4.60317870596e-06
-1.83131142689e-06
-4.37950824766e-07
-5.27094067515e-08
-4.27956564719e-09
-2.9908911092e-10
-1.81996699321e-06
-1.86742878443e-06
-1.9589484445e-06
-2.13401684945e-06
-2.44250546455e-06
-2.95720452541e-06
-3.77349515357e-06
-4.95595204217e-06
-6.41489010278e-06
-7.79016656913e-06
-8.51118309757e-06
-8.11052503198e-06
-6.55346201607e-06
-4.29938455842e-06
-2.17110350595e-06
-7.94681381876e-07
-1.70598826427e-07
-1.91227709299e-08
-1.58189796744e-09
-1.12975814006e-10
-2.16289472435e-06
-2.19549352848e-06
-2.25984661972e-06
-2.38261213826e-06
-2.58374730129e-06
-2.88531626696e-06
-3.31748780046e-06
-3.89342557058e-06
-4.53991278826e-06
-5.04016948285e-06
-5.09769556822e-06
-4.53246755534e-06
-3.42912214785e-06
-2.10489815826e-06
-9.9018309284e-07
-3.33544792098e-07
-6.46041392446e-08
-6.85743754287e-09
-5.82014769189e-10
-4.25515514602e-11
-2.59075703379e-06
-2.60822619903e-06
-2.64885089647e-06
-2.73133268406e-06
-2.85396816365e-06
-3.00187184935e-06
-3.16008278477e-06
-3.31287238082e-06
-3.41787708493e-06
-3.38321200183e-06
-3.099799024e-06
-2.52942299517e-06
-1.76615583833e-06
-1.00291442009e-06
-4.37755224915e-07
-1.35897137981e-07
-2.38867044536e-08
-2.44318055704e-09
-2.13828677672e-10
-1.6026561333e-11
-3.105645424e-06
-3.10180329262e-06
-3.11251381968e-06
-3.15155296671e-06
-3.20138571008e-06
-3.22137666422e-06
-3.16900321939e-06
-3.01851228415e-06
-2.76353501464e-06
-2.40679672198e-06
-1.95450893668e-06
-1.43156612023e-06
-9.05131588746e-07
-4.69145306309e-07
-1.88912319553e-07
-5.40499802672e-08
-8.66765198322e-09
-8.69202911437e-10
-7.87116177664e-11
-6.05076892202e-12
-3.70007683024e-06
-3.66259287821e-06
-3.62747515243e-06
-3.60552418529e-06
-3.56819598887e-06
-3.45956460547e-06
-3.22630556031e-06
-2.84935673868e-06
-2.35854733011e-06
-1.81885585521e-06
-1.2959861489e-06
-8.34886305948e-07
-4.68165172982e-07
-2.18115903843e-07
-8.04120257227e-08
-2.11372666879e-08
-3.10792896208e-09
-3.10482309842e-10
-2.91265831927e-11
-2.29504078029e-12
-4.34902389069e-06
-4.25985973838e-06
-4.15460563522e-06
-4.04291813955e-06
-3.89095290905e-06
-3.63893606154e-06
-3.23889410281e-06
-2.69107801166e-06
-2.05619500098e-06
-1.43112326506e-06
-9.00824850417e-07
-5.06199285375e-07
-2.47803725378e-07
-1.02240238668e-07
-3.41967080474e-08
-8.20198740752e-09
-1.11105778743e-09
-1.11981168918e-10
-1.08711989702e-11
-8.76898696995e-13
-5.00026822741e-06
-4.83819744508e-06
-4.63437977781e-06
-4.40026077516e-06
-4.1045697039e-06
-3.69638665751e-06
-3.14642922543e-06
-2.47942354783e-06
-1.77546685171e-06
-1.13746036908e-06
-6.43392776339e-07
-3.17562979283e-07
-1.35193970088e-07
-4.8939196887e-08
-1.47197935264e-08
-3.18855389954e-09
-4.00192992418e-10
-4.10364698571e-11
-4.11224877303e-12
-3.39153928539e-13
-5.56819818401e-06
-5.31434529839e-06
-4.98785994255e-06
-4.60662419422e-06
-4.15165933949e-06
-3.5924449829e-06
-2.92527462988e-06
-2.19526578424e-06
-1.4866611545e-06
-8.89239819458e-07
-4.60045497272e-07
-2.02723774773e-07
-7.57345740059e-08
-2.40736412694e-08
-6.4796958691e-09
-1.2532546723e-09
-1.46851084794e-10
-1.53902116729e-11
-1.58701466863e-12
-1.33733215158e-13
-5.93900862685e-06
-5.58529698685e-06
-5.12854305566e-06
-4.59831900992e-06
-3.99653526424e-06
-3.31931409548e-06
-2.58647604846e-06
-1.85250852015e-06
-1.19189477263e-06
-6.71145363605e-07
-3.2189360221e-07
-1.28920284473e-07
-4.29993774023e-08
-1.21391622516e-08
-2.92879914593e-09
-5.0146266765e-10
-5.54913261573e-11
-5.95620208504e-12
-6.29989397754e-13
-5.42112584807e-14
-5.99726912998e-06
-5.55580976341e-06
-4.98915674994e-06
-4.34169397138e-06
-3.63929173614e-06
-2.90276277115e-06
-2.16651065497e-06
-1.48274162089e-06
-9.08041363747e-07
-4.83393733219e-07
-2.1691965021e-07
-8.01802362802e-08
-2.43361468662e-08
-6.21321162852e-09
-1.35424632464e-09
-2.04863093849e-10
-2.17620332283e-11
-2.3950406927e-12
-2.59026013688e-13
-2.27391646117e-14
-5.67440641918e-06
-5.18098045507e-06
-4.55479670395e-06
-3.85296592123e-06
-3.12066472254e-06
-2.39485921131e-06
-1.71433177601e-06
-1.12177998549e-06
-6.54243482273e-07
-3.29996389976e-07
-1.39404247769e-07
-4.81165878012e-08
-1.35193452007e-08
-3.18560267878e-09
-6.34069389832e-10
-8.52854261551e-11
-8.87493324202e-12
-1.00286350343e-12
-1.10579231602e-13
-9.88656958897e-15
-4.9933118479e-06
-4.49954272445e-06
-3.88102615843e-06
-3.20039311696e-06
-2.51217287622e-06
-1.85939649876e-06
-1.27828554287e-06
-7.99990676674e-07
-4.44405604236e-07
-2.12707869163e-07
-8.49664754244e-08
-2.76307842696e-08
-7.29234589409e-09
-1.61663223931e-09
-2.96524200734e-10
-3.59816507544e-11
-3.74752940848e-12
-4.35515437759e-13
-4.88464677961e-14
-4.43682366047e-15
-4.07273813633e-06
-3.62874723722e-06
-3.07908685347e-06
-2.48317406663e-06
-1.89485332003e-06
-1.35564803102e-06
-8.96029666555e-07
-5.36507384292e-07
-2.8400706243e-07
-1.29195210912e-07
-4.89791893042e-08
-1.51100045181e-08
-3.79169078045e-09
-8.04457552089e-10
-1.36494086768e-10
-1.52682322417e-11
-1.62355695163e-12
-1.94351880147e-13
-2.21324922867e-14
-2.03625322997e-15
-3.0792379746e-06
-2.71769472726e-06
-2.27406547266e-06
-1.79838046041e-06
-1.33724110683e-06
-9.2631719583e-07
-5.89239440509e-07
-3.37815782545e-07
-1.70596656392e-07
-7.38936448909e-08
-2.66732801749e-08
-7.85286892521e-09
-1.89530373745e-09
-3.90175030184e-10
-6.10484082148e-11
-6.47681089976e-12
-7.14584049702e-13
-8.81626319523e-14
-1.01776498975e-14
-9.44719580898e-16
-2.16216290863e-06
-1.89299064041e-06
-1.56468720284e-06
-1.21559159427e-06
-8.82268833934e-07
-5.92579806661e-07
-3.63249666667e-07
-1.99686226617e-07
-9.63658179444e-08
-3.98343225913e-08
-1.37354824396e-08
-3.88186837663e-09
-9.11871402371e-10
-1.83428871906e-10
-2.62707957445e-11
-2.73658907724e-12
-3.1686583529e-13
-4.02535870289e-14
-4.70162636468e-15
-4.37937449147e-16
-1.41340409697e-06
-1.22865840783e-06
-1.00428366875e-06
-7.67414323797e-07
-5.44413028712e-07
-3.55091990861e-07
-2.10139812972e-07
-1.10995818362e-07
-5.13090498257e-08
-2.02933587801e-08
-6.70742313722e-09
-1.83169453848e-09
-4.2398862974e-10
-8.28638299671e-11
-1.08462450052e-11
-1.15116942806e-12
-1.40769119512e-13
-1.83651983675e-14
-2.1643609432e-15
-2.00716298932e-16
-8.625448012e-07
-7.44964673341e-07
-6.02674834241e-07
-4.53494447869e-07
-3.14955312609e-07
-1.99898072683e-07
-1.14488072933e-07
-5.82657441595e-08
-2.58753136322e-08
-9.82298386769e-09
-3.12486143571e-09
-8.30757247022e-10
-1.91157557339e-10
-3.55881293593e-11
-4.3329054999e-12
-4.82955321148e-13
-6.24002226061e-14
-8.32622068429e-15
-9.85990584286e-16
-8.99698204917e-17
-4.93100410355e-07
-4.23424293569e-07
-3.39378837104e-07
-2.51849211112e-07
-1.71587574254e-07
-1.06253334081e-07
-5.90780229266e-08
-2.90684891287e-08
-1.24456307897e-08
-4.55152787302e-09
-1.39937749845e-09
-3.64197974395e-10
-8.31274166491e-11
-1.44648717379e-11
-1.69502695138e-12
-2.01057093932e-13
-2.72912402282e-14
-3.7060123725e-15
-4.38481372522e-16
-3.87010599103e-17
-2.65017684884e-07
-2.26496420449e-07
-1.80129792851e-07
-1.32107729747e-07
-8.85417211421e-08
-5.36758352902e-08
-2.90850097242e-08
-1.3893496078e-08
-5.75906694567e-09
-2.03703165916e-09
-6.07004793514e-10
-1.54426750883e-10
-3.45018461955e-11
-5.61618180041e-12
-6.51289045288e-13
-8.16090077243e-14
-1.15050381654e-14
-1.58046494269e-15
-1.85457093204e-16
-1.54581197257e-17
-1.34342152848e-07
-1.14430610015e-07
-9.04695162415e-08
-6.57368211639e-08
-4.34778769226e-08
-2.58984464983e-08
-1.37322921299e-08
-6.39542185755e-09
-2.57698407466e-09
-8.84412091733e-10
-2.55429321373e-10
-6.28893668205e-11
-1.35271379602e-11
-2.09127092484e-12
-2.41112674205e-13
-3.12399480481e-14
-4.50836012596e-15
-6.21793337123e-16
-7.16316322612e-17
-5.46197472766e-18
-6.52474635628e-08
-5.54904921603e-08
-4.37167479134e-08
-3.15681515078e-08
-2.06819453722e-08
-1.21585089385e-08
-6.33919733951e-09
-2.8929545548e-09
-1.13884959255e-09
-3.80716174035e-10
-1.06559763096e-10
-2.50085695606e-11
-5.0299992649e-12
-7.49522192658e-13
-8.41510858128e-14
-1.0877544674e-14
-1.57108299408e-15
-2.14227970195e-16
-2.38449484359e-17
-1.60498877258e-18
-3.70954680285e-08
-3.15289195198e-08
-2.47774752736e-08
-1.780481906e-08
-1.15750435941e-08
-6.73003095771e-09
-3.4588539944e-09
-1.55053577091e-09
-5.9794203644e-10
-1.95079600517e-10
-5.29475905575e-11
-1.17128990596e-11
-2.06292339976e-12
-2.67053973928e-13
-2.7437577449e-14
-3.3787575021e-15
-4.75551286265e-16
-6.28357725096e-17
-6.61856948795e-18
-3.87862632212e-19
-3.94042331105e-08
-3.33830959846e-08
-2.60936959361e-08
-1.86017611213e-08
-1.19642476056e-08
-6.85961199375e-09
-3.46553403489e-09
-1.52178308702e-09
-5.73208417568e-10
-1.82047041267e-10
-4.78644058264e-11
-1.0096299968e-11
-1.59926020075e-12
-1.63009650698e-13
-1.16497478177e-14
-1.14350843082e-15
-1.5286588399e-16
-2.01409508887e-17
-2.14756347177e-18
-1.31212207148e-19
-5.56352122378e-08
-1.20879791543e-08
-2.86092102939e-08
-6.64023579319e-09
-1.36946411653e-08
-3.32601568582e-09
-6.18972944928e-09
-1.54997191753e-09
-2.67792694503e-09
-6.84574838277e-10
-1.1175481018e-09
-2.89965983392e-10
-4.52754877734e-10
-1.18626605653e-10
-1.79563122215e-10
-4.73673018779e-11
-7.0199577403e-11
-1.86284045954e-11
-2.7248498132e-11
-7.27466960323e-12
-1.05525182149e-11
-2.83677617521e-12
-4.08802072442e-12
-1.10742515431e-12
-1.58700077735e-12
-4.33548899334e-13
-6.18477612337e-13
-1.70499782129e-13
-2.42604557858e-13
-6.75815740991e-14
-9.629056294e-14
-2.71469140922e-14
-3.89557979177e-14
-1.11378265623e-14
-1.61947204897e-14
-4.70490664964e-15
-6.95800862068e-15
-2.05716310316e-15
-3.09155706069e-15
-9.31356782226e-16
-1.41275060275e-15
-4.33651931127e-16
-6.57128931669e-16
-2.05400400613e-16
-3.07181787604e-16
-9.75930222259e-17
-1.42483762541e-16
-4.58817901216e-17
-6.47948702591e-17
-2.10732400587e-17
-2.85125829151e-17
-9.30697339447e-18
-1.18466956089e-17
-3.8430843538e-18
-4.45605770356e-18
-1.40939093697e-18
-1.42453387457e-18
-4.25810793523e-19
-3.57557130267e-19
-9.70149965133e-20
-6.93382009298e-20
-1.6954321896e-20
-1.96670550645e-20
-4.84120203694e-21
)
;

boundaryField
{
    inletfuel
    {
        type            calculated;
        value           nonuniform 0();
    }
    inletair
    {
        type            calculated;
        value           nonuniform 0();
    }
    outlet
    {
        type            calculated;
        value           uniform 0;
    }
    axis
    {
        type            empty;
    }
    leftside
    {
        type            calculated;
        value           uniform 0;
    }
    burnerwall
    {
        type            calculated;
        value           nonuniform 0();
    }
    front
    {
        type            wedge;
    }
    back
    {
        type            wedge;
    }
    procBoundary1to0
    {
        type            processor;
        value           uniform 0;
    }
}


// ************************************************************************* //
