/*--------------------------------*- C++ -*----------------------------------*\
  =========                 |
  \\      /  F ield         | OpenFOAM: The Open Source CFD Toolbox
   \\    /   O peration     | Website:  https://openfoam.org
    \\  /    A nd           | Version:  7
     \\/     M anipulation  |
\*---------------------------------------------------------------------------*/
FoamFile
{
    version     2.0;
    format      ascii;
    class       volScalarField;
    location    "0.03";
    object      epsilon;
}
// * * * * * * * * * * * * * * * * * * * * * * * * * * * * * * * * * * * * * //

dimensions      [0 2 -3 0 0 0 0];

internalField   nonuniform List<scalar> 
815
(
45.3813871665
45.7362901342
46.451747708
44.0761403632
44.4392935837
45.1700380617
41.9620821915
42.3328428967
43.075477609
39.5086146808
39.8836510628
40.6326144341
36.9719675313
37.349530392
38.1019453329
34.409366646
34.7848873624
35.5351172338
31.8650443921
32.2329595021
32.9701508677
29.3163045884
29.6730056983
30.3888543016
26.7783851977
27.11637138
27.7991760649
24.2529969674
24.5668729843
25.2056161405
21.7601907176
22.0428732508
22.625189225
19.3056664512
19.5536383013
20.0703941722
16.9340632444
17.1420578201
17.5827536328
14.674482906
14.8409002738
15.2012284316
12.5746142336
12.7003438298
12.9799155523
10.6761248121
10.7633716346
10.9661417246
9.00862169988
9.06425246078
9.20075445554
7.59867820995
7.62891595256
7.71132098466
6.45162808404
6.46396356291
6.50657933435
5.5612699297
5.56229984341
5.57821776933
4.90728693787
4.90201875626
4.90177673825
4.45748933867
4.44923676988
4.44001665118
4.17160269843
4.1623375613
4.14865921657
4.00750282074
3.9979796383
3.98198889144
3.92395446433
3.91449319166
3.89740853616
3.88517831941
3.87573878604
3.85797357099
3.86235004045
3.85286482293
3.83442442763
3.8408194784
3.83125176726
3.81206319834
3.88545979211
3.87655451858
3.85701426299
5.16974205357
5.17319343503
5.16018428051
24.2526956917
24.3618976281
24.4037997441
47.3613465328
46.0974748545
44.0126540659
41.5723622048
39.0380988088
36.462765651
33.8763854937
31.2646806869
28.6298034424
25.9777593397
23.3244461003
20.6867613769
18.1057845151
15.62742084
13.310011035
11.2068171465
9.36438417326
7.81302677775
6.56297716181
5.60440455166
4.90971717828
4.43795662249
4.14166876923
3.97266344545
3.88707908776
3.84720482874
3.82331852526
3.80056200297
3.8452325066
5.1511474083
24.4142080723
38.0333533948
26.408453423
12.5424228886
8.01977091314
11.1200710679
32.3604271476
139.502286458
49.0824258972
50.9803248828
51.4969096725
50.4473692266
48.2865987967
45.6829510308
43.0959483367
40.7014481145
38.4825176557
36.5414636998
34.7207066815
32.4732997816
29.1290347619
23.988058562
16.2252806571
9.19369604142
7.98251448495
13.7735205144
41.3623409692
160.404512754
47.8101923359
49.5784983489
49.8059932472
48.3262265058
45.6149645555
42.3394695774
38.9787214857
35.7510582707
32.6628096579
29.7798915036
27.0205170872
23.9815943581
20.2269950532
15.7918105053
10.8495140448
7.54756723703
8.4099739583
16.734565928
50.735024344
176.602403339
45.7040554308
47.3430835593
47.3194805184
45.4815117539
42.3418552957
38.6024443709
34.7716400022
31.0806782287
27.5627518859
24.2273476901
21.0570532858
17.882111547
14.458049259
11.0269485895
8.02402328882
6.80507284418
9.11962983999
19.8795190334
60.421593821
188.928285063
43.234830376
44.7585873231
44.5480026727
42.4786943742
39.0843978596
35.0802620358
30.9927137377
27.067211544
23.3507252728
19.8619904228
16.6395677742
13.6389545204
10.7833153022
8.2590399759
6.53853461563
6.53442381939
9.95673716902
23.1809175124
70.3772969903
198.612405612
40.6630883973
42.0865333211
41.7275028075
39.4876689738
35.9269238025
31.774550333
27.564912853
23.5654305846
19.847475367
16.4312562527
13.3677649948
10.6881779633
8.40272913978
6.62854260886
5.7553930014
6.49759759596
10.8678777666
26.7513306461
81.0725231165
206.64718578
38.0476817745
39.3780925925
38.9053452825
36.5595855502
32.9222789296
28.7330108113
24.5268776455
20.5797967626
16.9842440177
13.7678432252
10.9735879739
8.65845481753
6.86105738773
5.66494953156
5.34106649004
6.57063708474
11.823998531
30.6983166893
92.9274165449
213.843506385
35.4016612967
36.6407023985
36.0863146131
33.6897306025
30.0517250156
25.9149180525
21.8094211174
18.008125245
14.6172051505
11.6697059921
9.19600825744
7.2481504464
5.85935024136
5.08313679085
5.11380015469
6.69773284719
12.8684303682
35.2572263988
106.399819468
220.841348812
32.7183632599
33.8560500198
33.2404188208
30.8431374096
27.2747290351
23.2737795613
19.3555887914
15.77906083
12.6501991228
10.005468809
7.86587854462
6.26336469821
5.21127362563
4.7269499066
4.9831097347
6.8588422647
14.0597060199
40.7154753848
121.837165948
227.984464086
29.9907705261
31.0167028692
30.3587431681
28.0104228867
24.5774857078
20.78341979
17.1209652439
13.827534484
10.9979823789
8.6689396359
6.85501809983
5.56420737322
4.78336672894
4.50091321383
4.90681881291
7.05865621688
15.4824794537
47.3923341768
139.388445135
235.534233355
27.2238108009
28.1249890079
27.4415921526
25.1872432735
21.9504373464
18.4243939111
15.072059135
12.1045284009
9.59971515362
7.58994244127
6.08291597943
5.06399980644
4.49486332554
4.3512150858
4.86637514467
7.31728820233
17.2536478163
55.6675729805
159.005884529
243.849134164
24.4334851933
25.1985100618
24.5068312719
22.3890941758
19.4027044959
16.1945836656
13.1908418068
10.5752410105
8.40794148578
6.71289861742
5.4877961802
4.7002417814
4.29397786776
4.24800584063
4.85743105258
7.67147133962
19.5410224568
65.9844760169
180.591182002
253.215448487
21.6452753333
22.2674841244
21.5853702997
19.6434218411
16.9541399237
14.103414506
11.4729831
9.22127920921
7.39269886475
5.99947893957
5.02740228486
4.43204919863
4.14947511419
4.17604907672
4.88514915211
8.16953522735
22.5505859929
78.7748195877
204.101540389
263.866256746
18.9021079108
19.3808398419
18.7266443109
16.9935498119
14.6369126358
12.1698970247
9.92451358883
8.03572138923
6.53475797184
5.4215199737
4.67095816131
4.23193422711
4.04302555513
4.12887279371
4.96022940256
8.87591571178
26.5449861088
94.5168098148
229.603832276
276.038610848
16.2617461931
16.6044612568
15.9958253782
14.4945071396
12.4907983044
10.4180128434
8.55570075476
7.01638770002
5.82057778126
4.958212279
4.39617268679
4.08154724633
3.96398245043
4.10471324137
5.09711710084
9.86975361234
31.8421919482
113.721973441
257.217060318
289.949301187
13.7891391498
14.0100892174
13.462631118
12.2044541906
10.5568214478
8.87180336431
7.37621278432
6.16130968304
5.23925874326
4.59352195463
4.18653330022
3.96868931308
3.90633700345
4.10500715311
5.31614534944
11.2496517878
38.836204064
136.939398325
287.165182744
305.85194568
11.547177429
11.6679656944
11.1937199824
10.1768319604
8.87059604559
7.54957159791
6.3907285141
5.46542663053
4.77980279887
4.31376995839
4.0294616214
3.88504863853
3.86709239736
4.13389514878
5.64448855383
13.1573005028
48.0701135631
164.800110237
319.816511762
324.088901082
9.58876919353
9.63412101954
9.23993114175
8.44997916291
7.45473329966
6.45932033489
5.59621293821
4.91880342182
4.42876225022
4.1055762251
3.91469480897
3.82497008426
3.84529146759
4.19841513911
6.12275689387
15.7901172179
60.2324438471
197.953104606
355.668011863
345.055753416
7.94755708419
7.94322562001
7.63015186802
7.04222857541
6.31560565579
5.59690515163
4.98106904557
4.50624400121
4.17096812201
3.95647856111
3.83395049073
3.78455641478
3.84150409206
4.31005745069
6.81176666802
19.4365033771
76.2535840307
237.181092787
395.400862478
369.280177189
6.6340213304
6.6029511897
6.36626558696
5.94825305869
5.44137136983
4.94575938206
4.5264420609
4.2091542663
3.99045853733
3.85483592665
3.78037458103
3.7611982379
3.85844747316
4.48791506469
7.8109499301
24.550591074
97.4143886594
283.442180811
439.884123885
397.38990732
5.63486528073
5.59455288582
5.42469425286
5.14155554608
4.80478604056
4.47960022694
4.2082684724
4.00702672106
3.87151306069
3.79026429072
3.7484640272
3.75350808321
3.90161394298
4.76536436331
9.2847265524
31.8484676745
125.493736596
337.913591916
490.329595654
430.140895523
4.91696148576
4.87840241088
4.76294124176
4.5807721744
4.36836206141
4.16610149675
3.99988260423
3.87919637279
3.7996702647
3.75397473371
3.73410101355
3.76202909575
3.98347994107
5.20723745548
11.5394684346
42.5522533873
162.953365837
402.108579591
548.256085236
468.367777008
4.4336027573
4.40205574221
4.32781224436
4.21676386576
4.08998808115
3.97114430184
3.87499982945
3.80675881516
3.76268303307
3.73921121384
3.73492688916
3.79032914237
4.12829405518
5.93211531757
15.1132351084
58.5979610458
212.939999936
477.880381506
615.473045914
512.760279651
4.13244373997
4.10899948325
4.0637907481
3.99977252661
3.92831244555
3.86248041193
3.81006454428
3.77384863149
3.75095611381
3.74112429526
3.75042426512
3.84705319279
4.38273402177
7.15873443159
20.9382847538
82.9432840289
278.974781318
567.097474028
693.816783121
563.355170771
3.96180781557
3.94529667675
3.91911900954
3.88426736624
3.84631600615
3.81205980341
3.78523858074
3.76740098916
3.75669128335
3.7559884832
3.78150230286
3.94701536805
4.82278515856
9.23432600612
30.4046442977
119.228642561
363.585580603
670.750942881
784.509521144
618.349741182
3.87587508788
3.86430819095
3.84973378539
3.83185023285
3.81299423881
3.79644662548
3.78381186614
3.7761146617
3.77250532907
3.7794336841
3.82791630713
4.10463435292
5.52768204976
12.5234796616
44.9199918695
169.975026666
465.675358747
787.472453508
886.988713468
672.328446876
3.83607439093
3.82761890744
3.81964911889
3.81108741709
3.8025177871
3.79540559833
3.79031840123
3.78811061244
3.78889904514
3.80330493705
3.88068793495
4.30452092188
6.45628154854
16.9276263262
64.2670288047
232.603875465
577.494952832
911.435201118
996.642492209
714.177353897
3.81220323343
3.80545209214
3.80094589141
3.79718031902
3.79387799255
3.79157236051
3.79035628672
3.79111319096
3.79442811434
3.81459094437
3.91402359203
4.45733300643
7.23812337642
21.0254017406
83.8613271639
295.222646586
682.81363913
1029.20988481
1101.01441422
726.27745742
3.78919625462
3.78315382649
3.78029158114
3.77880378122
3.77800133801
3.77796422972
3.77853369802
3.78087402536
3.78477239042
3.80592233015
3.9035264863
4.45162601031
7.35199758899
22.5321437034
95.2256170762
338.220808326
757.98931581
1116.29557442
1174.63629942
688.439510912
3.83346559957
3.82747172824
3.82517721737
3.82450201495
3.82452040785
3.8252697906
3.8260882542
3.82873776026
3.83140833328
3.84705323615
3.912866169
4.29736175573
6.44616264205
19.0426715289
88.2988604052
339.30142839
771.534181364
1126.64573863
1167.56800738
587.428104149
5.14128588458
5.1360837431
5.13428173078
5.13398418914
5.13415633094
5.13498973548
5.13583748412
5.13801461146
5.14056165984
5.15000975069
5.1875471915
5.39019663541
6.53160163249
13.794495494
62.8831765243
280.91582249
683.982281
993.720348024
1001.33758146
433.490527969
24.4146848139
24.4156031119
24.4190625902
24.4213658383
24.4271088785
24.4301758021
24.4412990399
24.4471843945
24.4700590856
24.48679578
24.5623161572
24.728603573
25.5559664836
29.7435484516
58.1579749274
199.834820671
478.021057371
657.40750294
621.063526373
277.766490231
180.222023688
318.779523392
189.530716468
358.90613567
196.213167657
397.95147311
202.254253549
437.671458053
208.895120387
479.540066115
216.645576687
524.359466261
225.797101235
572.542063242
236.408105101
624.514216959
248.286077304
680.407708829
261.431567484
740.384887594
275.95466529
804.800790866
291.92367066
874.024152669
309.474759663
948.570553805
328.840855832
1029.20297799
350.27581881
1116.86279546
374.162441208
1212.67982945
400.904333677
1317.97986494
430.95983779
1434.19716037
464.874721283
1562.94461861
503.089616737
1705.68825315
546.128869361
1863.74829838
594.17463449
2038.08247536
647.022324106
2228.8658568
703.03331857
2434.50771392
757.581524556
2647.60012409
801.063010159
2849.89180362
817.160788825
3005.501179
786.530883751
3063.13405691
697.008767747
2975.79103609
559.353656605
2725.0444637
407.192958003
2281.81648645
281.297512747
1541.2847274
)
;

boundaryField
{
    inletfuel
    {
        type            turbulentMixingLengthDissipationRateInlet;
        mixingLength    0.005;
        phi             phi;
        k               k;
        value           nonuniform 0();
    }
    inletair
    {
        type            turbulentMixingLengthDissipationRateInlet;
        mixingLength    0.005;
        phi             phi;
        k               k;
        value           nonuniform 0();
    }
    outlet
    {
        type            inletOutlet;
        inletValue      uniform 200;
        value           uniform 200;
    }
    axis
    {
        type            empty;
    }
    leftside
    {
        type            epsilonWallFunction;
        value           nonuniform List<scalar> 
32
(
318.779523392
358.90613567
397.95147311
437.671458053
479.540066115
524.359466261
572.542063242
624.514216959
680.407708829
740.384887594
804.800790866
874.024152669
948.570553805
1029.20297799
1116.86279546
1212.67982945
1317.97986494
1434.19716037
1562.94461861
1705.68825315
1863.74829838
2038.08247536
2228.8658568
2434.50771392
2647.60012409
2849.89180362
3005.501179
3063.13405691
2975.79103609
2725.0444637
2281.81648645
1541.2847274
)
;
    }
    burnerwall
    {
        type            epsilonWallFunction;
        value           nonuniform 0();
    }
    front
    {
        type            wedge;
    }
    back
    {
        type            wedge;
    }
    procBoundary1to0
    {
        type            processor;
        value           nonuniform List<scalar> 
27
(
47.9388064642
48.1836814096
48.6878485852
49.3254015332
60.4394511956
45.2978413267
19.1514737034
8.88672018439
9.01024584122
24.042411019
114.456297139
50.5311986577
51.8174001943
52.1560364618
51.4237629664
49.9787084452
48.3512069719
46.9203319512
45.7826451169
44.9152881129
44.439428663
44.2179975817
43.7141100711
42.4719844132
42.4719844132
166.278371551
276.668761087
)
;
    }
}


// ************************************************************************* //
