/*--------------------------------*- C++ -*----------------------------------*\
  =========                 |
  \\      /  F ield         | OpenFOAM: The Open Source CFD Toolbox
   \\    /   O peration     | Website:  https://openfoam.org
    \\  /    A nd           | Version:  7
     \\/     M anipulation  |
\*---------------------------------------------------------------------------*/
FoamFile
{
    version     2.0;
    format      ascii;
    class       volScalarField;
    location    "0.03";
    object      H2;
}
// * * * * * * * * * * * * * * * * * * * * * * * * * * * * * * * * * * * * * //

dimensions      [0 0 0 0 0 0 0];

internalField   nonuniform List<scalar> 
815
(
7.00344696333e-06
6.87505175483e-06
6.60673471357e-06
5.75232790718e-07
5.67008606961e-07
5.49839259877e-07
5.48521405584e-08
5.45124512789e-08
5.38269565785e-08
1.15054687756e-08
1.15471072987e-08
1.16493265038e-08
7.34156528225e-09
7.37072105745e-09
7.44178600238e-09
7.36806188331e-09
7.37441422945e-09
7.39476315149e-09
8.21248896669e-09
8.20039389641e-09
8.18020187649e-09
9.49170322866e-09
9.46336964474e-09
9.40858792226e-09
1.119755512e-08
1.11535638733e-08
1.10657837345e-08
1.33898563767e-08
1.33287124432e-08
1.32053967157e-08
1.61423112744e-08
1.60615008689e-08
1.5896625308e-08
1.95302657418e-08
1.94244401193e-08
1.92074484954e-08
2.35843551414e-08
2.34478401478e-08
2.31661886039e-08
2.82622027959e-08
2.80880577234e-08
2.77266171269e-08
3.33637585643e-08
3.31457084821e-08
3.26911363676e-08
3.84618718854e-08
3.81974020766e-08
3.76428004968e-08
4.28579092982e-08
4.25484500868e-08
4.18977007373e-08
4.56209976575e-08
4.52769372604e-08
4.45512394647e-08
4.58282974974e-08
4.54678944983e-08
4.47059990521e-08
4.29445368133e-08
4.25923819841e-08
4.18465537677e-08
3.71926641853e-08
3.6874018173e-08
3.61987892705e-08
2.9601897138e-08
2.93366085761e-08
2.87746731219e-08
2.16203534181e-08
2.14179416953e-08
2.09891945464e-08
1.45256489965e-08
1.43838898146e-08
1.40836497257e-08
9.02374204404e-09
8.93234207395e-09
8.73869998468e-09
5.21953010777e-09
5.16473823557e-09
5.04877033602e-09
2.82764675007e-09
2.79715560622e-09
2.73272251834e-09
1.43978691788e-09
1.42408345279e-09
1.39092630515e-09
6.88162722659e-10
6.80696828654e-10
6.64951744081e-10
3.02314027813e-10
2.99038058845e-10
2.92164428812e-10
1.12938333289e-10
1.11668570135e-10
1.09041116727e-10
6.25385065725e-06
5.27213786373e-07
5.29653789383e-08
1.18184082017e-08
7.56033732208e-09
7.44035787357e-09
8.16861571477e-09
9.3494703751e-09
1.09630734145e-08
1.30571119707e-08
1.56959323654e-08
1.89409392701e-08
2.2816848679e-08
2.72734822734e-08
3.21143243693e-08
3.6929531237e-08
4.10494128858e-08
4.35925677159e-08
4.36876777698e-08
4.08405492681e-08
3.52823157741e-08
2.80091260095e-08
2.04040374228e-08
1.36736188045e-08
8.47423874609e-09
4.89064751191e-09
2.64505916484e-09
1.34588236448e-09
6.43577680656e-10
2.82857226e-10
1.05508868707e-10
5.90910507084e-06
4.79984533123e-06
2.69075286757e-06
1.17395372738e-06
2.888764464e-07
2.74582429666e-08
1.2205133464e-09
5.54323921446e-06
4.39052031632e-06
3.23232191911e-06
2.24249494334e-06
1.52457714617e-06
1.0802138112e-06
8.63453300518e-07
8.41756985998e-07
1.01106905066e-06
1.37038301083e-06
1.89113563187e-06
2.49454051458e-06
3.03952851828e-06
3.20692225346e-06
2.69332879213e-06
1.5414433643e-06
6.41913173682e-07
1.38602105996e-07
1.21127645385e-08
5.83196926346e-10
4.81755901039e-07
4.07439310333e-07
3.32772684103e-07
2.71029114456e-07
2.33480946932e-07
2.28759142588e-07
2.67231591879e-07
3.65716755329e-07
5.45226848018e-07
8.15427677825e-07
1.15264871924e-06
1.49644601659e-06
1.7667868513e-06
1.83292037398e-06
1.54700862654e-06
8.7255904698e-07
3.33529439541e-07
6.278771424e-08
5.10333612702e-09
2.6568575722e-10
5.13594117409e-08
4.95413135369e-08
4.94921510803e-08
5.34619951858e-08
6.50918927524e-08
9.01558291632e-08
1.37481702539e-07
2.19539890976e-07
3.50150423748e-07
5.34697336372e-07
7.53855925825e-07
9.5988952034e-07
1.09483686517e-06
1.09244750927e-06
8.88174135243e-07
4.77232975916e-07
1.63666689565e-07
2.70566674428e-08
2.08253142719e-09
1.16055276292e-10
1.22542849371e-08
1.36366016223e-08
1.65961799134e-08
2.24951836685e-08
3.37275104915e-08
5.42480481763e-08
8.99762297475e-08
1.48781354828e-07
2.38922943767e-07
3.63172047614e-07
5.07834489994e-07
6.36875975883e-07
7.03280904399e-07
6.64865476617e-07
5.01727490798e-07
2.50386204686e-07
7.62300219994e-08
1.11751490247e-08
8.40088890801e-10
4.90035753109e-11
7.86767845585e-09
8.85446478072e-09
1.10025317711e-08
1.53081718474e-08
2.34915604858e-08
3.83439634897e-08
6.38801913891e-08
1.05052160884e-07
1.66559411376e-07
2.49410813471e-07
3.43971299128e-07
4.24044180601e-07
4.52747316892e-07
4.0184440948e-07
2.75568876806e-07
1.25572133122e-07
3.38222580278e-08
4.44940413229e-09
3.32266466588e-10
2.00723504541e-11
7.5832583477e-09
8.16725746191e-09
9.58338553739e-09
1.25402662468e-08
1.82402440259e-08
2.86279966047e-08
4.64500736721e-08
7.48635551402e-08
1.16385725457e-07
1.70696712738e-07
2.30482364757e-07
2.77181014475e-07
2.84547179266e-07
2.36034066733e-07
1.46358042299e-07
6.02596442072e-08
1.43623897255e-08
1.72401754227e-09
1.28651590796e-10
8.00623671182e-12
8.18588478393e-09
8.4768106565e-09
9.37124431559e-09
1.13579575979e-08
1.52385644184e-08
2.23208950515e-08
3.44638867712e-08
5.36982643145e-08
8.1258627558e-08
1.15966754309e-07
1.51834396954e-07
1.7602022402e-07
1.72085882158e-07
1.32919265366e-07
7.47990910924e-08
2.7744465929e-08
5.85764173147e-09
6.50607941365e-10
4.88469253893e-11
3.12667567921e-12
9.26656500791e-09
9.34458954751e-09
9.88290951374e-09
1.12113441518e-08
1.38244960202e-08
1.853874298e-08
2.65511021102e-08
3.91410837763e-08
5.68328216229e-08
7.81137687377e-08
9.81010302072e-08
1.08262536614e-07
9.97486307646e-08
7.15316681815e-08
3.67283506821e-08
1.2280075618e-08
2.31255021178e-09
2.39320599909e-10
1.8251482279e-11
1.20292518289e-12
1.07922404452e-08
1.07086325712e-08
1.1010736846e-08
1.19205797515e-08
1.37032432286e-08
1.67950005167e-08
2.18807742256e-08
2.96996012304e-08
4.03916434995e-08
5.25136093888e-08
6.23530759316e-08
6.46229705312e-08
5.55026464089e-08
3.68559848022e-08
1.73439254686e-08
5.2455485751e-09
8.84869798309e-10
8.63121363146e-11
6.74099823695e-12
4.58728535844e-13
1.27986998257e-08
1.25774803792e-08
1.27188727787e-08
1.33767533565e-08
1.46465697942e-08
1.66702151579e-08
1.97291576353e-08
2.41525252558e-08
2.98748887401e-08
3.57629007993e-08
3.93269589583e-08
3.76869816056e-08
2.9837293298e-08
1.82599070433e-08
7.89627988977e-09
2.16379050082e-09
3.28924451851e-10
3.070289806e-11
2.47177332117e-12
1.74167430387e-13
1.53388188145e-08
1.49767133067e-08
1.49873108577e-08
1.54842080903e-08
1.64353643642e-08
1.7752439869e-08
1.93999083612e-08
2.13974345817e-08
2.3584285647e-08
2.5239850597e-08
2.50195160668e-08
2.1732050394e-08
1.56512106214e-08
8.76157210804e-09
3.47538449288e-09
8.63699133945e-10
1.19193511672e-10
1.08265478137e-11
9.03427758505e-13
6.6041197482e-14
1.84610534252e-08
1.79261533045e-08
1.77880750283e-08
1.81361437448e-08
1.88366750491e-08
1.96174510465e-08
2.01998661306e-08
2.038955558e-08
2.00230355283e-08
1.88189062236e-08
1.63856186637e-08
1.26035881276e-08
8.12024666255e-09
4.11374224132e-09
1.48809397357e-09
3.35042228572e-10
4.2316452841e-11
3.80467861477e-12
3.3049369743e-13
2.50764527037e-14
2.21804493672e-08
2.14127431642e-08
2.10580571106e-08
2.11881748541e-08
2.15823579623e-08
2.18216410369e-08
2.14570185523e-08
2.0184192456e-08
1.79298656923e-08
1.48342385861e-08
1.12028884878e-08
7.48186954233e-09
4.23438548449e-09
1.91443864012e-09
6.25676493778e-10
1.27107202429e-10
1.48228747464e-11
1.34031172175e-12
1.21481667111e-13
9.55742213647e-15
2.64372058084e-08
2.53500159221e-08
2.46611002112e-08
2.44259039338e-08
2.43487550011e-08
2.39046168202e-08
2.25573430254e-08
2.00070453192e-08
1.63541377724e-08
1.2101937021e-08
7.97412208559e-09
4.59353146247e-09
2.25287078222e-09
8.95841831494e-10
2.61359524886e-10
4.75905230539e-11
5.17166896204e-12
4.76208508881e-13
4.50405459732e-14
3.6667145143e-15
3.10343619825e-08
2.95241289274e-08
2.83437429534e-08
2.75347190482e-08
2.67482266867e-08
2.5410315912e-08
2.29961843794e-08
1.93208557926e-08
1.47049922444e-08
9.90706158347e-09
5.79668775828e-09
2.9065813818e-09
1.23262719559e-09
4.267886795e-10
1.09757291404e-10
1.77720844647e-11
1.81729110535e-12
1.71788504873e-13
1.69300424639e-14
1.4230152714e-15
3.5572188147e-08
3.35383821951e-08
3.16970597326e-08
3.00869646372e-08
2.83480031525e-08
2.5936084117e-08
2.24403119946e-08
1.78686129543e-08
1.27438466102e-08
7.92431501197e-09
4.19708023812e-09
1.86597890086e-09
6.91146259779e-10
2.08197571198e-10
4.67755200952e-11
6.68892605158e-12
6.50513670226e-13
6.3398566592e-14
6.49583698225e-15
5.62661450718e-16
3.94072326244e-08
3.6788002907e-08
3.41567998219e-08
3.1574404368e-08
2.87332315368e-08
2.52083085703e-08
2.07811713234e-08
1.56667553124e-08
1.05028157625e-08
6.08199888429e-09
2.96178421709e-09
1.19074330716e-09
3.92031443293e-10
1.03644741128e-10
2.02964261467e-11
2.55903378288e-12
2.39833866892e-13
2.41443598889e-14
2.56522237851e-15
2.28546894898e-16
4.17041605903e-08
3.85238443743e-08
3.50879380764e-08
3.15137473223e-08
2.76165606149e-08
2.31618873552e-08
1.81483557153e-08
1.29419216693e-08
8.16972493922e-09
4.43178117858e-09
2.00686523976e-09
7.41859209278e-10
2.21203257588e-10
5.2071836036e-11
8.93101302873e-12
9.99636071644e-13
9.17912576209e-14
9.55645704875e-15
1.04985313032e-15
9.5980573645e-17
4.16482266991e-08
3.80571058575e-08
3.39805668772e-08
2.96207917829e-08
2.49637199332e-08
1.99885901137e-08
1.48722325134e-08
1.00320539513e-08
5.9732299753e-09
3.04838225726e-09
1.29393188229e-09
4.45326806996e-10
1.22190126338e-10
2.60101492821e-11
3.94512662433e-12
3.98340551872e-13
3.65396342363e-14
3.94089274331e-15
4.46339687861e-16
4.1734663057e-17
3.87961076043e-08
3.50711115266e-08
3.07044264341e-08
2.59852383041e-08
2.10693624015e-08
1.61141549791e-08
1.13933491763e-08
7.27873800651e-09
4.09645157013e-09
1.97385851782e-09
7.89936720664e-10
2.55438146721e-10
6.53031025772e-11
1.27312965998e-11
1.72707624361e-12
1.61122398905e-13
1.50615280285e-14
1.68677315358e-15
1.96385542828e-16
1.87050313917e-17
3.33981197172e-08
2.98807398134e-08
2.56762230739e-08
2.11289105372e-08
1.65130965225e-08
1.2088269101e-08
8.13955729412e-09
4.93630615794e-09
2.63287942573e-09
1.20176648692e-09
4.55524035197e-10
1.39284668409e-10
3.34581123801e-11
6.02630720446e-12
7.39222911922e-13
6.56443947071e-14
6.36946196624e-15
7.42558721047e-16
8.86018941964e-17
8.55620597071e-18
2.64219553516e-08
2.34118456531e-08
1.97753903181e-08
1.5860053318e-08
1.19820883907e-08
8.42167691157e-09
5.41735867514e-09
3.12839617891e-09
1.58615783257e-09
6.87956273445e-10
2.47863079415e-10
7.19941371297e-11
1.63364876327e-11
2.73024496884e-12
3.0621781783e-13
2.67738243269e-14
2.7366816582e-15
3.32556715286e-16
4.05205248817e-17
3.94670665566e-18
1.91839737615e-08
1.68482195387e-08
1.40135111437e-08
1.09830368925e-08
8.04784332465e-09
5.45083110418e-09
3.3619830571e-09
1.8550906601e-09
8.96925914727e-10
3.70760043199e-10
1.2735268617e-10
3.52484096014e-11
7.57182653324e-12
1.17404968104e-12
1.22111776224e-13
1.0892593205e-14
1.18500397277e-15
1.49961481855e-16
1.85706843961e-17
1.81357185614e-18
1.28156596098e-08
1.11648599299e-08
9.16012256009e-09
7.0344870093e-09
5.01642910528e-09
3.28638439563e-09
1.95089547809e-09
1.03225448593e-09
4.77491825715e-10
1.886546075e-10
6.19368300969e-11
1.63661968125e-11
3.32594855214e-12
4.7718283845e-13
4.70240638812e-14
4.42143894396e-15
5.14411968896e-16
6.7525717821e-17
8.44669976054e-18
8.21685635997e-19
7.91944072532e-09
6.84967156627e-09
5.55270459967e-09
4.1889526487e-09
2.9168323715e-09
1.85518219285e-09
1.06402765475e-09
5.41865603929e-10
2.40623489178e-10
9.11467238497e-11
2.86758035809e-11
7.24329330855e-12
1.38918169224e-12
1.84312301535e-13
1.77299635387e-14
1.79553981524e-15
2.22960023303e-16
3.01376944198e-17
3.77917847428e-18
3.63431347217e-19
4.55837069477e-09
3.91795138871e-09
3.14355454558e-09
2.33560147731e-09
1.59314294935e-09
9.87420672302e-10
5.49318350838e-10
2.70310356534e-10
1.15668060063e-10
4.21533757792e-11
1.27467831191e-11
3.08246040841e-12
5.57094985383e-13
6.87635647272e-14
6.64092105689e-15
7.2625716807e-16
9.5311177678e-17
1.31376645081e-17
1.6375166938e-18
1.54163149884e-19
2.46023828197e-09
2.1040492631e-09
1.67419368646e-09
1.22848099943e-09
8.23740010208e-10
4.99523898299e-10
2.70710973807e-10
1.29291022159e-10
5.35469386548e-11
1.88544289604e-11
5.50210025598e-12
1.27843033186e-12
2.18569198556e-13
2.53572154543e-14
2.47834495272e-15
2.87354366383e-16
3.91749952888e-17
5.44500496959e-18
6.68477648109e-19
6.07526461295e-20
1.25032518815e-09
1.06560091719e-09
8.42700639534e-10
6.12435611056e-10
4.05118464218e-10
2.41329898451e-10
1.27958098636e-10
5.95749261932e-11
2.39842915093e-11
8.19353699091e-12
2.31742937686e-12
5.20209567705e-13
8.48630842043e-14
9.29424551493e-15
9.0278255077e-16
1.0748669739e-16
1.49000545991e-17
2.06312482275e-18
2.46716274922e-19
2.11717107856e-20
5.97791753426e-10
5.08650359821e-10
4.00794584861e-10
2.89435973735e-10
1.89633197459e-10
1.11480293061e-10
5.8122830205e-11
2.65184023259e-11
1.04336496453e-11
3.4764766654e-12
9.58723488035e-13
2.10014973941e-13
3.33253022049e-14
3.44189622874e-15
3.15188548111e-16
3.66754460768e-17
5.01748493215e-18
6.79707281758e-19
7.78092927613e-20
6.10218650364e-21
2.62737641791e-10
2.23308100322e-10
1.75480166258e-10
1.26094468266e-10
8.19768682531e-11
4.76648509762e-11
2.44977385182e-11
1.09815440794e-11
4.23363230431e-12
1.37937959722e-12
3.71893963682e-13
7.9950923154e-14
1.25980960946e-14
1.26251356121e-15
1.043363789e-16
1.12152152157e-17
1.4622461299e-18
1.89774138981e-19
2.03510468056e-20
1.4126128952e-21
9.78574391233e-11
8.28677498954e-11
6.47570773357e-11
4.61601024785e-11
2.96865177242e-11
1.70208033555e-11
8.59794168388e-12
3.77567681092e-12
1.42169675677e-12
4.51452112365e-13
1.18509478611e-13
2.49349580906e-14
3.93107597495e-15
4.13249658755e-16
3.40385814361e-17
3.47605218271e-18
4.41199667175e-19
5.71105750903e-20
6.1483765255e-21
4.231223974e-22
1.21609660643e-10
1.09509338753e-11
6.20241049589e-11
5.68009887279e-12
2.9518610777e-11
2.7131140425e-12
1.32607868037e-11
1.21312838381e-12
5.69273458322e-12
5.16010232489e-13
2.35352206188e-12
2.11025731846e-13
9.42337350647e-13
8.35163572162e-14
3.68650251124e-13
3.23121722978e-14
1.42090976849e-13
1.2332056614e-14
5.43600641331e-14
4.68073502251e-15
2.07497876122e-14
1.77665076338e-15
7.92545261152e-15
6.76060030821e-16
3.03559889827e-15
2.58335565566e-16
1.16802274505e-15
9.9281295181e-17
4.52831211562e-16
3.84967983524e-17
1.77786593771e-16
1.51411578314e-17
7.12183660776e-17
6.08708227981e-18
2.93427607537e-17
2.52124735818e-18
1.25057336832e-17
1.08153420213e-18
5.51704589473e-18
4.80669692129e-19
2.50477987304e-18
2.19836455042e-19
1.15799634431e-18
1.02350914317e-19
5.38098536077e-19
4.78406501442e-20
2.48095973798e-19
2.21491805117e-20
1.12248775388e-19
1.00354007587e-20
4.92404764055e-20
4.38620117194e-21
2.04956337131e-20
1.80316162181e-21
7.77474049242e-21
6.64914835874e-22
2.52498650802e-21
2.04835656566e-22
6.47427759933e-22
4.84259152578e-23
1.30442653136e-22
9.03189038911e-24
4.08781910836e-23
2.95589684494e-24
)
;

boundaryField
{
    inletfuel
    {
        type            fixedValue;
        value           nonuniform 0();
    }
    inletair
    {
        type            fixedValue;
        value           nonuniform 0();
    }
    outlet
    {
        type            zeroGradient;
    }
    axis
    {
        type            empty;
    }
    leftside
    {
        type            zeroGradient;
    }
    burnerwall
    {
        type            zeroGradient;
    }
    front
    {
        type            wedge;
    }
    back
    {
        type            wedge;
    }
    procBoundary1to0
    {
        type            processor;
        value           nonuniform List<scalar> 
27
(
6.80432019528e-05
6.66953963965e-05
6.39082242188e-05
6.03038119118e-05
1.14605732265e-05
8.9300273023e-06
4.78248815426e-06
2.06152345053e-06
5.60596246775e-07
5.85835869049e-08
2.449790175e-09
5.30143249487e-05
4.16007010573e-05
3.01401809949e-05
2.01143335333e-05
1.25770795038e-05
7.63807891786e-06
4.73264972783e-06
3.22869560476e-06
2.68180678373e-06
2.8299634303e-06
3.51225657519e-06
4.55620114415e-06
5.63094826638e-06
5.63094826638e-06
2.21548280228e-10
1.93025302477e-11
)
;
    }
}


// ************************************************************************* //
