/*--------------------------------*- C++ -*----------------------------------*\
  =========                 |
  \\      /  F ield         | OpenFOAM: The Open Source CFD Toolbox
   \\    /   O peration     | Website:  https://openfoam.org
    \\  /    A nd           | Version:  7
     \\/     M anipulation  |
\*---------------------------------------------------------------------------*/
FoamFile
{
    version     2.0;
    format      ascii;
    class       volScalarField;
    location    "0.03";
    object      H2O;
}
// * * * * * * * * * * * * * * * * * * * * * * * * * * * * * * * * * * * * * //

dimensions      [0 0 0 0 0 0 0];

internalField   nonuniform List<scalar> 
815
(
0.0303087086309
0.0303115565566
0.0303188342064
0.0290004873162
0.0289974399614
0.0289917632896
0.02784593004
0.0278357930016
0.027814719774
0.0267301912238
0.0267135665922
0.0266783887455
0.0256334353339
0.025610906617
0.025563055335
0.0245428200744
0.0245153606084
0.0244569199071
0.0234525349523
0.0234208181283
0.0233533773128
0.0223557129468
0.0223208755415
0.0222464754124
0.0212501843533
0.0212130155848
0.0211335931157
0.0201356733034
0.020097005539
0.0200143376488
0.0190147626996
0.0189750977298
0.0188906923093
0.0178893446983
0.017849728341
0.0177655468425
0.0167662123559
0.0167273162155
0.0166449224603
0.0156523704172
0.0156151853424
0.0155366256653
0.0145596442388
0.0145250970677
0.0144522115109
0.0135035714788
0.0134723608038
0.0134067688568
0.0125026697122
0.0124756418631
0.0124188023714
0.0115800832041
0.0115575388712
0.0115101533746
0.0107580957645
0.0107401237291
0.010702354161
0.0100556466858
0.0100420072971
0.0100133082563
0.00948364786437
0.00947377368474
0.00945300244744
0.00904187501287
0.00903506493483
0.00902074633212
0.0087192700859
0.0087147971778
0.00870538419106
0.00849681965553
0.00849401134283
0.00848809621632
0.00835194357178
0.00835025658396
0.00834669816389
0.00826277902046
0.0082618024488
0.00825974286229
0.00821082018702
0.00821027977184
0.00820914075878
0.00818226677466
0.00818198334193
0.00818138540865
0.00816773449462
0.00816759425783
0.00816729760275
0.00816128759715
0.00816122126572
0.0081610799358
0.00815928186574
0.00815924909881
0.00815917864511
0.0303303044506
0.0289851994932
0.0277867507409
0.0266308888654
0.0254979272824
0.0243770982211
0.0232612488297
0.0221449762088
0.0210252629103
0.0199016340496
0.0187756821741
0.0176508674258
0.0165328026507
0.0154297412844
0.0143530256706
0.0133174790907
0.0123413237205
0.0114455147727
0.0106508026915
0.00997412852743
0.00942464711682
0.0090012009842
0.00869253572798
0.00848002218814
0.00834184004996
0.00825693491043
0.00820759051203
0.00818057207248
0.0081668937126
0.00816088713918
0.00815908229949
0.0330663214005
0.0253922007859
0.0165375135841
0.0115145486039
0.0105653825296
0.0136526265155
0.0217557634188
0.0303627049947
0.0304627479075
0.0306538383508
0.0309660138629
0.0314122562409
0.0319676795577
0.0325626694615
0.0330959484673
0.0334396010616
0.0334003502962
0.0327339284152
0.0312056237002
0.02862833227
0.0245725172311
0.0190143031346
0.013404831663
0.0106845612414
0.0109257164449
0.0146243738159
0.0224494395129
0.028975995295
0.0289822125424
0.0290305923776
0.0291416731187
0.029317360361
0.0295212552629
0.0296712785557
0.0296568267832
0.0293565290386
0.0286223681843
0.0272869689459
0.0252263761925
0.0224318541437
0.0189141636766
0.0149862588071
0.0115696581683
0.0102976230727
0.0113732248092
0.0155216266839
0.0230416319597
0.0277302658188
0.027635574654
0.0275385536372
0.0274546637101
0.0273796468624
0.027272190979
0.027048474647
0.0266027964298
0.0258350561059
0.0246528941027
0.0229712829914
0.0207597543013
0.0181115425982
0.0152242495165
0.0124921545451
0.0105169590503
0.0101790596572
0.0118470055606
0.0163400908547
0.0235770508139
0.0265316523466
0.0263462837055
0.0261198067301
0.0258648929275
0.0255753096639
0.0252119512174
0.0246978563761
0.0239400865146
0.0228636642665
0.0214265883804
0.019616684595
0.01747414333
0.0151393934128
0.0128568382251
0.0109844057144
0.00993059370252
0.0102052097576
0.0123058107943
0.01707440018
0.0240856946082
0.0253610918192
0.0250976495842
0.024761143345
0.0243627952147
0.0238972834507
0.0233317724318
0.02260157001
0.0216316778258
0.0203721852805
0.0188206035089
0.0170191121176
0.0150556615301
0.0130842106094
0.0113314801575
0.010077942901
0.00961262482588
0.0103008017278
0.0127371753681
0.0177477650788
0.0245866388753
0.0242088368105
0.0238802852875
0.0234529030983
0.0229380935839
0.0223335760915
0.021615333375
0.0207343354832
0.0196356533285
0.0182917670518
0.0167274738392
0.015018598631
0.0132787219073
0.0116572382782
0.0103395481791
0.00953016813468
0.00944494152679
0.0104206561442
0.0131384314663
0.0183798969577
0.0250896541679
0.0230671350744
0.0226862039218
0.0221867503032
0.0215812605917
0.0208718847484
0.0200444443521
0.0190666207614
0.0179036286013
0.0165472441835
0.0150394590401
0.0134720095522
0.0119662768031
0.0106568142814
0.00968388112838
0.00919195715685
0.00935861021488
0.0105466323037
0.0135215401914
0.0189915036462
0.0256029297806
0.0219310047775
0.021509784629
0.0209560180641
0.0202838471401
0.0195006829993
0.0186024261405
0.0175728081879
0.016395673663
0.0150786201343
0.0136730956524
0.0122734361095
0.010995354831
0.00995263148584
0.00924542562094
0.00897769250558
0.00931573532981
0.0106739236661
0.0139034483715
0.0196022025053
0.0261367256571
0.0207971782528
0.0203471940387
0.0197557050138
0.019039115148
0.0182103069377
0.0172747725275
0.0162305314021
0.015077306159
0.013834878658
0.012558496808
0.0113367295581
0.0102710876165
0.00945154941544
0.00894792240775
0.00883866024034
0.00929768738982
0.0108057396468
0.014300996648
0.0202260835558
0.0267029788095
0.0196646836781
0.0191968997639
0.0185832148003
0.0178427723682
0.0169937980904
0.0160504841605
0.0150228026318
0.0139229730314
0.0127790595824
0.0116457483782
0.0106009321709
0.00972734824049
0.00909196073141
0.00874300543825
0.00874666241688
0.00929641629632
0.0109507695468
0.0147313085566
0.0208723323134
0.0273169451328
0.0185347723066
0.0180597474702
0.0174386262606
0.0166934053519
0.0158472735807
0.0149218783802
0.0139365822234
0.0129125245588
0.0118822056057
0.0108964670787
0.0100199870865
0.00931595888304
0.00883158075692
0.00860023751932
0.00868578134116
0.00931110085674
0.0111224919486
0.015211981899
0.0215509456681
0.0279928132468
0.0174111452686
0.0169392504062
0.0163247751538
0.015592492554
0.0147698946478
0.0138845667061
0.0129626167834
0.0120307326158
0.0111223982622
0.0102820842199
0.00956054777313
0.00900334313218
0.00864187587832
0.00850040815908
0.00864777640331
0.00934455396747
0.0113352041756
0.0157555626795
0.0222740447407
0.0287420908356
0.0162993075738
0.0158408045942
0.015246581379
0.0145437597853
0.0137631952832
0.0129366754603
0.0120944775887
0.0112657373094
0.0104821248596
0.00978025795308
0.00919784386479
0.00876582051617
0.00850363592658
0.0084313130569
0.00862862287998
0.00940225932943
0.0116033601042
0.0163723087036
0.023053733484
0.0295730340078
0.0152077310357
0.0147726401183
0.0142115334621
0.0135532107991
0.0128307332018
0.0120782066295
0.0113276129124
0.010607907031
0.00994702646743
0.00937342750882
0.00891349196129
0.00858653338727
0.00840375152859
0.00838511927771
0.00862661520535
0.00949049015061
0.0119400758489
0.0170700768639
0.023899695092
0.030490534218
0.01414747341
0.0137452460564
0.0132290646649
0.0126284774626
0.0119773624921
0.0113102207548
0.0106585115999
0.0100490459343
0.00950504252844
0.00904742877364
0.00869322401294
0.00845292710379
0.00833289608644
0.00835680368786
0.00864194053475
0.00961581802661
0.0123561513416
0.0178522551045
0.0248174165649
0.0314964151908
0.0131328134253
0.012771834174
0.0123107286178
0.01177865718
0.0112088086043
0.0106342735633
0.0100842070173
0.00958206188948
0.00914615045833
0.00879079782019
0.00852572038205
0.00835536813289
0.00828430563035
0.00834319562809
0.00867583730296
0.00978660125443
0.0128629724603
0.0187209665963
0.0258108771
0.0325903590961
0.0121810957357
0.0118679555899
0.0114695872601
0.0110135316719
0.0105308081313
0.0100515945924
0.00960150994708
0.00920005294512
0.00886097437556
0.00859328222322
0.00840138667912
0.00828614638496
0.00825300788244
0.00834255960812
0.00873104174111
0.010012204125
0.0134696692027
0.0196757990291
0.0268822531306
0.0337703741286
0.0113117806148
0.0110504283591
0.0107190393158
0.0103423359709
0.00994789474235
0.00956193787666
0.0092059609604
0.00889549883153
0.00864034990994
0.00844551547916
0.00831192605344
0.0082390202396
0.00823536893007
0.00835437764861
0.00881176701472
0.0103038684899
0.0141851928693
0.0207175629276
0.0280337638422
0.035033543134
0.0105439494518
0.0103350168296
0.010070673796
0.00977191540779
0.00946203590155
0.00916279551939
0.00889151256809
0.00866008307889
0.00847509851475
0.00833872867555
0.00825003673806
0.00820890255351
0.00822893228359
0.00837938824406
0.00892471774202
0.0106771681408
0.0150201621981
0.0218494385083
0.0292689724856
0.036376344423
0.00989267464319
0.00973322057776
0.00953168109599
0.00930488451228
0.00907152559052
0.00884887554302
0.0086503521829
0.008484689415
0.00835599682678
0.00826469353624
0.00820935069441
0.00819175776849
0.00823224527531
0.0084199465937
0.00907989206939
0.011152436388
0.0159882877113
0.0230778981442
0.0305895919774
0.0377905525467
0.00936550706484
0.00924954441877
0.00910298238185
0.00893855666393
0.00877052537338
0.00861199996689
0.00847294396095
0.0083594642229
0.0082738993287
0.00821585024473
0.00818447921269
0.00818464020935
0.00824530464867
0.00848136670695
0.00929488193501
0.0117611922435
0.0171077637251
0.0244118689883
0.0319941622318
0.0392588247076
0.00896030622297
0.00887996748145
0.00877838216345
0.00866468067512
0.00854920195438
0.00844143805093
0.00834844801442
0.00827428392172
0.00822015519871
0.00818558303966
0.00817112455115
0.00818574673281
0.00826969821055
0.00857271309215
0.00959588357009
0.0125418262985
0.018394988384
0.0258537736932
0.0334644150126
0.0407438587733
0.00866557317999
0.00861249903158
0.00854535955887
0.00847038300176
0.00839470154994
0.00832485055398
0.00826558045671
0.00821944353459
0.00818706957103
0.00816844864425
0.00816614738278
0.00819449349837
0.00830923162887
0.00870892720899
0.0100199225214
0.0135352002146
0.0198511829678
0.0273828832861
0.034952269554
0.0421808640759
0.00846303903309
0.00842954886407
0.00838718913862
0.00834001051379
0.00829270072809
0.00824952908268
0.00821353869994
0.00818628747632
0.00816824841651
0.00816026037757
0.00816748723532
0.00821138245266
0.00836963157476
0.00890917731102
0.0106048723821
0.0147543076788
0.0214314257686
0.0289276114131
0.0363597528237
0.0434719342714
0.0083315984797
0.00831137916067
0.00828582770454
0.00825745939923
0.0082292142833
0.00820374366401
0.00818291920883
0.00816771630655
0.00815874305474
0.00815795700107
0.0081737131772
0.00823677394502
0.00845470628286
0.0091840881157
0.0113545001696
0.0161316978235
0.023006467691
0.0303376650927
0.0375297962712
0.0444961778447
0.00825100620838
0.00823930914281
0.00822454788279
0.008208218569
0.00819207846798
0.00817770752453
0.0081662291331
0.00815833162066
0.00815491453266
0.00815915507632
0.00818288835333
0.00826752709872
0.00855588314828
0.00950655580941
0.0121806284814
0.0174710278169
0.0243457588287
0.0313852538585
0.0382683191828
0.0451417234749
0.00820430628657
0.00819782522632
0.00818965374619
0.00818064424063
0.0081718016354
0.00816403509168
0.00815802188831
0.00815432602147
0.00815412673734
0.00816155748138
0.00819113216669
0.00829264435852
0.00863837734826
0.00977686822068
0.0128621973552
0.0184589055864
0.0251552244815
0.0318178050075
0.0383959268997
0.0453506111542
0.00817883777219
0.00817540296045
0.00817107046289
0.00816630445148
0.00816165716591
0.00815763673306
0.00815465960145
0.00815321171736
0.0081545729659
0.00816314994325
0.00819399954768
0.00829860088265
0.00865894880254
0.00987238224921
0.0131513079722
0.0188081033023
0.0251992825521
0.0314636690635
0.0378341057746
0.0451783653062
0.00816602374232
0.00816428842256
0.00816209428089
0.00815968214897
0.00815734247292
0.00815535043804
0.0081539596481
0.00815355099155
0.0081552262773
0.00816271420739
0.00818848149672
0.00827475359324
0.00857592971873
0.00965961483477
0.0128183200258
0.018332564107
0.0243882118447
0.0303252819965
0.0366746001074
0.0448112786608
0.00816046760996
0.00815962579679
0.00815855957845
0.00815738897812
0.00815626044695
0.00815531734079
0.0081547058655
0.00815468595317
0.00815604350379
0.0081614148385
0.00817944621281
0.00823863148219
0.00844133993549
0.00921239808383
0.0118315822973
0.0169691607436
0.0227919878766
0.0286503417369
0.0352737055542
0.0445173654283
0.00815887159757
0.00815844884247
0.00815791550604
0.00815733439227
0.00815678124344
0.00815633104676
0.00815606561087
0.00815615128455
0.00815711566413
0.00816075348552
0.00817297744657
0.00821310310309
0.00834807804093
0.00885472779682
0.0107855479824
0.0153672107258
0.0211827970752
0.0272773970352
0.0343447332138
0.0444770210938
0.0298453122476
0.0326421805952
0.0293533240009
0.0319092196237
0.0291451695295
0.0315064496387
0.0291356038379
0.0313456144598
0.0292622182463
0.0313563806091
0.0294879708898
0.0314944844213
0.0297961065243
0.031736918379
0.0301777536008
0.0320735449046
0.0306320157208
0.032502159185
0.0311632236558
0.0330243518833
0.031778020174
0.0336437825
0.0324830211507
0.0343644381444
0.0332830670202
0.0351888275196
0.0341806479864
0.0361174713047
0.0351757671701
0.0371487615468
0.0362668651678
0.0382797898762
0.0374510202195
0.0395067039586
0.0387246888851
0.0408253540175
0.0400839703495
0.0422315997812
0.041524341861
0.0437205242817
0.0430383261989
0.0452851237731
0.0446102411405
0.0469111123263
0.0462109778782
0.0485741895262
0.0477955993186
0.0502399500059
0.0493090186128
0.0518733108895
0.0507020883024
0.0534557235246
0.0519554119968
0.0549998050498
0.0530968073679
0.0565472462831
0.0541837218677
0.0581117274714
0.0552288210936
0.0595787547242
0.0561087336596
0.06067706642
0.0565791101316
0.0611691129691
)
;

boundaryField
{
    inletfuel
    {
        type            fixedValue;
        value           nonuniform 0();
    }
    inletair
    {
        type            fixedValue;
        value           nonuniform 0();
    }
    outlet
    {
        type            zeroGradient;
    }
    axis
    {
        type            empty;
    }
    leftside
    {
        type            zeroGradient;
    }
    burnerwall
    {
        type            zeroGradient;
    }
    front
    {
        type            wedge;
    }
    back
    {
        type            wedge;
    }
    procBoundary1to0
    {
        type            processor;
        value           nonuniform List<scalar> 
27
(
0.0328110863014
0.0327987003837
0.0327753780789
0.032748564775
0.0453005458052
0.0352529053718
0.0217415480324
0.0130457870361
0.0103757500124
0.0126296106902
0.0209061001227
0.0327069636637
0.0327137873985
0.032849472395
0.0331821337316
0.0337609504918
0.0345926244487
0.0356350739829
0.0368060633345
0.0379821367043
0.038944829846
0.0393960273458
0.0390004581
0.0373206029376
0.0373206029376
0.0306926726978
0.0337687362616
)
;
    }
}


// ************************************************************************* //
