/*--------------------------------*- C++ -*----------------------------------*\
  =========                 |
  \\      /  F ield         | OpenFOAM: The Open Source CFD Toolbox
   \\    /   O peration     | Website:  https://openfoam.org
    \\  /    A nd           | Version:  7
     \\/     M anipulation  |
\*---------------------------------------------------------------------------*/
FoamFile
{
    version     2.0;
    format      ascii;
    class       volScalarField;
    location    "0.03";
    object      HE;
}
// * * * * * * * * * * * * * * * * * * * * * * * * * * * * * * * * * * * * * //

dimensions      [0 0 0 0 0 0 0];

internalField   nonuniform List<scalar> 
815
(
0.000227696682325
0.000227955466495
0.00022853718396
0.000212963105704
0.000213100607172
0.00021341747874
0.000199055755516
0.000199073317826
0.000199128534755
0.000185793509134
0.00018570256143
0.000185520652499
0.000173053310229
0.000172866228198
0.000172475988112
0.000160686202359
0.000160420251997
0.00015985906121
0.000148609875924
0.000148279124728
0.00014757901228
0.000136725409707
0.000136348396323
0.000135545185254
0.000124985822767
0.000124576525222
0.000123703128336
0.000113364837688
0.000112936702867
0.000112022113904
0.000101868014893
0.000101430083399
0.000100498269515
9.04971642676e-05
9.00631359315e-05
8.91406679145e-05
7.93071953406e-05
7.88860279226e-05
7.79934003145e-05
6.83585254409e-05
6.79615910255e-05
6.71223715137e-05
5.77613917109e-05
5.73985636625e-05
5.6632469282e-05
4.76622113785e-05
4.73403920931e-05
4.66633464638e-05
3.82330583395e-05
3.79597849718e-05
3.73845647119e-05
2.96827568583e-05
2.94596905729e-05
2.89904230103e-05
2.22007813748e-05
2.20270735455e-05
2.16617208391e-05
1.59322460358e-05
1.58037002116e-05
1.55330509778e-05
1.09367591365e-05
1.0846205886e-05
1.06556094698e-05
7.16691678029e-06
7.1062630606e-06
6.97867031121e-06
4.48031319386e-06
4.44169102509e-06
4.3603869036e-06
2.67354613922e-06
2.65007894043e-06
2.60064601325e-06
1.52546831582e-06
1.51184778131e-06
1.48312465658e-06
8.34497822475e-07
8.26891436499e-07
8.10860247238e-07
4.38365530019e-07
4.34308445669e-07
4.25769417373e-07
2.21116469559e-07
2.19066537495e-07
2.14754469254e-07
1.06884559627e-07
1.05907866096e-07
1.03854741931e-07
4.9476696674e-08
4.9032381592e-08
4.80980595076e-08
2.32459601883e-08
2.3040521242e-08
2.26025441616e-08
0.000229377407517
0.000213891035824
0.000199236266696
0.000185296835613
0.000171959600358
0.000159102944906
0.000146629975533
0.000134454474684
0.000122515186376
0.000110777398085
9.92300241139e-05
8.7885011806e-05
7.67794480713e-05
6.59811925618e-05
5.55905426272e-05
4.57422954736e-05
3.66011091109e-05
2.8350882524e-05
2.116356112e-05
1.51639676591e-05
1.03957238111e-05
6.80471629078e-06
4.24955408564e-06
2.5332666404e-06
1.44397265527e-06
7.89042787251e-07
4.14172061614e-07
2.08905281477e-07
1.01070641623e-07
4.68315263299e-08
2.20064389898e-08
0.000353367457512
0.000251001496212
0.000133417980527
5.1207841073e-05
1.28344125918e-05
1.69036284121e-06
1.2070464469e-07
0.000231350231383
0.0002361830883
0.000244256060679
0.000256683485057
0.000274382501417
0.000297385932976
0.000324086148739
0.000350849722134
0.000372278285625
0.000382025358705
0.000375100676693
0.000349824639037
0.000307437046955
0.000246062013837
0.000166513895372
8.4139478208e-05
3.11393781709e-05
7.31235498444e-06
9.17548609324e-07
7.0260114278e-08
0.000215028574645
0.000218026003419
0.000223352454924
0.000231939669985
0.000244506004829
0.000260926319469
0.000279539501479
0.000296915326841
0.000308323451714
0.000308692463495
0.000294313442383
0.000264476187816
0.000221541735405
0.000167768454951
0.000107749342135
5.17552627829e-05
1.82091623271e-05
3.97622799044e-06
4.75560864506e-07
3.90527757936e-08
0.000199559082001
0.00020077948873
0.000203476200206
0.00020842824809
0.000216189991899
0.00022654595233
0.000237939253788
0.00024736722817
0.00025094387248
0.000244871249985
0.000226650417222
0.000196330155663
0.000156790519433
0.000112083114602
6.78768596555e-05
3.09466432081e-05
1.02287278097e-05
2.07731484368e-06
2.38671644434e-07
2.08706662353e-08
0.000184886124226
0.000184504206239
0.000184824048338
0.000186490924653
0.000189946398852
0.000194991279021
0.000200302388757
0.000203391089609
0.0002011940883
0.000191017918872
0.000171451301557
0.00014314913718
0.000109074376467
7.35626037537e-05
4.17762783422e-05
1.80199984745e-05
5.55691374758e-06
1.05048847794e-06
1.18265358414e-07
1.08250676119e-08
0.000170913412602
0.000169160968207
0.000167458589564
0.000166339003578
0.000166167357745
0.000166799443647
0.000167187129528
0.000165382185754
0.000159092898881
0.000146554693275
0.000127236322313
0.00010224231607
7.43375486827e-05
4.73325342079e-05
2.51344524311e-05
1.02155048391e-05
2.93034357773e-06
5.17097285541e-07
5.7744525514e-08
5.48575471529e-09
0.000157536200886
0.000154660374524
0.000151303319475
0.000147913194004
0.000144809343798
0.00014192769688
0.000138518386886
0.000133161901635
0.000124249072148
0.000110736938402
9.2710050273e-05
7.15150049435e-05
4.95678730994e-05
2.98131093841e-05
1.48124931651e-05
5.64552435223e-06
1.50503977385e-06
2.49779635583e-07
2.78528684423e-08
2.73578863617e-09
0.000144649603565
0.000140893198149
0.000136247049805
0.000131098720589
0.000125748253293
0.000120221775456
0.000114055030087
0.000106308764225
9.59549778694e-05
8.24896619641e-05
6.63649621731e-05
4.89707748792e-05
3.22864042117e-05
1.83362096718e-05
8.54239384667e-06
3.04683515005e-06
7.54192493606e-07
1.18639516985e-07
1.33284990459e-08
1.35270950762e-09
0.00013216877386
0.000127760478845
0.000122169246009
0.000115743179272
0.000108783894126
0.00010141035398
9.34111373074e-05
8.42577431035e-05
7.33946521183e-05
6.06992476132e-05
4.67865065417e-05
3.29186328954e-05
2.05946755983e-05
1.10322474665e-05
4.82350199458e-06
1.60783725583e-06
3.70755153656e-07
5.5521743399e-08
6.35516241338e-09
6.67544589755e-10
0.000120023732813
0.000115173187854
0.000108948531789
0.000101679228393
9.36829373501e-05
8.51667053818e-05
7.61280169411e-05
6.63638708893e-05
5.56776146202e-05
4.41952262319e-05
3.25535136756e-05
2.1778238684e-05
1.28934751965e-05
6.51058011512e-06
2.67163234046e-06
8.32477965777e-07
1.79072167227e-07
2.57437920116e-08
3.03161593531e-09
3.30657543065e-10
0.000108167574823
0.000103062810617
9.64808560051e-05
8.87494020278e-05
8.02110077249e-05
7.11513999168e-05
6.17293627239e-05
5.19797959577e-05
4.19526828261e-05
3.19113215119e-05
2.24248356766e-05
1.42373093445e-05
7.95803779124e-06
3.78161077079e-06
1.45615900262e-06
4.23753788232e-07
8.52384203904e-08
1.1896668923e-08
1.45277762215e-09
1.6502398238e-10
9.65786370676e-05
9.13871799029e-05
8.46902940214e-05
7.68238297251e-05
6.81586954656e-05
5.90452671508e-05
4.97573246624e-05
4.04859216264e-05
3.14263320048e-05
2.2890836787e-05
1.53330299659e-05
9.22829471426e-06
4.86329580882e-06
2.1707719144e-06
7.83307526237e-07
2.12806536807e-07
4.01660184332e-08
5.51126351083e-09
7.02409415723e-10
8.32125100578e-11
8.52644819629e-05
8.01361798774e-05
7.35348259042e-05
6.58092122532e-05
5.73561080086e-05
4.85727628628e-05
3.98047517387e-05
3.13300649287e-05
2.340696026e-05
1.63317822053e-05
1.0426851885e-05
5.9470549335e-06
2.95313025105e-06
1.23680374107e-06
4.17656413463e-07
1.05943555246e-07
1.88455391219e-08
2.57623053057e-09
3.44030574951e-10
4.2481060226e-11
7.42549406522e-05
6.93242730143e-05
6.30014659782e-05
5.56467300026e-05
4.76747647416e-05
3.95091635578e-05
3.15291491254e-05
2.40442935813e-05
1.7316392182e-05
1.15869830002e-05
7.05562278436e-06
3.81544811337e-06
1.78578363755e-06
7.01742646747e-07
2.21701219011e-07
5.25382357865e-08
8.85884136877e-09
1.22216614206e-09
1.71126129058e-10
2.19788563793e-11
6.36141926443e-05
5.90002399917e-05
5.31115043118e-05
4.63136135089e-05
3.90273686964e-05
3.16809236497e-05
2.46545740675e-05
1.8249093595e-05
1.26934355824e-05
8.15963250458e-06
4.74577697157e-06
2.4364774621e-06
1.07632323882e-06
3.97304333348e-07
1.17545208056e-07
2.60595123127e-08
4.1947378639e-09
5.90395552915e-10
8.6534975873e-11
1.15284974703e-11
5.34345097126e-05
4.92392743023e-05
4.3912470393e-05
3.78153422939e-05
3.1359985374e-05
2.49580481074e-05
1.89650682446e-05
1.36475761644e-05
9.18518039583e-06
5.68325182333e-06
3.16351161651e-06
1.54523940009e-06
6.45864778681e-07
2.24467558244e-07
6.23040624167e-08
1.29549103478e-08
2.00810372736e-09
2.9074857259e-10
4.44974865663e-11
6.13000113141e-12
4.3840487882e-05
4.01453009753e-05
3.54773953603e-05
3.01814058078e-05
2.46450307969e-05
1.92452372803e-05
1.42951837096e-05
1.00149664398e-05
6.53278093975e-06
3.89801681829e-06
2.08106137017e-06
9.69628177579e-07
3.84589459387e-07
1.26265199412e-07
3.29762523839e-08
6.45369344355e-09
9.73335305259e-10
1.45856087079e-10
2.32465802974e-11
3.30043344546e-12
3.49838141641e-05
3.18436499026e-05
2.78953959799e-05
2.34542831088e-05
1.88691983148e-05
1.44691411751e-05
1.05155560101e-05
7.17956236058e-06
4.5444443224e-06
2.61890730464e-06
1.34378188246e-06
5.98868622476e-07
2.26206517344e-07
7.04323954914e-08
1.73702397162e-08
3.21577496541e-09
4.77666621649e-10
7.4387190315e-11
1.23116494351e-11
1.79475337792e-12
2.70302663889e-05
2.4467360295e-05
2.12574965461e-05
1.76749869865e-05
1.40189074853e-05
1.05631940879e-05
7.51618732988e-06
5.00447353953e-06
3.0761611407e-06
1.71416923007e-06
8.46964044192e-07
3.62066564692e-07
1.30718973698e-07
3.87586969187e-08
9.06240783401e-09
1.59755692115e-09
2.36890522089e-10
3.84283699882e-11
6.58434935458e-12
9.81756480284e-13
2.01331203132e-05
1.81330447971e-05
1.56349329918e-05
1.28646845846e-05
1.00660729676e-05
7.45710407347e-06
5.19718345418e-06
3.37584572778e-06
2.0162002362e-06
1.08746687476e-06
5.1828562995e-07
2.1308103526e-07
7.37795246975e-08
2.09166979438e-08
4.65578108226e-09
7.87774932669e-10
1.18268984053e-10
2.00068888905e-11
3.53676740533e-12
5.37297897617e-13
1.43982979939e-05
1.29108735229e-05
1.10557557414e-05
9.0084914205e-06
6.95787712714e-06
5.06992419817e-06
3.46196543258e-06
2.19440690966e-06
1.27401816144e-06
6.65721858343e-07
3.06513942494e-07
1.21484149984e-07
4.04730725307e-08
1.10075112407e-08
2.34153252709e-09
3.8391567701e-10
5.91491693287e-11
1.04352435109e-11
1.89652416097e-12
2.92425771332e-13
9.85487617801e-06
8.80271618892e-06
7.49093424572e-06
6.04823095557e-06
4.61350121818e-06
3.30765998489e-06
2.2135119696e-06
1.36958497655e-06
7.73350325572e-07
3.91845197094e-07
1.74543197674e-07
6.68197567889e-08
2.14708207198e-08
5.6160050059e-09
1.14572929254e-09
1.84123674948e-10
2.94734034713e-11
5.41983079214e-12
1.00880539767e-12
1.57252257447e-13
6.44156411547e-06
5.73386906259e-06
4.85130108223e-06
3.88310346838e-06
2.92632551831e-06
2.06492863307e-06
1.35465924727e-06
8.1851395383e-07
4.49790532103e-07
2.21178729457e-07
9.54294549621e-08
3.53461770211e-08
1.09751596882e-08
2.76549148262e-09
5.43006754488e-10
8.67424169718e-11
1.45710386706e-11
2.7885761391e-12
5.29343810972e-13
8.30563223691e-14
4.0175024823e-06
3.56444175353e-06
2.99922199848e-06
2.38058994868e-06
1.77295728102e-06
1.23172141726e-06
7.92462179946e-07
4.6783410731e-07
2.50357736254e-07
1.19584638285e-07
5.00334955588e-08
1.79537842358e-08
5.39287766594e-09
1.30984741358e-09
2.48664395421e-10
4.01626870547e-11
7.12751118517e-12
1.41550489227e-12
2.72688140924e-13
4.28508924768e-14
2.39186968807e-06
2.11533031893e-06
1.77036044891e-06
1.3937397751e-06
1.02611763175e-06
7.02119367988e-07
4.43247656062e-07
2.55837636972e-07
1.3344055484e-07
6.19715916708e-08
2.5170198132e-08
8.75943990813e-09
2.54652502229e-09
5.96267122917e-10
1.10226934543e-10
1.83419156976e-11
3.44635100373e-12
7.0680084939e-13
1.37391324939e-13
2.14946344568e-14
1.36163108042e-06
1.20040569564e-06
9.99425564206e-07
7.80619897273e-07
5.68410545383e-07
3.83308005251e-07
2.37636355481e-07
1.342345903e-07
6.83182418383e-08
3.08883269563e-08
1.2195437158e-08
4.12099586318e-09
1.1600128155e-09
2.62095020406e-10
4.76888497702e-11
8.30664564663e-12
1.64678424428e-12
3.46261285629e-13
6.74625867919e-14
1.04262398227e-14
7.43087626273e-07
6.53157035402e-07
5.41166816576e-07
4.1960385996e-07
3.02417236647e-07
2.01195091663e-07
1.22648233714e-07
6.79054423961e-08
3.37800303965e-08
1.48959671746e-08
5.72806031343e-09
1.88246436613e-09
5.13531789061e-10
1.1220899019e-10
2.03243504622e-11
3.72816767519e-12
7.73091036435e-13
1.65266998691e-13
3.20402021476e-14
4.83730497195e-15
3.89662921933e-07
3.41683460953e-07
2.81953785396e-07
2.17263240053e-07
1.55207666301e-07
1.02047690391e-07
6.12919011817e-08
3.33377609253e-08
1.62508257894e-08
7.00818876908e-09
2.63197153479e-09
8.43394016651e-10
2.23466471616e-10
4.73444621206e-11
8.57143391009e-12
1.64169936965e-12
3.51637894298e-13
7.58003783534e-14
1.45143365516e-14
2.10538486896e-15
1.96464848249e-07
1.72015915235e-07
1.41539049578e-07
1.08550380231e-07
7.70058067228e-08
5.01455088134e-08
2.97479314223e-08
1.59381014417e-08
7.63444831717e-09
3.22891095887e-09
1.18762585274e-09
3.71991455245e-10
9.59189712793e-11
1.96918951536e-11
3.53685914386e-12
6.94038694403e-13
1.51431924026e-13
3.2670176058e-14
6.12680926657e-15
8.33292969538e-16
9.50897162557e-08
8.32401880165e-08
6.84116533415e-08
5.23314840397e-08
3.69623669108e-08
2.39117923851e-08
1.40594296529e-08
7.44789536112e-09
3.52007359638e-09
1.46612387166e-09
5.30411049448e-10
1.63217965245e-10
4.1201963172e-11
8.16508230911e-12
1.41333875874e-12
2.74943446589e-13
5.9920139822e-14
1.28073574579e-14
2.32915915722e-15
2.88329814628e-16
4.40833877008e-08
3.8595064148e-08
3.17002203136e-08
2.42059080543e-08
1.70404622397e-08
1.09662346637e-08
6.40079920127e-09
3.35864375955e-09
1.56937036562e-09
6.45065445818e-10
2.30044445867e-10
6.97597040317e-11
1.73794299784e-11
3.35848394539e-12
5.47836943743e-13
1.01727902294e-13
2.17119272766e-14
4.57339091326e-15
8.04502620227e-16
8.96143665705e-17
2.0704809419e-08
1.80949359621e-08
1.48188228343e-08
1.12654394445e-08
7.88202789757e-09
5.03120839431e-09
2.90682177854e-09
1.50654999283e-09
6.93960810409e-10
2.8068578884e-10
9.83622335043e-11
2.93258251451e-11
7.22471701406e-12
1.39689582896e-12
2.22300610472e-13
4.00280419064e-14
8.65235926931e-15
1.89869989102e-15
3.4841402438e-16
3.90706202224e-17
2.12078111786e-08
5.61293011427e-09
1.31437160581e-08
3.63726318177e-09
7.63071220115e-09
2.1775756336e-09
4.2056857803e-09
1.22654945747e-09
2.23124674191e-09
6.61738641942e-10
1.15153151063e-09
3.46749084371e-10
5.83184823372e-10
1.78246013822e-10
2.92554459882e-10
9.07368706243e-11
1.46483204863e-10
4.60861043336e-11
7.36686650411e-11
2.35056359717e-11
3.73644033642e-11
1.2091333536e-11
1.91584274404e-11
6.28774089171e-12
9.94633526084e-12
3.31012911455e-12
5.2320391055e-12
1.76507772944e-12
2.78937751179e-12
9.53395825228e-13
1.50634994425e-12
5.21010233172e-13
8.22578012554e-13
2.87359336196e-13
4.52796371565e-13
1.5938538243e-13
2.50160082001e-13
8.8505757809e-14
1.37970016242e-13
4.8959786312e-14
7.54864489626e-14
2.68140448331e-14
4.07003920779e-14
1.4447929539e-14
2.14847991454e-14
7.6072735433e-15
1.10354932547e-14
3.88910943115e-15
5.48362797063e-15
1.91772375233e-15
2.61526741459e-15
9.02353156229e-16
1.17853576234e-15
3.97202495368e-16
4.88325478361e-16
1.58124927715e-16
1.78395569745e-16
5.41910609016e-17
5.48007073333e-17
1.52190047448e-17
1.50101607666e-17
3.82206950201e-18
6.61241660395e-18
1.66848588818e-18
)
;

boundaryField
{
    inletfuel
    {
        type            fixedValue;
        value           nonuniform 0();
    }
    inletair
    {
        type            fixedValue;
        value           nonuniform 0();
    }
    outlet
    {
        type            zeroGradient;
    }
    axis
    {
        type            empty;
    }
    leftside
    {
        type            zeroGradient;
    }
    burnerwall
    {
        type            zeroGradient;
    }
    front
    {
        type            wedge;
    }
    back
    {
        type            wedge;
    }
    procBoundary1to0
    {
        type            processor;
        value           nonuniform List<scalar> 
27
(
0.000243812695645
0.000244170812511
0.000244969900321
0.000246109894672
0.000494278668855
0.000369190662674
0.000206203562239
8.11437388195e-05
2.12918852695e-05
2.93707907162e-06
1.98451762041e-07
0.000248758753633
0.000255027128901
0.000265156178815
0.000280443133362
0.000302177104736
0.000331042989434
0.000366164161727
0.000404119217389
0.000438802820127
0.000462318411246
0.000468204272251
0.000453726013857
0.000418559257446
0.000418559257446
3.18488317651e-08
7.9368649175e-09
)
;
    }
}


// ************************************************************************* //
