/*--------------------------------*- C++ -*----------------------------------*\
  =========                 |
  \\      /  F ield         | OpenFOAM: The Open Source CFD Toolbox
   \\    /   O peration     | Website:  https://openfoam.org
    \\  /    A nd           | Version:  7
     \\/     M anipulation  |
\*---------------------------------------------------------------------------*/
FoamFile
{
    version     2.0;
    format      ascii;
    class       volScalarField;
    location    "0.03";
    object      k;
}
// * * * * * * * * * * * * * * * * * * * * * * * * * * * * * * * * * * * * * //

dimensions      [0 2 -2 0 0 0 0];

internalField   nonuniform List<scalar> 
815
(
0.617515525233
0.620045546778
0.625064477054
0.605808236423
0.608288972316
0.613180398313
0.581762810443
0.584339177776
0.589385584851
0.554173512854
0.556853832171
0.562083555627
0.525719689564
0.528509890765
0.533940169987
0.496870779955
0.499750468921
0.505370626095
0.467960839249
0.470890311883
0.476627494046
0.43868509876
0.441642342557
0.447444153227
0.409115703342
0.412036502186
0.417806454994
0.379227774688
0.38205961765
0.387695290377
0.349209901297
0.351877642435
0.357251420017
0.319138774754
0.321595501488
0.326599959739
0.289557623329
0.291728895309
0.296222439735
0.2609041548
0.262745869148
0.266634909129
0.233887534531
0.235373021723
0.238586985639
0.209195914431
0.210309687361
0.212814525029
0.187399673848
0.18817927935
0.190012971845
0.169013490945
0.169495644389
0.170722958377
0.154230836181
0.154478536056
0.155209349599
0.143015899363
0.143094487109
0.143449000923
0.135071956302
0.135039327769
0.135131265259
0.129900628197
0.12980163027
0.129721023026
0.126889513214
0.126756262406
0.126570806652
0.125424174109
0.125272704867
0.12502135054
0.124912251159
0.124752338204
0.124462821746
0.124834725474
0.124668971538
0.12435449749
0.124751469728
0.124580722544
0.124245347928
0.124375911852
0.124199962123
0.123844422153
0.123836201641
0.123657747723
0.123285413141
0.127886316937
0.127760431217
0.127427401227
0.21112931601
0.211498767893
0.21152368956
0.631344839137
0.619254729672
0.595600142331
0.568481289776
0.540523357902
0.512145969315
0.483512063761
0.454386056948
0.424685431882
0.394389057942
0.363609501053
0.332500104374
0.301513747365
0.271218129331
0.242387331135
0.215808909509
0.1922411957
0.172267030264
0.156192974861
0.144007725885
0.135391966581
0.129786371191
0.126516581202
0.12489511003
0.124295888194
0.124164613351
0.124039677059
0.123625156958
0.123054567236
0.127218097472
0.21146410126
0.403614438284
0.302211400079
0.192460378113
0.163660236457
0.203798781618
0.412388380995
1.30543013402
0.643050038476
0.653857557904
0.651300391809
0.63331199562
0.603477497562
0.567981916318
0.531772043312
0.497420093399
0.465561113906
0.436932125017
0.409579478421
0.378873583316
0.34027804507
0.29007301192
0.224677239569
0.170292001539
0.168014099793
0.232332815423
0.506413817611
1.50075836509
0.630216897517
0.638737856814
0.632392813579
0.609391775091
0.573606365529
0.531339153763
0.487826281541
0.44606535724
0.406932911499
0.371118593712
0.337608440333
0.303050283359
0.264687901145
0.224355850045
0.184066704044
0.160061852663
0.174758507683
0.265218263574
0.609575985733
1.66661088144
0.606521171728
0.61404887888
0.605502177573
0.579176861165
0.539327634938
0.492741935736
0.445100751922
0.399601809891
0.357372756728
0.318800462785
0.283602165628
0.250269439953
0.217110288867
0.187033483664
0.163040367064
0.155622576732
0.18339029997
0.302019835767
0.721009433892
1.80592503729
0.579497275348
0.586480089329
0.576644741682
0.548465196259
0.50641965136
0.457563792585
0.407915567292
0.360883099731
0.317711806918
0.278928131757
0.24479778423
0.214689053851
0.187796988312
0.165747632733
0.151816932547
0.154100961447
0.193212088241
0.342746326971
0.839102226073
1.92508736795
0.55166555067
0.558406913828
0.547822339472
0.518545508816
0.47529906343
0.425386234391
0.375060878426
0.328006751782
0.28564902295
0.248471022552
0.216800559589
0.190477624368
0.169060618918
0.15300290503
0.145434019264
0.154025024965
0.204202189938
0.388502487951
0.967226355191
2.02979982611
0.523467526981
0.530162153801
0.519294289102
0.489679143718
0.446222526153
0.396396074899
0.346585777201
0.300626286983
0.260087149824
0.225405603125
0.196711777124
0.17392438619
0.156651028187
0.145002332997
0.141566356761
0.154682086865
0.216276609546
0.44020551861
1.10827777776
2.12537652168
0.494894475555
0.50165714736
0.490911442911
0.461590799227
0.418752709182
0.369927977611
0.32153409212
0.277436104099
0.23929089176
0.207464202729
0.18182948486
0.162181865166
0.148076040943
0.139604524185
0.138982565175
0.155828028134
0.230024080043
0.500152035271
1.26527167042
2.21627300725
0.465758372799
0.472561838324
0.46219466261
0.433710801557
0.392237764042
0.345267074171
0.299101771568
0.257502475487
0.222094847882
0.193186100018
0.170474862324
0.15358317055
0.142042241694
0.135832478987
0.137116981463
0.157416847924
0.246126238228
0.571217022866
1.43996598732
2.30500484247
0.435871242759
0.442646095747
0.43285524299
0.40569991495
0.366261121433
0.321871315926
0.27859391479
0.239971517283
0.207496832508
0.181438738248
0.161439000551
0.146997005258
0.137609194121
0.133063800835
0.13572684899
0.159590794372
0.265572828151
0.656503244877
1.63216855459
2.39410854894
0.405175556064
0.411785709966
0.40270176666
0.377275205131
0.34045208662
0.299261801978
0.259418847462
0.224157652383
0.194779263203
0.171525839087
0.154064133515
0.141834169674
0.134250638266
0.130945946044
0.134720551147
0.162635019537
0.289751503688
0.759552670007
1.83990955785
2.48675629665
0.37374865703
0.380025005478
0.371735729374
0.34837484117
0.314654113901
0.277156445767
0.241153340292
0.209526579333
0.183376149915
0.162921385218
0.14787156322
0.13766383975
0.13160443637
0.129261776198
0.134101598165
0.167028596721
0.320661262622
0.884232679865
2.06095450244
2.58550857038
0.341795355072
0.347566744888
0.340127028128
0.319107559125
0.288882651372
0.25545849077
0.223576851769
0.195767585927
0.172952112741
0.155312762427
0.142586085207
0.134225364354
0.129447677346
0.127898002816
0.133955958677
0.173397841629
0.360712270816
1.03382556496
2.29394106253
2.69243111239
0.309747738737
0.314855247739
0.308296893895
0.289825832591
0.263380723459
0.234284293096
0.206691503817
0.182793696497
0.163361257548
0.148527688863
0.138038019817
0.13134973433
0.127651599424
0.126813279788
0.13442619473
0.182573991595
0.412864463625
1.2115960171
2.53877333333
2.80948288084
0.278262350567
0.282591201841
0.276925294922
0.261118438304
0.238602972742
0.213946141803
0.190688946765
0.170696278075
0.154607200111
0.142509816154
0.13413563002
0.128933758291
0.126147325605
0.12600669898
0.135699741042
0.19556950239
0.480507032217
1.42064169839
2.79604485197
2.93833653767
0.248156683581
0.251638510064
0.246859367162
0.233740603752
0.215160756046
0.194905073933
0.17589612839
0.159687057273
0.146800201403
0.137282701305
0.13083766435
0.126921928912
0.12490442119
0.125507682785
0.13803459592
0.213618223739
0.567576769019
1.66389779175
3.06739120582
3.08085416978
0.220310836968
0.222954733888
0.219040420835
0.208529446232
0.193735686479
0.177677830101
0.162685660115
0.150015028606
0.14008382744
0.132893963281
0.128126568689
0.125282934171
0.123915337185
0.125375094903
0.141779098442
0.238453245948
0.679250308985
1.94459532896
3.35564386625
3.23932509133
0.195563233725
0.19743434791
0.194340006667
0.186254390757
0.174947257637
0.162726459167
0.151378978191
0.141882697985
0.134553455163
0.129358414416
0.125979043885
0.123996760078
0.123186839262
0.125696527616
0.14745196927
0.272419729246
0.82166644994
2.26571066192
3.66455044483
3.41621764799
0.174562355025
0.175783143247
0.173439685973
0.167502995413
0.159251248356
0.150368845745
0.142168596304
0.135381199955
0.130227603961
0.126652204261
0.124360738712
0.123043928521
0.12273130177
0.126609025643
0.155826444385
0.318829232632
1.00268628189
2.63100823013
3.99895012893
3.61459887768
0.15766286857
0.158384049111
0.156695764143
0.152558841836
0.14683996038
0.140707195023
0.135080611479
0.130479071588
0.127041175039
0.124705385077
0.123219992214
0.122400622664
0.122575108011
0.128338460458
0.168157084369
0.382725540801
1.23258006396
3.04526042908
4.36437904368
3.83733525102
0.144863065202
0.145235413873
0.144083808936
0.141362262929
0.13761914859
0.133619863202
0.129974041094
0.127029689484
0.124861048107
0.123416313128
0.122494700149
0.122042602053
0.122769085276
0.131284973916
0.18648478369
0.471722810582
1.52480575151
3.51436090847
4.76767265237
4.08740276572
0.135822455891
0.135973665497
0.135231858464
0.133550128053
0.131248389211
0.128797835205
0.126577395375
0.124806645189
0.123515555642
0.122670096599
0.122121561182
0.121957633595
0.123438412102
0.136235714342
0.21453167847
0.598264473992
1.89670098807
4.04567691378
5.21572749615
4.36653315458
0.129944251586
0.129969845147
0.1295185874
0.128546545184
0.127223496432
0.125819523208
0.124552517413
0.123554330919
0.122828648862
0.122360610572
0.122050366473
0.122161852001
0.124842449372
0.14463298084
0.258614408019
0.780738522996
2.36798075442
4.64710136063
5.71443892483
4.67432753495
0.126510740912
0.126471867972
0.126210739148
0.125687122526
0.124978953331
0.124229601034
0.123554175627
0.123029571176
0.122643829875
0.122398350566
0.12224827014
0.122725905297
0.127504982788
0.159122615682
0.329180083512
1.04483724247
2.95643835546
5.32333645795
6.2655723169
5.00444852668
0.124794310368
0.12472482231
0.124578168399
0.124316583771
0.123966272507
0.123597179859
0.12326381728
0.123010033282
0.122817251705
0.122700735952
0.122690743375
0.123782307057
0.132292035837
0.183821273388
0.440678783817
1.41730957185
3.66586374054
6.06824737887
6.86180984023
5.33869926415
0.124141299414
0.124056184472
0.123972195594
0.123852171892
0.123696154253
0.123534027586
0.123387856545
0.123282720829
0.123196833319
0.123161945862
0.12332349291
0.125451213753
0.140112637457
0.222837965775
0.605438502003
1.90701250434
4.46768738517
6.85439151293
7.47924641316
5.63633953818
0.12398074123
0.123886610982
0.12383367594
0.123785268132
0.123728543051
0.123673630567
0.123626392533
0.123601223859
0.123575191165
0.123603176
0.123972626201
0.127514728148
0.150471817355
0.274512949494
0.815872253541
2.47282510603
5.28513406388
7.62133585026
8.06421081653
5.81921836745
0.123837275806
0.123735711908
0.123695056848
0.123679404862
0.123670808856
0.123669344154
0.123673057885
0.123691894934
0.123697749338
0.12377328021
0.124284707152
0.128959114318
0.159044811587
0.321819575663
1.01970257165
2.99999690443
5.98919874275
8.26149321842
8.51436768529
5.76678774925
0.12340654961
0.123295968891
0.123257527521
0.123254357532
0.123266496989
0.123289228574
0.123316418812
0.123362019539
0.123378316553
0.123473096478
0.123927595989
0.128540200184
0.159750591954
0.338464034234
1.13141802753
3.32765757291
6.4141319571
8.60804401663
8.65559263814
5.33654805892
0.122818826844
0.122695175023
0.122651595886
0.122648013724
0.122662813848
0.122692081998
0.122720677483
0.122775722443
0.122788201553
0.122860210044
0.123046536112
0.125884754331
0.14800470462
0.296434840259
1.05426524102
3.28765409305
6.3551032408
8.37919117667
8.18900468943
4.42936564626
0.126992424855
0.12686478763
0.126816423538
0.126808835086
0.12681868672
0.126844415794
0.12686875049
0.126916624284
0.126935177879
0.126979534668
0.126998270852
0.128072449866
0.138269050043
0.222641034044
0.775406623486
2.73796604137
5.54119137681
7.16295298936
6.68180766102
3.11002850788
0.211331173733
0.211247735612
0.21122746824
0.211229951295
0.211261287126
0.211290174253
0.211356600355
0.211411150755
0.211527538162
0.211616339138
0.211866697155
0.212555931738
0.217943156104
0.258720109124
0.560705490285
1.83159184867
3.72082176647
4.52028169928
3.8834117894
1.75421959693
0.95407541504
0.706445925663
1.00953383895
0.764540970239
1.04911843231
0.819030609899
1.08171515477
0.872669045782
1.11326584747
0.927487865609
1.14683045406
0.984437617052
1.18292267889
1.04388525717
1.22220237356
1.10617583527
1.26478444089
1.17127595147
1.3106594243
1.23918880511
1.36019364805
1.31012677676
1.41374982737
1.38429258041
1.47192101143
1.46201728945
1.5355273511
1.54384328511
1.60566096624
1.63042740515
1.68342688949
1.72253214537
1.77017134726
1.82101370809
1.86728591753
1.92672429232
1.97616047405
2.04056642894
2.0980505756
2.16320351604
2.23327246163
2.29508834035
2.38140892318
2.43631674069
2.53965811564
2.58635216628
2.70123222218
2.74337753084
2.85114651197
2.90152047713
2.95981485052
3.04780296329
2.98039397471
3.15806657122
2.85260451865
3.19863857662
2.53404187105
3.13791510711
2.05189330376
2.95934694432
1.53649568437
2.62883949047
1.16455894054
2.02280742608
)
;

boundaryField
{
    inletfuel
    {
        type            turbulentIntensityKineticEnergyInlet;
        intensity       0.05;
        value           nonuniform 0();
    }
    inletair
    {
        type            turbulentIntensityKineticEnergyInlet;
        intensity       0.05;
        value           nonuniform 0();
    }
    outlet
    {
        type            inletOutlet;
        inletValue      uniform 1;
        value           uniform 1;
    }
    axis
    {
        type            empty;
    }
    leftside
    {
        type            kqRWallFunction;
        value           nonuniform List<scalar> 
32
(
0.706445925663
0.764540970239
0.819030609899
0.872669045782
0.927487865609
0.984437617052
1.04388525717
1.10617583527
1.17127595147
1.23918880511
1.31012677676
1.38429258041
1.46201728945
1.54384328511
1.63042740515
1.72253214537
1.82101370809
1.92672429232
2.04056642894
2.16320351604
2.29508834035
2.43631674069
2.58635216628
2.74337753084
2.90152047713
3.04780296329
3.15806657122
3.19863857662
3.13791510711
2.95934694432
2.62883949047
2.02280742608
)
;
    }
    burnerwall
    {
        type            kqRWallFunction;
        value           nonuniform 0();
    }
    front
    {
        type            wedge;
    }
    back
    {
        type            wedge;
    }
    procBoundary1to0
    {
        type            processor;
        value           nonuniform List<scalar> 
27
(
0.597079607569
0.599617253271
0.604793746093
0.611402363105
0.584269593338
0.444872444191
0.239640743694
0.164242683018
0.180534476227
0.329648381829
1.08650042715
0.624177976285
0.63897780418
0.644590708979
0.637973061003
0.620929945225
0.598394651048
0.574923435207
0.552824872346
0.53308464609
0.516675992148
0.50149986638
0.482506846163
0.455891381217
0.455891381217
0.874001122122
0.642784706299
)
;
    }
}


// ************************************************************************* //
