/*--------------------------------*- C++ -*----------------------------------*\
  =========                 |
  \\      /  F ield         | OpenFOAM: The Open Source CFD Toolbox
   \\    /   O peration     | Website:  https://openfoam.org
    \\  /    A nd           | Version:  7
     \\/     M anipulation  |
\*---------------------------------------------------------------------------*/
FoamFile
{
    version     2.0;
    format      ascii;
    class       volScalarField;
    location    "0.03";
    object      N2;
}
// * * * * * * * * * * * * * * * * * * * * * * * * * * * * * * * * * * * * * //

dimensions      [0 0 0 0 0 0 0];

internalField   nonuniform List<scalar> 
815
(
0.764587203987
0.764586240835
0.764584003287
0.764740688432
0.764740425158
0.764739731142
0.764874882911
0.764875509172
0.764876750111
0.765004039696
0.765005486672
0.765008514883
0.765130443585
0.765132635672
0.765137268259
0.765255567453
0.765258382975
0.765264358311
0.765380094688
0.765383444642
0.765390555011
0.765504848651
0.765508592662
0.765516581174
0.765630115879
0.765634154131
0.765642778197
0.765755970054
0.765760199618
0.765769238928
0.76588215901
0.765886516247
0.765895785407
0.766008503388
0.766012865629
0.766022132926
0.766134266836
0.766138555116
0.766147637225
0.766258687264
0.766262788547
0.766271451712
0.766380463355
0.766384273039
0.766392309325
0.766497885607
0.76650132551
0.766508553725
0.766608922882
0.766611899193
0.76661815763
0.766711044615
0.766713524561
0.766718736569
0.766801831755
0.766803806283
0.766807955518
0.766879248986
0.766880745417
0.766883893849
0.766942155697
0.766943237393
0.766945512669
0.766990638995
0.766991383812
0.766992949726
0.767025970414
0.767026458772
0.76702748643
0.767050282132
0.767050588197
0.767051232824
0.767066081896
0.767066265416
0.767066652502
0.767075784061
0.767075890104
0.767076113741
0.767081423628
0.767081482206
0.76708160567
0.767084513141
0.767084543816
0.767084608532
0.767086078188
0.76708609335
0.767086125428
0.767086765825
0.767086772998
0.767086788288
0.767086973338
0.767086976896
0.767086984548
0.76458069703
0.764738581272
0.76487829496
0.765012541718
0.765143533405
0.765272492593
0.765400248954
0.765527465246
0.765654531755
0.765781556361
0.7659084117
0.766034755393
0.766159994516
0.766283237443
0.7664032448
0.766518392909
0.766626688168
0.766725845895
0.766813618452
0.76688819179
0.766948618493
0.766995087098
0.767028889054
0.767052112663
0.767067180934
0.767076418618
0.767081773701
0.767084696559
0.767086169103
0.767086809148
0.767086995013
0.764129658237
0.765026382907
0.766053421824
0.766664084696
0.766803631315
0.766470173597
0.765565244542
0.764572490284
0.764550809641
0.764513101267
0.764454573304
0.764372739283
0.764270831197
0.764159889488
0.764058010253
0.763988773662
0.763982441149
0.764069621729
0.764272164896
0.764601615568
0.765098116931
0.765760847898
0.76642884723
0.766772695849
0.766768949385
0.766362404452
0.765487685052
0.764735407249
0.764725272887
0.764705417804
0.764672365762
0.764625033028
0.76456789468
0.764513027865
0.764478727489
0.764486429225
0.764559698298
0.764719866516
0.764977357307
0.765325945446
0.765758555306
0.766236815858
0.766655977849
0.766827731289
0.76672258457
0.766262586885
0.765421409175
0.764881096043
0.764883809262
0.764882616542
0.764874793719
0.764860096099
0.764843520414
0.764836925476
0.764857110214
0.764921756837
0.765046887856
0.765244287714
0.765514929331
0.765842791353
0.766200532566
0.766539961873
0.766790788796
0.766849088115
0.76667180603
0.766171276201
0.765361424063
0.765020797814
0.765035184042
0.765050836256
0.765065534961
0.765079388794
0.765097056131
0.765129153
0.765190130842
0.765293650393
0.765449015996
0.765659517669
0.765918938965
0.766207111912
0.766491818159
0.766728603327
0.766868575826
0.76685129336
0.766621686543
0.766089167683
0.765304414216
0.765156595097
0.765181074436
0.76521113904
0.765244920324
0.765282560571
0.765327954901
0.765389925307
0.765480070114
0.765608138348
0.76577801606
0.765986486893
0.766222387483
0.766464887391
0.766684250903
0.766845084189
0.766912309764
0.766843637148
0.766574007862
0.766013770125
0.765248285293
0.765289572815
0.765322481563
0.765364499968
0.765413912169
0.765470649715
0.765537579029
0.765621391104
0.76573067902
0.7658717055
0.766044426668
0.766241426354
0.766448881072
0.766647155785
0.766811860774
0.766916896392
0.766936211708
0.766831915367
0.76652934888
0.765942957393
0.765191963748
0.765420629635
0.765460326912
0.765511858926
0.76557353597
0.76564490689
0.765727709781
0.765826450915
0.765946821736
0.766092082591
0.766259512606
0.766439529888
0.766617570021
0.766776261728
0.766897114952
0.766961644732
0.76694892851
0.766818700471
0.766486553366
0.765874458711
0.765134533159
0.765550382275
0.765595305419
0.765654037355
0.765724821001
0.765806708791
0.765900289949
0.766008021446
0.766132976911
0.766275946519
0.766432535531
0.766592581198
0.766742298684
0.76686720195
0.766954110093
0.766989881193
0.766955444805
0.766804884304
0.766443827624
0.765806096489
0.765074834663
0.765679260685
0.765727934212
0.765791719415
0.765868692565
0.765957361647
0.766057224116
0.766168941972
0.766293396933
0.766429466504
0.766571856575
0.766710857783
0.766834451826
0.766931321706
0.766992359758
0.767007915918
0.76695837644
0.766790329231
0.766399340333
0.765736293496
0.765011519321
0.765807442764
0.765858485333
0.765925343549
0.766005846439
0.766097949675
0.76620015928
0.766311653777
0.766431609847
0.766557573646
0.766683972957
0.766802185719
0.76690248533
0.766976554674
0.767018206287
0.767019573127
0.76695898163
0.766774190197
0.766351199486
0.765664012865
0.764942868849
0.765934854022
0.765986962932
0.766055051201
0.766136666597
0.766229236923
0.766330417506
0.766438232105
0.766550646799
0.766664434647
0.766774227819
0.76687283373
0.766952885314
0.767008602628
0.76703580258
0.767027104074
0.766957571435
0.76675502759
0.766297442649
0.765588124563
0.764867287929
0.76606113853
0.766113063478
0.766180664269
0.766261200334
0.766351632939
0.766448939064
0.766550318227
0.766652978443
0.766753407737
0.766846814019
0.766927546894
0.766990347311
0.767031427428
0.767047831217
0.767031728442
0.766953955397
0.766731273515
0.766236662597
0.765507261816
0.76478348458
0.766185728267
0.766236259779
0.766301753378
0.76637921763
0.766465244765
0.766556331547
0.766649168141
0.766740607099
0.766827237575
0.766905069843
0.766969913176
0.767018234485
0.767047721059
0.767056002336
0.767034070015
0.766947582858
0.766701320552
0.766167703325
0.765420062485
0.764690533285
0.766307717565
0.766355696956
0.766417583628
0.766490203995
0.766569906867
0.766652923724
0.766735730511
0.766815155816
0.766888151983
0.766951602928
0.767002587927
0.767038925577
0.767059298677
0.76706139529
0.767034411111
0.766937778304
0.766663699391
0.766089676857
0.765325438548
0.764587886838
0.766425907613
0.766470258977
0.766527186501
0.766593434807
0.766665262877
0.766738855504
0.76681073605
0.766877951466
0.766937955015
0.76698845306
0.767027572168
0.767054139083
0.767067410113
0.767064681774
0.767032773789
0.766923814028
0.766617195746
0.766002197463
0.765222774418
0.764475342346
0.766538741997
0.766578523044
0.766629346334
0.766687999747
0.766750820004
0.766814149134
0.766874764049
0.766930077892
0.76697807967
0.767017202765
0.767046386334
0.767065138239
0.767072925227
0.767066271198
0.767029037297
0.766904754852
0.766560530258
0.765905024248
0.765111625312
0.764352936994
0.766644329478
0.766678808008
0.766722674705
0.766772897019
0.766826053982
0.766878813247
0.766928345603
0.766972502062
0.767009774594
0.767039182743
0.767060251822
0.76707288729
0.767076458063
0.767066383135
0.767022902228
0.766879551607
0.766492678439
0.765798202973
0.764991749304
0.764220895289
0.766740554468
0.766769298567
0.766805746073
0.766847176654
0.766890552615
0.76693298293
0.766972098037
0.767006189205
0.76703418495
0.767055545311
0.767070176357
0.767078135966
0.767078442637
0.767065086973
0.767013900135
0.766846946102
0.766412638376
0.765681644449
0.764862900033
0.76407954503
0.766825355887
0.766848304827
0.766877338311
0.76691014841
0.766944172823
0.766977016901
0.767006775758
0.767032144244
0.767052404317
0.767067325545
0.767077015246
0.767081476824
0.76707916597
0.767062305546
0.767001283018
0.766805196828
0.766319223291
0.765554995069
0.764724680554
0.763929281279
0.7668971267
0.766914615657
0.766936717824
0.766961585568
0.766987165862
0.767011561881
0.767033301246
0.767051428349
0.767065497498
0.767075467937
0.767081496482
0.767083370473
0.767078795729
0.767057778416
0.766983934362
0.766752030503
0.766210901091
0.765417532772
0.76457690058
0.76377102512
0.766955095856
0.766967794801
0.766983841823
0.767001840611
0.767020228126
0.767037567396
0.76705276768
0.767065162589
0.767074499702
0.767080825189
0.767084226703
0.767084148803
0.767077334297
0.767050913095
0.76695988789
0.766683922312
0.76608563779
0.765268260316
0.764419724471
0.763606717734
0.766999558826
0.767008342037
0.767019445682
0.767031870322
0.767044484662
0.767056250598
0.767066397123
0.767074483126
0.767080378537
0.767084135597
0.767085685062
0.767084013073
0.76707460478
0.767040696878
0.766926214195
0.76659657805
0.76594159987
0.765106907827
0.764255197237
0.763440533863
0.767031832258
0.767037624613
0.767044950245
0.767053128576
0.767061380704
0.767068993384
0.767075448869
0.767080469814
0.767083988173
0.767086002454
0.767086219192
0.767083027226
0.767070181615
0.767025459052
0.766878771626
0.766485426376
0.765778651681
0.764935795904
0.764088700013
0.763279724481
0.76705396321
0.767057611652
0.767062225164
0.767067361936
0.767072511033
0.767077207468
0.767081120197
0.76708407999
0.767086034636
0.767086887488
0.767086055816
0.767081133659
0.767063424117
0.767003055621
0.766813323166
0.766349013921
0.76560182107
0.764762936321
0.763931197273
0.763135246607
0.767068294858
0.767070493537
0.767073271302
0.767076354331
0.767079422806
0.767082188516
0.767084448134
0.76708609542
0.767087062211
0.767087127117
0.767085351821
0.767078290891
0.7670539062
0.766972298307
0.766729447883
0.766194888995
0.765425572608
0.76460514869
0.763800266889
0.763020629571
0.767077062286
0.767078331935
0.767079933747
0.767081705149
0.767083455346
0.767085012878
0.767086255751
0.767087108492
0.767087470043
0.767086983191
0.767084321513
0.767074849495
0.767042587014
0.766936220173
0.766637013076
0.76604502355
0.765275707379
0.76448792547
0.763717628979
0.762948393271
0.767082129651
0.767082831919
0.767083717098
0.767084692723
0.767085649866
0.767086489985
0.767087139443
0.76708753592
0.767087547074
0.767086709307
0.767083397435
0.767072039309
0.767033358348
0.766905978142
0.766560755044
0.765934488127
0.765185135407
0.764439532436
0.763703360182
0.76292502443
0.767084884249
0.767085255879
0.767085724477
0.767086239756
0.767086741932
0.767087175963
0.767087496451
0.767087649414
0.767087491365
0.767086528618
0.767083075881
0.76707137311
0.767031057919
0.76689529458
0.766528412997
0.76589542512
0.76518022028
0.764479178925
0.763766247592
0.762944309495
0.76708626317
0.767086450747
0.767086687815
0.767086948295
0.767087200764
0.767087415408
0.767087564503
0.767087605631
0.767087415353
0.76708657614
0.767083692879
0.767074041241
0.767040346993
0.766919103421
0.766565680991
0.765948653142
0.76527100095
0.764606591971
0.76389602468
0.76298539976
0.767086854537
0.767086945566
0.767087060787
0.767087187179
0.76708730889
0.767087410377
0.767087475621
0.767087475648
0.767087322446
0.76708672089
0.767084703506
0.767078082438
0.767055404939
0.766969141181
0.766676095174
0.766101231509
0.765449644602
0.764794051646
0.764052817784
0.763018299505
0.767087017893
0.767087063759
0.767087121556
0.767087184436
0.767087244175
0.767087292634
0.767087320841
0.767087310243
0.767087201776
0.767086794567
0.767085427074
0.767080938388
0.767065838857
0.767009158201
0.766793137935
0.766280496274
0.765629735561
0.764947712491
0.764156793711
0.763022817581
0.764659913025
0.764346842671
0.764714915496
0.764428794553
0.764738159837
0.764473819811
0.764739183568
0.764491792096
0.764724985318
0.764490586342
0.764699719141
0.764475154912
0.764665259676
0.764448066817
0.764622592822
0.764410448565
0.764571809728
0.764362539093
0.76451241752
0.764304154386
0.764443667026
0.764234881227
0.764364814685
0.764154271869
0.76427531776
0.76406204562
0.764174897965
0.763958145241
0.764063556146
0.763842752118
0.76394146826
0.763716193162
0.763808962638
0.763578900665
0.763666436888
0.763431339852
0.763514328266
0.763273974535
0.763353143311
0.763107355147
0.763183718926
0.762932265426
0.763007810113
0.762750303958
0.762828674452
0.762564190107
0.762651340975
0.762377774225
0.762481974646
0.762194982552
0.762326075634
0.762017890839
0.762185814411
0.761845086709
0.762058077241
0.761671903577
0.761936434141
0.761496809361
0.761819467341
0.761332617638
0.761720985293
0.76120968935
0.761668337937
0.761154614798
)
;

boundaryField
{
    inletfuel
    {
        type            fixedValue;
        value           nonuniform 0();
    }
    inletair
    {
        type            fixedValue;
        value           nonuniform 0();
    }
    outlet
    {
        type            zeroGradient;
    }
    axis
    {
        type            empty;
    }
    leftside
    {
        type            zeroGradient;
    }
    burnerwall
    {
        type            zeroGradient;
    }
    front
    {
        type            wedge;
    }
    back
    {
        type            wedge;
    }
    procBoundary1to0
    {
        type            processor;
        value           nonuniform List<scalar> 
27
(
0.764287774526
0.764288819092
0.764290628117
0.764292401225
0.762767976246
0.76392153772
0.76544956285
0.766473707644
0.766817068235
0.766583122182
0.765660069776
0.764294011891
0.76428489817
0.764255158532
0.764195301737
0.764098138926
0.763962636771
0.763796353847
0.763616018432
0.763447007189
0.763325405857
0.76328960004
0.763372379213
0.763610113862
0.763610113862
0.764565484074
0.764221403243
)
;
    }
}


// ************************************************************************* //
