/*--------------------------------*- C++ -*----------------------------------*\
  =========                 |
  \\      /  F ield         | OpenFOAM: The Open Source CFD Toolbox
   \\    /   O peration     | Website:  https://openfoam.org
    \\  /    A nd           | Version:  7
     \\/     M anipulation  |
\*---------------------------------------------------------------------------*/
FoamFile
{
    version     2.0;
    format      ascii;
    class       volScalarField;
    location    "0.03";
    object      nut;
}
// * * * * * * * * * * * * * * * * * * * * * * * * * * * * * * * * * * * * * //

dimensions      [0 2 -1 0 0 0 0];

internalField   nonuniform List<scalar> 
815
(
0.000756241496661
0.000756534539763
0.000756989904099
0.000749392425617
0.000749368182081
0.00074914964722
0.000725900991907
0.000725930568768
0.000725790747361
0.000699587814828
0.000699729247264
0.000699792851421
0.000672788302611
0.000673075220852
0.000673411534165
0.000645732649085
0.000646187166648
0.000646851736086
0.00061851039634
0.000619129984728
0.000620125737649
0.000590798044702
0.000591592117934
0.000592933321681
0.000562536134037
0.000563484948183
0.000565146283775
0.000533675630931
0.000534755059706
0.000536693384554
0.000504374254213
0.000505542478302
0.000507689541295
0.000474806720751
0.000476030590754
0.000478320353392
0.000445606316783
0.000446826013109
0.000449150127858
0.000417485785256
0.000418652854156
0.000420918332868
0.000391527246988
0.000392591051766
0.000394697288579
0.000368922602971
0.000369839019679
0.00037169882426
0.000350850274721
0.000351604251945
0.000353171434792
0.000338335213034
0.000338919661469
0.000340171232887
0.000331829973262
0.000332261407148
0.000333215763132
0.000331006999414
0.000331309521885
0.000332003070606
0.00033460423752
0.000334802024552
0.000335274612511
0.000340702012536
0.000340813889729
0.000341097581909
0.000347368979139
0.000347411396607
0.000347537636479
0.000353289860023
0.000353276574771
0.000353273318063
0.000357872742111
0.000357819789505
0.000357722175334
0.000360995986869
0.000360914860109
0.000360749929603
0.000362645439504
0.000362543754544
0.000362328586616
0.000362485942973
0.000362363748864
0.000362105665368
0.000355218303406
0.000355008929935
0.000354661996332
0.000284722504553
0.000283972660034
0.000283206326185
0.000165416784101
0.000165252134924
0.000165007271583
0.000757446106535
0.000748693457261
0.000725394965076
0.000699632793801
0.00067357007236
0.000647411517702
0.000621097915718
0.000594344851095
0.000566968420772
0.000538878100653
0.000510154375452
0.00048098726357
0.000451896938224
0.0004236357809
0.00039726831425
0.000374023563814
0.000355186299242
0.000341843660647
0.000334552754262
0.000333030965751
0.000336025183411
0.000341599822209
0.00034782599937
0.000353387842971
0.0003577112975
0.000360655767118
0.000362179013989
0.000361916513367
0.000354417680659
0.000282771948412
0.000164844009646
0.000385488368038
0.000311258504945
0.000265793122471
0.000300584716927
0.000336153868279
0.000472978179192
0.00109943219589
0.000758238840038
0.000754755361623
0.000741351243719
0.000715549058257
0.00067879409448
0.000635561199499
0.000590550539589
0.000547115851405
0.000506911833182
0.000470202056208
0.000434840844728
0.00039783660358
0.000357753815095
0.000315690896051
0.000280006717556
0.000283883968883
0.00031826893649
0.00035271072025
0.000558018365963
0.00126371014665
0.000747656486327
0.000740618326459
0.000722661230374
0.000691596522549
0.000649176951475
0.000600123641665
0.000549471672499
0.000500899501437
0.000456283328274
0.000416240970939
0.000379643042192
0.000344662350572
0.000311730518278
0.000286870164059
0.000281049420814
0.000305499988088
0.000326831956235
0.000378298755237
0.000659159226723
0.00141551451162
0.00072440210274
0.000716789861529
0.000697322951828
0.000663788957789
0.000618269714916
0.000566065587997
0.000512783439074
0.000462388384076
0.000417025698313
0.000377550042766
0.000343766853471
0.000315238573301
0.000293422639656
0.000285512998949
0.000298153984629
0.000320298522132
0.000331908229193
0.000412959603997
0.000774340949646
0.00155362057899
0.00069905532251
0.000691628186177
0.000671785993409
0.000637337536723
0.000590554772736
0.000537134419532
0.000483196148303
0.000433044055217
0.000389053067809
0.000352536734368
0.00032412716712
0.000304145385902
0.000294352312325
0.000299369539961
0.000317250639884
0.000327073913135
0.000337438051924
0.000456097305599
0.000900408680527
0.00167933378912
0.000673587281764
0.000666808195223
0.000647291033227
0.000612850812749
0.000565921760644
0.000512542591043
0.000459292568595
0.000410896741077
0.000370000851609
0.000338160778997
0.00031644956648
0.000305510938897
0.000306130819571
0.000317851167233
0.000330749760419
0.000328603567222
0.000345317473601
0.000507790683863
0.00103854438914
0.00179440072542
0.000648177274201
0.000642399623082
0.000623821485356
0.000590288686716
0.000544321639899
0.000492175582658
0.000440779835188
0.000395234942895
0.000358454535214
0.000332128399345
0.000317361750927
0.000314429346508
0.000321897761827
0.000334038437795
0.000337702780215
0.000327729151978
0.000356038733789
0.000568118475414
0.00118958614209
0.00190115795038
0.000622650123377
0.000618148368676
0.000601044031866
0.000569192617183
0.000525156037534
0.000475255362598
0.000426631017188
0.000384680313633
0.000352557942923
0.000331947145018
0.000323572626023
0.000326602790944
0.000336792676636
0.000345071981678
0.000339953411447
0.000326291558884
0.000370052666076
0.000638555200006
0.00135415752318
0.00200174444784
0.00059672231798
0.00059364049208
0.000578396790265
0.000548888886367
0.000507669267798
0.000460984074258
0.000415981573319
0.000378202308977
0.000350931308506
0.000335704232928
0.000332518620363
0.000338939408311
0.000348444543261
0.000351292407179
0.000339566271782
0.000325157756203
0.000387777045641
0.00072124909685
0.00153167699334
0.00209739843923
0.00057012661975
0.000568538861837
0.000555448867932
0.000528850205121
0.000491232055229
0.000448631796675
0.00040799751315
0.000374815165034
0.000352332278921
0.000341772066799
0.000342177007666
0.000349507239666
0.000356290082735
0.000354047652692
0.000337888974815
0.000324740273207
0.000409986233385
0.000818480174522
0.00172006852447
0.00219016153033
0.000542725297312
0.000542616119055
0.000531863606065
0.000508602394375
0.00047523818915
0.000437473622739
0.000401858326287
0.000373595619027
0.000355688316686
0.000348869603845
0.000351183241466
0.000357528420429
0.000360876612093
0.000354663155062
0.000335663892027
0.000325327279227
0.000437938349648
0.000932730142277
0.00191611805563
0.00228237890208
0.000514536717844
0.000515812657141
0.000507485875527
0.000487864877902
0.000459247783082
0.000426896592804
0.000396786201722
0.000373620314309
0.000359946975998
0.000355867730866
0.000358602955392
0.000362879194103
0.000363014328092
0.000353995419765
0.000333199063294
0.000327299624789
0.000473574404904
0.00106643369987
0.002116814383
0.00237598817399
0.000485748768057
0.000488256227465
0.000482353345304
0.000466551457292
0.000443006062092
0.000416446218972
0.000392120753511
0.000374052798393
0.000364159158434
0.000361862237938
0.000363959585655
0.000365853420521
0.000363444306524
0.000352536786361
0.000330589271192
0.000331232188617
0.000519285876308
0.00122109548956
0.00232038867982
0.00247256577855
0.000456823629908
0.000460353860067
0.000456794478959
0.00044486945194
0.000426541214627
0.000405921405023
0.000387416870671
0.000374231266547
0.000367545523862
0.000366215139287
0.00036714191888
0.00036691206915
0.000362734233359
0.000350542335906
0.000327875191383
0.000337992576093
0.000577929700784
0.00139781317246
0.0025264530547
0.00257350760829
0.000428532959139
0.000432847579399
0.000431480435922
0.000423364205138
0.000410207894584
0.000395427199529
0.000382505745756
0.000373746413895
0.000369603302318
0.000368643815587
0.000368346097175
0.000366564974538
0.000361299101617
0.00034813441351
0.000325144143622
0.000348769468728
0.000652587948552
0.00159722918687
0.00273546401787
0.00267993039332
0.00040193637212
0.000406776465788
0.000407391333531
0.000402895550182
0.000394671218549
0.000385369103173
0.000377504066089
0.000372485101626
0.00037019109323
0.00036925666705
0.000368004835179
0.000365316034872
0.000359441670731
0.000345357756164
0.000322568206406
0.000365073263926
0.000746543223891
0.00181956420558
0.00294882542781
0.00279301678298
0.000378301785572
0.000383425296221
0.000385759474341
0.000384560510614
0.000380810538779
0.000376345462918
0.000372726858195
0.000370585121642
0.000369494968356
0.000368464825018
0.000366668732247
0.000363605029159
0.000357361766691
0.000342220169368
0.000320510553028
0.000388939626652
0.000863827549493
0.00206511141841
0.00316878923028
0.00291398573388
0.000358966618673
0.000364146241156
0.000367873243324
0.000369487636204
0.000369508707448
0.000368953840748
0.000368535575075
0.000368334093378
0.000367916996804
0.00036682401243
0.000364872569775
0.000361772159103
0.000355174575082
0.000338691026926
0.000319592550491
0.000422994060604
0.00100879549401
0.00233393678386
0.00339812312699
0.00304399756058
0.000345072252042
0.000350106410609
0.00035481852356
0.000358572969546
0.000361404199953
0.000363588630544
0.000365197081815
0.000366053466408
0.000365941563293
0.000364887678193
0.000363046785122
0.000360037637652
0.000352900188725
0.000334725488047
0.000320822684595
0.000470696142447
0.00118662199738
0.00262667812307
0.00363996219687
0.00318424688577
0.000337228673214
0.000341922205132
0.000347114111852
0.000352150118588
0.000356633930106
0.000360281644973
0.000362803593127
0.000364023467444
0.000364006141248
0.000363083929557
0.00036146814397
0.000358495360598
0.000350456796099
0.000330302248944
0.00032581343817
0.000536976707508
0.00140362042146
0.00294460406314
0.00389716815461
0.00333491802426
0.000335177079714
0.00033932993907
0.000344427330405
0.000349796093441
0.000354753092206
0.000358711497542
0.000361286983523
0.000362435511925
0.000362422985047
0.000361674718704
0.000360266400057
0.000357131428711
0.000347677234799
0.000325519073797
0.00033710111888
0.00062882199253
0.00166743725911
0.00328949755246
0.00417222057356
0.00349563954248
0.000337667187754
0.000341094328355
0.000345561474599
0.00035042286369
0.00035490477862
0.000358368468216
0.000360501913297
0.000361390026895
0.000361359862315
0.000360768473427
0.000359452197094
0.000355826539672
0.000344255214711
0.000320787231594
0.000358954636386
0.000757018294248
0.00198690414138
0.00366337657769
0.00446569270128
0.00366377694055
0.000342767688045
0.000345360110665
0.000348849653852
0.000352682609802
0.000356168183158
0.000358775609632
0.000360309606427
0.000360913472251
0.000360864552337
0.000360367637635
0.000358953820477
0.000354353560637
0.000339778931954
0.000317371261752
0.000398281839723
0.000936205573319
0.00236996316779
0.00406712572906
0.00477508011084
0.00383500924193
0.000348570282281
0.000350343681183
0.000352779867304
0.000355458401634
0.000357857606616
0.000359605562088
0.000360599426173
0.000360974940321
0.000360904198691
0.000360405576908
0.000358630774713
0.00035236016682
0.000333850251909
0.000318324507734
0.000465766779799
0.00118456411322
0.00281977995914
0.00449730797757
0.00509236122158
0.00400103801653
0.000353784397497
0.000354869464008
0.000356400201255
0.000358089451341
0.000359587538448
0.00036066161842
0.000361260499006
0.000361477886169
0.00036137304241
0.000360755194096
0.000358262816571
0.000349374205584
0.000326596851269
0.00032932814452
0.000574839849282
0.00151632170037
0.00332650740652
0.00494091942438
0.00540159038392
0.00414838676906
0.000357853534585
0.000358432674902
0.00035930263035
0.000360280898135
0.000361150944818
0.000361774883976
0.000362124421434
0.000362244464348
0.000362086003183
0.000361217567468
0.000357578756038
0.000345078394589
0.000319634810732
0.000356858351668
0.000734417322904
0.00192559288664
0.00385766761694
0.00536963731529
0.00567597010576
0.00425260766275
0.000360631738764
0.000360879791762
0.000361323800633
0.000361852454078
0.000362335639181
0.000362692467282
0.000362901872127
0.000362965543833
0.000362737167723
0.000361526904446
0.000356439143632
0.000339968269892
0.000315624262713
0.000400656431026
0.00093217749728
0.00236598706428
0.00435317706979
0.00573560073871
0.00587255178679
0.00426742349095
0.00036205057669
0.000362098206143
0.000362289303063
0.000362556805623
0.000362821948777
0.000363033979217
0.000363172263522
0.000363210373614
0.000362927415075
0.000361450090076
0.000355184869531
0.000335792901886
0.000314525267112
0.000443325918344
0.00111590650043
0.00274368629155
0.00472800330458
0.00596836894832
0.00592589983652
0.00412104995751
0.000361719423247
0.000361648163879
0.00036169633977
0.000361820136136
0.000361968277099
0.000362105347281
0.000362210485007
0.000362254044605
0.000361976538687
0.00036051826097
0.00035409633293
0.000334042543615
0.000312407970603
0.000457577909943
0.00120985939823
0.00294658820066
0.00488489469633
0.00597409692746
0.00574027514381
0.00372303888147
0.000354144766711
0.000353985511545
0.000353946282921
0.000353988092841
0.000354071827759
0.000354171418703
0.000354260730887
0.000354333231176
0.00035415823677
0.000353131793528
0.00034824613099
0.000331884422266
0.000305838596161
0.000415310703372
0.00113288854918
0.00286700900086
0.00471121103368
0.00560866278822
0.00516919080016
0.00300587457439
0.000282310081549
0.000282028246246
0.000281912164349
0.000281894763545
0.000281929112365
0.000281997744538
0.00028205938974
0.000282152692506
0.000282095350748
0.00028177465101
0.00027981826832
0.000273873073129
0.000263434577736
0.000323405281878
0.00086053205083
0.00240172026607
0.00404021017132
0.00464689145863
0.00401282234893
0.00200812913459
0.000164633616197
0.000164497452866
0.000164442590115
0.000164430946892
0.000164441066251
0.000164465390212
0.000164493921524
0.000164539222792
0.000164566457808
0.000164592084049
0.000164474503823
0.000164433149592
0.000167277169465
0.000202539671676
0.000486522411596
0.00151087574226
0.00260659294479
0.00279729876744
0.00218541225448
0.000997081308309
0.000454569253558
0.000140899658961
0.000483954649608
0.000146576097027
0.000504851202566
0.000151709458753
0.000520679733537
0.000156600601778
0.000533964010435
0.000161448525676
0.000546375374664
0.000166337357443
0.000557746512657
0.000171293403591
0.000568677955086
0.000176339056945
0.000579860026529
0.000181464525316
0.000591376676016
0.000186663724287
0.000603401316818
0.000191946749007
0.000616195224215
0.000197321704223
0.000630066348427
0.000202804640254
0.000645315137626
0.000208424084069
0.000662430090817
0.000214212898921
0.000681664753627
0.000220206952223
0.000703448604045
0.000226443659112
0.000728160898732
0.00023295540816
0.000756050831841
0.000239773064968
0.000787461013747
0.000246909392665
0.000821922361353
0.000254363072801
0.000859006311812
0.000262112814347
0.000897167963708
0.000270105792003
0.00093409370408
0.000278229073184
0.000965722176733
0.000286181395081
0.000984248861127
0.000293351228356
0.000978323180623
0.000298653884554
0.000931129016948
0.0003006123695
0.000829147587694
0.000297798467366
0.000677431795122
0.000289241552136
0.000521801039906
0.000272577457342
0.000433909906091
0.000238928916197
)
;

boundaryField
{
    inletfuel
    {
        type            calculated;
        value           nonuniform 0();
    }
    inletair
    {
        type            calculated;
        value           nonuniform 0();
    }
    outlet
    {
        type            calculated;
        value           uniform 0.00045;
    }
    axis
    {
        type            empty;
    }
    leftside
    {
        type            nutkWallFunction;
        Cmu             0.09;
        kappa           0.41;
        E               9.8;
        value           nonuniform List<scalar> 
32
(
1.08382937044e-05
1.16983902773e-05
1.24698193621e-05
1.31994693933e-05
1.39180060352e-05
1.46383245713e-05
1.53645775417e-05
1.61000780622e-05
1.68433307528e-05
1.75934342753e-05
1.83517650641e-05
1.91194035297e-05
1.98985940085e-05
2.06933549145e-05
2.15082633033e-05
2.23482425251e-05
2.32183594459e-05
2.41229289806e-05
2.50660142131e-05
2.60490946414e-05
2.70716159462e-05
2.81302324173e-05
2.92173164418e-05
3.03172032621e-05
3.13887700889e-05
3.23490599627e-05
3.30512480436e-05
3.3295111194e-05
3.2886335e-05
3.16926635317e-05
2.93879643637e-05
2.47082265306e-05
)
;
    }
    burnerwall
    {
        type            nutkWallFunction;
        Cmu             0.09;
        kappa           0.41;
        E               9.8;
        value           nonuniform 0();
    }
    front
    {
        type            wedge;
    }
    back
    {
        type            wedge;
    }
    procBoundary1to0
    {
        type            processor;
        value           nonuniform List<scalar> 
27
(
0.000669298373619
0.000671569203331
0.000676139811776
0.000682065536604
0.000508333308545
0.000393220377007
0.000269874361812
0.000273195200577
0.000325556348992
0.000406786365981
0.000928245004364
0.00069390463869
0.000709150535213
0.000716978300616
0.000712333448155
0.000694292845861
0.000666516024615
0.000634017809217
0.000600781813357
0.000569430424813
0.000540643028059
0.000511899942921
0.000479322513015
0.000440415626691
0.000440415626691
0.000413457360036
0.000134404390046
)
;
    }
}


// ************************************************************************* //
