/*--------------------------------*- C++ -*----------------------------------*\
  =========                 |
  \\      /  F ield         | OpenFOAM: The Open Source CFD Toolbox
   \\    /   O peration     | Website:  https://openfoam.org
    \\  /    A nd           | Version:  7
     \\/     M anipulation  |
\*---------------------------------------------------------------------------*/
FoamFile
{
    version     2.0;
    format      ascii;
    class       volScalarField;
    location    "0.03";
    object      O2;
}
// * * * * * * * * * * * * * * * * * * * * * * * * * * * * * * * * * * * * * //

dimensions      [0 0 0 0 0 0 0];

internalField   nonuniform List<scalar> 
815
(
0.204869387253
0.20486737209
0.204862018588
0.206045285914
0.206048467265
0.20605453825
0.207080076442
0.207089569996
0.207109347753
0.208079964065
0.208095232627
0.20812756407
0.209063060429
0.209083584112
0.209127192976
0.210040918902
0.21006582879
0.210118855326
0.211018752271
0.211047449905
0.211108480484
0.2120027035
0.212034173937
0.21210138882
0.212994702747
0.213028242606
0.213099914493
0.213994978415
0.214029844811
0.214104388104
0.215001194133
0.215036939879
0.215113008118
0.216011635219
0.21604732347
0.216123160356
0.217020190028
0.217055219193
0.217129423748
0.218020555531
0.218054036431
0.218124772524
0.21900209765
0.219033198184
0.219098814004
0.219950842241
0.219978935097
0.220037976429
0.22085013149
0.220874456611
0.220925613536
0.221679143803
0.2216994316
0.221742075082
0.222417825871
0.222433997446
0.222467983894
0.223049129137
0.223061400993
0.223087222997
0.223563222486
0.223572105843
0.223590793075
0.223960289473
0.223966415654
0.223979296496
0.224250257566
0.224254280941
0.224262748003
0.22445021014
0.224452735997
0.22445805623
0.22458044004
0.22458195722
0.22458515747
0.224660597201
0.224661475391
0.224663327488
0.224707314992
0.224707800916
0.224708825069
0.224732997528
0.224733252351
0.224733789914
0.224746079744
0.224746205804
0.22474647245
0.224751896799
0.224751956405
0.224752083386
0.224753721438
0.224753750853
0.224753814095
0.204853367261
0.206061800985
0.207135665068
0.208171260763
0.209186572152
0.2101912988
0.211191864072
0.212193094721
0.213197679185
0.214206019134
0.215216660406
0.216226473229
0.217230400568
0.218221012807
0.219188106872
0.220118348775
0.220995345953
0.221800244857
0.222514371608
0.223122474874
0.223616303384
0.223996879193
0.22427430526
0.224465318208
0.22458952657
0.224665852539
0.22471021897
0.224734521117
0.224746835471
0.224752256598
0.224753900576
0.2024447438
0.209325614966
0.217272955859
0.221768984905
0.222617862866
0.219875482066
0.212678870114
0.204827911251
0.204745868843
0.204585571999
0.204320486854
0.203939097397
0.203463023098
0.202952491449
0.2024943498
0.202198335922
0.202233812813
0.202819458043
0.204169892224
0.206459575586
0.210080096902
0.215055641743
0.220080640185
0.222510961618
0.222297883213
0.219012292071
0.212062804592
0.206073087125
0.206074081128
0.206040304591
0.20595375042
0.205812867126
0.205649694978
0.205535886846
0.205567164684
0.205848173057
0.206508425626
0.207697698447
0.209530293867
0.212018891888
0.215157679642
0.218667628984
0.221721736161
0.222856102947
0.221900151605
0.218215305767
0.211536919547
0.207189027697
0.207279787054
0.207375304128
0.20746206086
0.207544001954
0.207657652499
0.207876523142
0.208292506588
0.208991893034
0.210054812094
0.211557025022
0.213528026323
0.215887780692
0.218462042356
0.220899118548
0.222660828278
0.222961459833
0.221479084038
0.217488392191
0.211061504137
0.208262651461
0.208434014409
0.208644516369
0.208883058691
0.209155321415
0.209495947125
0.209972598259
0.210666242773
0.211641252329
0.212933014532
0.2145518386
0.216463131692
0.218543717018
0.220577116147
0.222244712953
0.223182560087
0.222937863739
0.221071440999
0.216836313032
0.210609880301
0.209311391804
0.209552106157
0.209860248022
0.21022593015
0.210653965129
0.211173434879
0.211841253673
0.212722764823
0.213860416913
0.215254576327
0.216866820696
0.218619284627
0.220376111704
0.221936534561
0.223051562889
0.223464724334
0.222852596959
0.220688295223
0.216238406719
0.210165070326
0.21034404659
0.210642564608
0.211031284031
0.211500068513
0.212050946609
0.212705131271
0.213505708576
0.214500430886
0.215712161991
0.217117191857
0.218647034482
0.220200604835
0.221645753517
0.222818541904
0.223537976622
0.223613140981
0.222745909087
0.220331968151
0.215677117668
0.20971837934
0.211367577502
0.211712567491
0.21216513435
0.212714093359
0.21335744487
0.214107601771
0.214992838829
0.2160431872
0.217264636989
0.218618422725
0.220021943763
0.221367006381
0.2225344655
0.22340053479
0.223837780918
0.223689386695
0.222633907175
0.219991787152
0.215134024265
0.209262535705
0.212386434907
0.212767140129
0.213267765452
0.213875577468
0.214583810492
0.215395855018
0.216325732678
0.217387052541
0.218571981862
0.219833591456
0.221087098085
0.22222931959
0.22315947214
0.223789360507
0.224027566071
0.223727199748
0.222520818962
0.219652668243
0.214591694632
0.208788439011
0.213403526537
0.213809687853
0.214343616028
0.214990501138
0.215738634775
0.216582819856
0.217524376728
0.218562903338
0.219679936831
0.220825398877
0.221919796793
0.222872617696
0.223604179901
0.224053170398
0.224150734866
0.223743098447
0.222403751166
0.219299637189
0.214037619909
0.208285501539
0.214419693185
0.214841539515
0.215394948076
0.216062618414
0.21682802658
0.217678188489
0.2186037945
0.219593413173
0.220621384214
0.22163833158
0.222574417948
0.223355891433
0.223923496719
0.224234988404
0.224232300401
0.223744176156
0.222274954688
0.21891748003
0.213463653367
0.207740185853
0.215433779696
0.215861887441
0.216421617257
0.217093088737
0.217855314366
0.218688641094
0.219575408947
0.220496321323
0.221421909831
0.222306389026
0.223091821134
0.223721905776
0.224154937668
0.224361780367
0.224286327802
0.223731114038
0.222122440177
0.21849056993
0.212860929066
0.207139898741
0.216442433258
0.216867532009
0.217421007963
0.218080479763
0.218821097469
0.21961790185
0.220447240037
0.221284938487
0.222100767017
0.22285475116
0.223501462095
0.224000349898
0.224323735444
0.224450519707
0.22432007601
0.223701384357
0.221933503421
0.218007772144
0.212218693099
0.206474424542
0.217440687038
0.217853589941
0.218388642718
0.219021354666
0.219723863604
0.220467462007
0.221224803664
0.221969591114
0.222673303244
0.223303070386
0.223825176134
0.224212122069
0.224446852996
0.22451198095
0.224337084778
0.223650105147
0.221695310471
0.217459986748
0.21152620386
0.205736432685
0.218420910769
0.218812637336
0.219317746744
0.219910247166
0.220560308214
0.221237164819
0.221911979445
0.222558668053
0.22315211176
0.223666797829
0.22407916636
0.224372099965
0.224535871218
0.224553087232
0.224338855877
0.223571705438
0.22139622056
0.216840245688
0.210774866273
0.204921578932
0.219373153433
0.219735226168
0.22019980802
0.220740244853
0.221325987897
0.221925940283
0.222511764286
0.223059335702
0.223547802571
0.223958425008
0.224276034511
0.224491385668
0.224599046703
0.224578289644
0.224325223263
0.223460354972
0.221026650902
0.216145547142
0.209959808972
0.204028242458
0.220284568518
0.220609463943
0.221024415956
0.22150313158
0.222015698012
0.22253230613
0.22302671131
0.223477827383
0.223869224347
0.224188093473
0.224425808026
0.224578522134
0.224642383862
0.224590406701
0.224295092377
0.223308637433
0.220576496307
0.21537400901
0.209077497565
0.203056703907
0.221139551565
0.221421355964
0.221779808482
0.222190085452
0.222624239955
0.223055097812
0.223459608113
0.223820249764
0.224124696084
0.224364910044
0.224537014756
0.224640366265
0.224670307456
0.224590986721
0.22424603864
0.223108241049
0.22003765188
0.214525997923
0.208125997553
0.202008730581
0.221920592947
0.22215576719
0.222453922027
0.222792780874
0.223147506118
0.223494492837
0.223814406667
0.224093294548
0.224322380809
0.224497220609
0.224617048619
0.224682480986
0.224686057493
0.224580496567
0.224174323779
0.222849183809
0.219402168517
0.213600792585
0.207103336118
0.200886911835
0.222610519892
0.222798507242
0.22303631898
0.223305041877
0.223583700238
0.223852710487
0.224096499618
0.224304386799
0.224470474995
0.224592855264
0.224672428436
0.224709407096
0.224691827845
0.224558285267
0.22407399458
0.222517634243
0.218660614392
0.212595566402
0.206006346957
0.199694374297
0.223195761563
0.223339217821
0.22352051462
0.223724495443
0.223934329601
0.224134476537
0.224312873212
0.224461680551
0.22457722756
0.224659170831
0.22470884552
0.224724750019
0.224688918457
0.22452226397
0.223936171226
0.222095532725
0.217800811138
0.211504569074
0.20483350744
0.198438422333
0.223669508805
0.223773828183
0.223905659185
0.224053533365
0.224204616486
0.224347112889
0.224472066707
0.224573998667
0.224650824986
0.224702931519
0.224731119085
0.224731144029
0.22467733955
0.224467714576
0.223745229028
0.22155488526
0.216806598456
0.21031987069
0.203586113296
0.197134457558
0.224033666965
0.224105933201
0.224197301078
0.224299550039
0.224403375076
0.224500238
0.224583794786
0.22465041131
0.224699014887
0.224730059496
0.22474309471
0.224730204776
0.224655686018
0.224386587261
0.223477901692
0.220861595564
0.215663411732
0.209039318477
0.202280387749
0.195815607363
0.224298557875
0.224346295065
0.224406676961
0.22447409685
0.224542136741
0.22460491889
0.22465817485
0.224699616963
0.224728691001
0.224745428946
0.224747583265
0.224722461287
0.224620581355
0.224265612428
0.223101305604
0.21997937337
0.214370165344
0.207681320809
0.200959030432
0.194539411443
0.224480593072
0.224510712988
0.224548806177
0.224591226776
0.224633757105
0.224672558043
0.224704895904
0.224729375664
0.22474558303
0.224752789974
0.224746431717
0.224707475112
0.224566941758
0.224087766471
0.222581804341
0.218896678382
0.212966753158
0.206309452265
0.199709049903
0.193392819121
0.224598737112
0.224616920047
0.224639896015
0.224665401461
0.224690791584
0.224713682657
0.224732393957
0.224746053497
0.224754126176
0.224754884903
0.224740922778
0.224684931036
0.224491386356
0.223843613315
0.221916051899
0.217673413173
0.211567959699
0.205057186217
0.19866993684
0.192483192584
0.224671183859
0.224681701847
0.22469497406
0.224709654343
0.224724162176
0.224737077415
0.224747391918
0.224754491711
0.224757581528
0.224753846795
0.224732784393
0.224657621521
0.224401529324
0.223557223906
0.221182358422
0.216483948629
0.210378533792
0.204126820672
0.198014051838
0.191909883254
0.22471317194
0.224718999068
0.224726345528
0.224734444545
0.224742392467
0.224749372377
0.224754777106
0.224758104591
0.224758309885
0.224751726185
0.224725467761
0.224635315487
0.22432826408
0.22331715359
0.220577047593
0.215606606285
0.209659640111
0.203742662556
0.197900712919
0.191724364416
0.224736080264
0.224739168079
0.224743062678
0.22474734663
0.224751523491
0.224755136917
0.224757814071
0.224759122871
0.224757928011
0.224750318201
0.224722923381
0.224630025635
0.224309993182
0.223232323152
0.220320279027
0.215296471577
0.209620497167
0.204057152011
0.198399646633
0.191877325199
0.2247476174
0.224749177082
0.224751149091
0.224753316935
0.224755419611
0.22475721013
0.224758461732
0.224758835903
0.224757354839
0.224750708183
0.224727825093
0.224651205002
0.224383723247
0.223421281736
0.220615998982
0.21571878275
0.210340787206
0.205068126032
0.199429375213
0.192203321579
0.224752633507
0.224753389818
0.224754347759
0.224755399511
0.224756413541
0.224757261268
0.224757812088
0.224757835029
0.224756632477
0.224751863625
0.224735850051
0.22468328601
0.224503255109
0.223818460732
0.221492322528
0.216929607748
0.211758367522
0.206555606617
0.200673476662
0.192464335067
0.224754089706
0.224754469221
0.224754948054
0.22475546986
0.22475596667
0.224756371271
0.224756610633
0.224756536962
0.224755681864
0.224752451666
0.224741595381
0.22470595848
0.224586083095
0.224136114001
0.222421314082
0.218352293001
0.213187467364
0.207774890474
0.201498473075
0.192500161325
0.205494753398
0.20301097111
0.205931747298
0.203661982181
0.206116662973
0.20401972837
0.206125208375
0.204162592217
0.206012794199
0.204153032386
0.205812308815
0.20403036032
0.205538633216
0.203815014625
0.205199653284
0.20351600644
0.204796174404
0.203135301676
0.20432435875
0.202671493707
0.203778312763
0.202121336261
0.203152164145
0.201481289981
0.20244161521
0.200749126857
0.201644454043
0.199924383452
0.200760676681
0.199008486334
0.19979166657
0.198004016962
0.198740017142
0.196914395376
0.197608874226
0.19574330613
0.196401701384
0.194494425683
0.195122514828
0.193172120571
0.193777954875
0.191782610801
0.192381948746
0.190338583716
0.19096034767
0.188861620366
0.189553059706
0.187382275769
0.188209006742
0.185931706558
0.186971836064
0.184526385637
0.185858773592
0.183155108241
0.184845115391
0.18178085014
0.183879843992
0.180391463168
0.182951711565
0.179088627638
0.182170281048
0.17811324423
0.181752551931
0.177676272233
)
;

boundaryField
{
    inletfuel
    {
        type            fixedValue;
        value           nonuniform 0();
    }
    inletair
    {
        type            fixedValue;
        value           nonuniform 0();
    }
    outlet
    {
        type            zeroGradient;
    }
    axis
    {
        type            empty;
    }
    leftside
    {
        type            zeroGradient;
    }
    burnerwall
    {
        type            zeroGradient;
    }
    front
    {
        type            wedge;
    }
    back
    {
        type            wedge;
    }
    procBoundary1to0
    {
        type            processor;
        value           nonuniform List<scalar> 
27
(
0.202589283275
0.202601614315
0.20262511568
0.202652620293
0.191425738707
0.200447436218
0.212597903067
0.220397300058
0.222785329271
0.220784271466
0.2134336292
0.202697251367
0.202704686602
0.202600072713
0.202322007064
0.201826156397
0.201106057712
0.200197675359
0.19917057032
0.198129371479
0.197264615923
0.196842656086
0.197168880472
0.198645092995
0.198645092995
0.204741811158
0.202009852539
)
;
    }
}


// ************************************************************************* //
