/*--------------------------------*- C++ -*----------------------------------*\
  =========                 |
  \\      /  F ield         | OpenFOAM: The Open Source CFD Toolbox
   \\    /   O peration     | Website:  https://openfoam.org
    \\  /    A nd           | Version:  7
     \\/     M anipulation  |
\*---------------------------------------------------------------------------*/
FoamFile
{
    version     2.0;
    format      ascii;
    class       volScalarField;
    location    "0.03";
    object      one_over_tauStar;
}
// * * * * * * * * * * * * * * * * * * * * * * * * * * * * * * * * * * * * * //

dimensions      [0 0 -1 0 0 0 0];

internalField   nonuniform List<scalar> 
815
(
73.5036803015
73.7760749886
74.3283799788
72.767486853
73.0676683503
73.6766303545
72.1406030395
72.4569091899
73.0965825491
71.3038734834
71.633997866
72.2999922655
70.3369678545
70.6798250848
71.3701531154
69.2623176045
69.614396838
70.3247057159
68.1032215874
68.4606006778
69.18317256
66.8371808277
67.1970279242
67.9255220835
65.4635653647
65.8194966353
66.5447249011
63.962661159
64.3097945654
65.0224534041
62.3214209215
62.6519692327
63.3394984638
60.5015642814
60.8101335482
61.4605348255
58.4908591179
58.7681920249
59.3643950091
56.2528197651
56.4916084437
57.019009431
53.7713219405
53.9658808281
54.4106855289
51.041563387
51.1858873214
51.5362255014
48.0787073836
48.1749748858
48.4284555369
44.965407518
45.0157581938
45.174830178
41.8366508855
41.8493127688
41.9268288621
38.89049127
38.8762450364
38.8911162104
36.3348446324
36.3045440035
36.2780195007
34.3177470675
34.2802860475
34.2304609172
32.8783580346
32.8397787001
32.7797659871
31.9536402033
31.9162128734
31.8524053158
31.4154838251
31.3798718969
31.3155236076
31.1243014486
31.0899250344
31.0256141233
30.9621229281
30.9283789656
30.8633746295
30.8822365013
30.8489014664
30.7824547548
31.3709924048
31.3441261803
31.2801774635
40.3361857314
40.4022653336
40.4052716214
114.607660332
114.924181424
115.108850552
75.0299224987
74.4518484539
73.9075805663
73.1395755125
72.233002711
71.2057926709
70.0725029847
68.8154067573
67.4228287862
65.8767932226
64.1551452631
62.223760133
60.0573687356
57.6269424664
54.9195116561
51.936442398
48.7183621508
45.3603683214
42.0239187375
38.9221032372
36.2668366835
34.1973680185
32.7385715604
31.8099411222
31.2744831425
30.9863391977
30.8250248933
30.7440307003
31.243102698
40.4005279983
115.19057837
94.2532401736
87.407706634
65.1735308085
48.996996372
54.5531981584
78.4633547325
106.862312106
76.3407356433
77.9813302401
79.0804072755
79.6691230977
80.0270398938
80.4440413855
81.0566337512
81.8403317976
82.674032652
83.6477037036
84.7876161688
85.7265658083
85.621306452
82.7169387254
72.2337212705
53.9888609998
47.5029353885
59.2720913867
81.6710915683
106.883395714
75.8747979964
77.631149859
78.7698312336
79.3146217724
79.5358747289
79.6977582707
79.9166777057
80.161862612
80.2804684435
80.2583470523
80.0501375229
79.1499175219
76.4352307081
70.4052227031
58.9537299699
47.1518679554
48.1138434676
63.0869902009
83.2259633609
105.968144769
75.365699028
77.1109308183
78.1602304395
78.5391890745
78.5203508316
78.3542978965
78.1334253592
77.7921266762
77.1394416468
76.0089940706
74.2625427246
71.4659519192
66.6077598533
58.9700891772
49.2194456583
43.7236473167
49.7178981012
65.8133210766
83.7990882503
104.62047014
74.6181372846
76.3276232424
77.2639990477
77.460465268
77.1885690175
76.6785413922
75.9896951117
75.0145827741
73.5089002464
71.220932962
67.985472896
63.5415019762
57.4316016999
49.8370709333
43.0695132558
42.3979406557
51.5230600303
67.6263702619
83.8711033875
103.175940677
73.7197023115
75.3784978518
76.1791171143
76.1602375926
75.597732756
74.7058268356
73.5049415263
71.8552148746
69.4933553384
66.141033016
61.6706044382
56.1229528358
49.7109370162
43.3275374193
39.5730978888
42.1792299555
53.2123399435
68.8525878919
83.8191339781
101.812471844
72.6934106789
74.2844756516
74.928246134
74.6688671619
73.788771643
72.4947855724
70.7766824973
68.4663711085
65.3124307462
61.0906469819
55.7948296196
49.7911540329
43.8043035873
39.0704306438
37.726699969
42.4721060663
54.6628173892
69.7323901009
83.8480552535
100.620416044
71.5427531668
73.0477077628
73.5168018326
72.9940499763
71.7729498669
70.0624087333
67.8380963881
64.9182475877
61.0948290296
56.258334002
50.5830373331
44.6979342068
39.5740333434
36.4122989355
36.7924640363
42.9752766329
55.9366387183
70.4894816954
84.0915934183
99.651353382
70.2560922564
71.6515693289
71.9261543293
71.1218830966
69.5437161306
67.4158766058
64.7205594394
61.2857185399
56.9669078273
51.7997196838
46.1476860649
40.7865500377
36.6911951983
34.8006316545
36.3397335131
43.5648089122
57.1171185306
71.2747901719
84.6095793385
98.9142813687
68.8147508991
70.0786965787
70.1431464411
69.049161343
67.1107553527
64.5778899011
61.4624993696
57.629258572
53.0105950612
47.7856208448
42.4674576986
37.8563997856
34.7627744809
33.8256786804
36.1496467621
44.2230572964
58.2916561228
72.184792767
85.3983909037
98.3863696371
67.1981468984
68.307379406
68.1505619182
66.7675608216
64.4810422222
61.5729995042
58.1063690807
54.0070900736
49.29171619
44.2553094373
39.4874941442
35.7067557097
33.4829147789
33.2292959004
36.1192064876
44.9849597255
59.5393123398
73.2848258808
86.4172642985
98.0643946445
65.3818380524
66.3145971261
65.9320486405
64.2736459999
61.669960114
58.4376690735
54.7055227139
50.4784561339
45.856629494
41.2081871996
37.1156020251
34.1454218357
32.629373987
32.8635810264
36.2188227747
45.9211892882
60.9321456572
74.6171983654
87.6209528299
97.9412956432
63.3356921246
64.0737101102
63.469163852
61.5635993109
58.6948098907
55.2143759915
51.3216829458
47.1089673941
42.7493086569
38.6325150158
35.2617898451
33.021582459
32.0564585702
32.65116637
36.4645088278
47.1054304573
62.508424635
76.1898820524
88.9693127702
98.0074115331
61.031551935
61.5615788425
60.7486536139
58.6397967834
55.579178823
51.9508389768
48.0216989662
43.9657943031
40.0063375478
36.5052668644
33.8407941347
32.2206486438
31.6733861159
32.5581575847
36.8945834099
48.605160519
64.2853290791
78.0012282106
90.4332551397
98.2564259269
58.4475505645
58.7646300495
57.7686109305
55.5153921292
52.3555392086
48.7001196866
44.872509631
41.109146606
37.6513797799
34.7950733265
32.7763061834
31.6577560957
31.4243078109
32.5744569421
37.5558330763
50.4549762525
66.2574541144
80.0392443682
91.9868328851
98.6814973178
55.5733287538
55.6821330105
54.5419568281
52.2196629371
49.0704623622
45.52384303
41.9397978528
38.5877444083
35.6930483399
33.4628732213
31.9998514113
31.2701707243
31.2753046688
32.7057963042
38.5056576666
52.6491406118
68.4128536011
82.2882598074
93.6116533598
99.2779493883
52.419988728
52.3398938186
51.1096683301
48.8087031504
45.7925160087
42.4951192189
39.2869509275
36.4360997192
34.1238660244
32.4624447348
31.4507789696
31.0114848866
31.2080263259
32.9700830348
39.8023791301
55.1629601462
70.7561552497
84.7339706441
95.299296497
100.050581462
49.0381254977
48.8029003512
47.551181216
45.3735245599
42.616373832
39.6987875206
36.9719959709
34.6711748481
32.9169538109
31.7399104394
31.075712306
30.848501368
31.2153447025
33.3980835043
41.5118468102
57.9463785294
73.2902978751
87.3535783374
97.0479013142
101.006856228
45.5345860895
45.1935591122
43.9987153744
42.0475500007
39.6626929529
37.2250927709
35.0395991674
33.2882171848
32.0303859138
31.2406234194
30.8306762445
30.7588052808
31.2999916346
34.0377866433
43.6991088088
60.9447679513
76.0323761928
90.1310979431
98.8668912027
102.1644599
42.0827384359
41.6948194453
40.6332109142
38.9944517095
37.0604550547
35.152654215
33.5119418737
32.2614586025
31.4125721047
30.9130842443
30.6811913971
30.7294874525
31.4776016082
34.9630101973
46.4325268011
64.1280855463
79.0136830531
93.0574927403
100.77941611
103.55891007
38.9025631391
38.5251475642
37.6538634472
36.3753481386
34.9169857063
33.5277592655
32.3800711577
31.5459312411
31.0081956894
30.7126386651
30.6022594133
30.7564343157
31.7787160693
36.2888551071
49.7671198907
67.4950619387
82.2795896664
96.1314672172
102.833264618
105.234843296
36.2052227409
35.8812885074
35.2240614612
34.3031737363
33.2858994065
32.3483668346
31.6022438459
31.0833266565
30.7641702504
30.6035473049
30.5780597307
30.8474449431
32.268405864
38.2095096913
53.7650758715
71.1041042315
85.8892538523
99.3696181112
105.10303502
107.260987818
34.1223067054
33.8727871256
33.4173938718
32.8059300697
32.1502813103
31.5641608837
31.1130648148
30.8119201442
30.6349879999
30.5602324676
30.6025461394
31.0270664774
33.0634984115
40.9971621691
58.412836024
75.0300861848
89.8966625873
102.809655906
107.690020331
109.693775966
32.6671574027
32.4917728413
32.2006752652
31.8252953283
31.4336412584
31.0931318608
30.8387154231
30.6757357297
30.5854751684
30.5663808657
30.6795920493
31.3458647072
34.3654062838
44.9651177671
63.5797258179
79.3567055647
94.3305349578
106.504052239
110.717427607
112.566450078
31.7486420912
31.633913655
31.4609476526
31.2466923011
31.028726597
30.844115751
30.7098527451
30.6281401183
30.5889542267
30.6121328208
30.8219687319
31.8846241989
36.4435479632
50.2068081056
68.9673931691
84.0931645464
99.147368721
110.506072148
114.309509857
115.819057626
31.2231733086
31.1513335266
31.0548327582
30.9404726586
30.8269935909
30.7334408428
30.6674037902
30.6310863176
30.6230857443
30.687813524
31.0398274633
32.7151865842
39.4350167207
56.1703606815
74.1675277251
89.0992680102
104.195819604
114.855274869
118.569629544
119.279743779
30.9425180191
30.897762625
30.8465876157
30.7894528037
30.7342729577
30.6903824333
30.6609352506
30.6492936319
30.6620685122
30.7714175743
31.3027171338
33.7519816123
42.8879885459
61.6380502393
78.7459050174
94.0304968706
109.230751935
119.557407817
123.5609841
122.723132527
30.7856508557
30.7563507801
30.7300165352
30.7034429737
30.6788576152
30.6605635648
30.6497973012
30.6512332021
30.676523557
30.820451121
31.4924909972
34.5591649585
45.4931343901
65.3123785499
82.2179102181
98.3739650649
113.970366168
124.545154413
129.281458061
125.937469348
30.7063952952
30.6849225936
30.6712641877
30.6599745649
30.6504380768
30.644480444
30.6423365374
30.6499735827
30.6774846293
30.8250643876
31.4988261723
34.6292860932
46.0103634183
66.5573064833
84.1443099144
101.606408034
118.138522123
129.645984944
135.673637817
128.999113075
31.2072430413
31.1898338769
31.1822045612
31.177609611
31.173999683
31.1726761444
31.1720877661
31.1797018073
31.198277953
31.3072984194
31.7945257803
34.1311131324
43.5451867053
64.2292645038
83.7368424747
103.173683947
121.368714169
134.422687976
142.538426382
132.608711131
40.3944916132
40.3940789001
40.3952482605
40.3953130383
40.3935239293
40.3919060083
40.3908220895
40.3927477165
40.4068465346
40.4671468737
40.7566220466
41.9975745454
47.1574006885
61.9109230591
81.0712611852
102.565151904
123.397071153
138.691821517
149.814095121
139.351532022
115.26542599
115.315425451
115.342906915
115.352461109
115.362499533
115.361205764
115.37750118
115.375502184
115.420048891
115.45067056
115.670766507
116.078681529
117.005796021
114.737446218
103.580955019
109.025165144
128.409757455
145.380080089
159.866132459
158.271407196
188.90747958
451.30210936
187.750241625
469.503130906
187.034541823
485.946530046
186.981140434
501.597310149
187.643902448
517.093760474
188.906469313
532.70676002
190.875039768
548.5241083
193.41736824
564.614133312
196.292025417
580.944921239
199.446837957
597.496332097
202.855740829
614.298066227
206.460972476
631.374790864
210.219149489
648.77655773
214.116199647
666.593131589
218.105365437
684.928157811
222.210067291
703.894860034
226.41741997
723.611682248
230.725610745
744.182095474
235.16235415
765.705592089
239.698872274
788.223892604
244.439286594
811.732474314
249.388504973
836.161572634
254.634192722
861.340682856
260.112200241
886.911653887
265.538659916
911.922377589
270.451215427
934.436911225
273.959099585
951.004539983
275.477709181
956.897110022
274.788365433
947.544382856
272.328696246
920.016054752
264.782456016
867.266286591
241.422856735
761.501655037
)
;

boundaryField
{
    inletfuel
    {
        type            calculated;
        value           nonuniform 0();
    }
    inletair
    {
        type            calculated;
        value           nonuniform 0();
    }
    outlet
    {
        type            calculated;
        value           uniform 200;
    }
    axis
    {
        type            empty;
    }
    leftside
    {
        type            calculated;
        value           nonuniform List<scalar> 
32
(
451.30210936
469.503130906
485.946530046
501.597310149
517.093760474
532.70676002
548.5241083
564.614133312
580.944921239
597.496332097
614.298066227
631.374790864
648.77655773
666.593131589
684.928157811
703.894860034
723.611682248
744.182095474
765.705592089
788.223892604
811.732474314
836.161572634
861.340682856
886.911653887
911.922377589
934.436911225
951.004539983
956.897110022
947.544382856
920.016054752
867.266286591
761.501655037
)
;
    }
    burnerwall
    {
        type            calculated;
        value           nonuniform 0();
    }
    front
    {
        type            wedge;
    }
    back
    {
        type            wedge;
    }
    procBoundary1to0
    {
        type            processor;
        value           nonuniform List<scalar> 
27
(
80.332084433
80.3996686979
80.5438375627
80.7143619594
103.465566699
101.849055047
79.9257101274
54.1036189067
49.9005362928
72.9258065299
105.341842997
80.9904245628
81.1216457402
80.9352284893
80.6229036715
80.5061648308
80.8170128415
81.6270777348
82.8320308584
84.2721818258
86.0272067831
88.1885675324
90.6148423933
93.1798344086
93.1798344086
190.256691133
430.474139631
)
;
    }
}


// ************************************************************************* //
