/*--------------------------------*- C++ -*----------------------------------*\
  =========                 |
  \\      /  F ield         | OpenFOAM: The Open Source CFD Toolbox
   \\    /   O peration     | Website:  https://openfoam.org
    \\  /    A nd           | Version:  7
     \\/     M anipulation  |
\*---------------------------------------------------------------------------*/
FoamFile
{
    version     2.0;
    format      ascii;
    class       volScalarField;
    location    "0.03";
    object      p;
}
// * * * * * * * * * * * * * * * * * * * * * * * * * * * * * * * * * * * * * //

dimensions      [1 -1 -2 0 0 0 0];

internalField   nonuniform List<scalar> 
815
(
102804.177992
102804.182047
102804.181461
102800.121101
102800.12618
102800.127885
102795.969849
102795.974524
102795.977438
102790.803544
102790.808677
102790.810384
102784.711928
102784.717006
102784.718122
102777.885306
102777.889835
102777.889408
102770.347845
102770.35164
102770.349728
102761.669717
102761.673366
102761.673797
102751.758127
102751.762247
102751.762807
102741.015087
102741.018033
102741.016634
102728.369577
102728.372825
102728.369752
102713.269861
102713.272088
102713.268532
102696.011332
102696.013776
102696.01025
102677.029979
102677.032321
102677.028773
102656.331404
102656.333388
102656.329794
102633.665767
102633.667777
102633.663542
102608.417605
102608.418664
102608.413806
102579.549142
102579.550066
102579.544878
102546.427582
102546.428279
102546.422911
102508.498632
102508.499026
102508.493601
102464.00608
102464.006497
102464.000976
102410.79822
102410.798397
102410.792379
102346.857935
102346.857486
102346.850489
102269.509054
102269.508422
102269.500804
102176.357722
102176.357513
102176.350712
102067.920413
102067.920906
102067.916082
101946.684198
101946.684703
101946.680494
101816.430315
101816.430326
101816.426093
101681.258586
101681.258149
101681.254399
101541.229313
101541.228491
101541.225596
101396.595534
101396.595339
101396.594346
102804.181126
102800.128902
102795.981202
102790.812331
102784.720225
102777.889244
102770.347368
102761.673653
102751.763729
102741.014727
102728.366297
102713.263774
102696.005608
102677.0242
102656.32508
102633.658166
102608.407366
102579.538051
102546.41588
102508.486476
102463.993818
102410.784502
102346.841082
102269.490542
102176.341731
102067.909765
101946.674938
101816.420436
101681.249236
101541.221405
101396.59392
102807.330984
102807.450221
102807.884664
102807.872915
102808.471621
102808.224386
102808.747352
102804.176457
102804.154745
102804.123321
102804.085854
102804.054022
102804.036762
102804.051283
102804.099436
102804.196431
102804.309244
102804.503316
102804.664177
102804.741071
102804.879294
102804.630394
102805.157309
102804.774216
102805.218994
102804.94994
102805.382429
102800.136141
102800.153736
102800.188431
102800.247143
102800.329849
102800.439822
102800.57286
102800.715027
102800.895782
102801.06446
102801.256516
102801.473186
102801.631386
102802.091521
102801.189074
102801.61287
102801.048524
102801.313116
102800.584537
102801.146183
102795.991777
102796.020799
102796.062897
102796.121294
102796.196023
102796.2873
102796.395581
102796.520506
102796.663908
102796.816977
102796.970269
102797.095023
102797.140265
102797.344334
102796.956725
102797.260946
102796.907766
102796.712751
102795.885975
102796.426098
102790.819614
102790.840815
102790.871074
102790.9134
102790.967228
102791.031983
102791.106989
102791.191774
102791.288308
102791.393735
102791.498481
102791.582016
102791.611742
102791.584416
102791.514109
102791.529876
102791.599012
102791.424497
102791.273121
102791.417861
102784.725787
102784.744418
102784.770227
102784.807225
102784.853976
102784.909863
102784.973407
102785.042504
102785.115694
102785.189993
102785.259571
102785.306414
102785.305193
102785.131779
102785.041482
102785.029112
102784.983398
102784.675624
102785.122109
102785.328158
102777.890448
102777.900304
102777.912831
102777.933
102777.959334
102777.991792
102778.028236
102778.065029
102778.09745
102778.119895
102778.130212
102778.124759
102778.113046
102778.023153
102777.984707
102778.036017
102777.952398
102778.081907
102778.059183
102778.277857
102770.343533
102770.340922
102770.335327
102770.329425
102770.320546
102770.308737
102770.29075
102770.264216
102770.221299
102770.152688
102770.058704
102769.971109
102770.059751
102770.110918
102770.141282
102770.141212
102770.054764
102770.201028
102770.228269
102770.383703
102761.674901
102761.683598
102761.692761
102761.708237
102761.725063
102761.744975
102761.76208
102761.775999
102761.783471
102761.791728
102761.809715
102761.838218
102761.812017
102761.771479
102761.715815
102761.48864
102761.193523
102761.195885
102761.156028
102761.183969
102751.765087
102751.777252
102751.789695
102751.812049
102751.83815
102751.872477
102751.908261
102751.943956
102751.968311
102751.976623
102751.961045
102751.934209
102751.780273
102751.524224
102751.270295
102751.10184
102750.921844
102750.886379
102750.745701
102750.732741
102741.010664
102741.010218
102741.003729
102740.99826
102740.985835
102740.968656
102740.939138
102740.896003
102740.832596
102740.750072
102740.669736
102740.479288
102740.262643
102739.999581
102739.704709
102739.473173
102739.174997
102739.054242
102738.869051
102738.867571
102728.357367
102728.345918
102728.322109
102728.292027
102728.24601
102728.185078
102728.100928
102727.992673
102727.857232
102727.716273
102727.497924
102727.231576
102726.961134
102726.663746
102726.334522
102726.092793
102725.716322
102725.575163
102725.325423
102725.286974
102713.253005
102713.236635
102713.206377
102713.16727
102713.110451
102713.036701
102712.93882
102712.81693
102712.678266
102712.496375
102712.246465
102711.983771
102711.713201
102711.425406
102711.087982
102710.859891
102710.44914
102710.331043
102710.029837
102709.975178
102695.994633
102695.977334
102695.946182
102695.90634
102695.849852
102695.778412
102695.686619
102695.578711
102695.452489
102695.272929
102695.062005
102694.847234
102694.624801
102694.392586
102694.087357
102693.905404
102693.49655
102693.419305
102693.082519
102693.030712
102677.013211
102676.996594
102676.966614
102676.929237
102676.87708
102676.813256
102676.734225
102676.650079
102676.534582
102676.387487
102676.227371
102676.066224
102675.897811
102675.720889
102675.444006
102675.306993
102674.892445
102674.827931
102674.448275
102674.390362
102656.313885
102656.296653
102656.266181
102656.228415
102656.176723
102656.115001
102656.043884
102655.957968
102655.843415
102655.711823
102655.57158
102655.429221
102655.277226
102655.11867
102654.836744
102654.685857
102654.262651
102654.183327
102653.763552
102653.695212
102633.644991
102633.623349
102633.586193
102633.53917
102633.4756
102633.400059
102633.310394
102633.194718
102633.052024
102632.892182
102632.717315
102632.531612
102632.326613
102632.111324
102631.782089
102631.555992
102631.104359
102630.953409
102630.486343
102630.389005
102608.392122
102608.365379
102608.32086
102608.263234
102608.185814
102608.093546
102607.973577
102607.822144
102607.63948
102607.431181
102607.193331
102606.926869
102606.621496
102606.288077
102605.861961
102605.476859
102604.945222
102604.643311
102604.101245
102603.942352
102579.521916
102579.492577
102579.444693
102579.382154
102579.298912
102579.194333
102579.056809
102578.887082
102578.681795
102578.441895
102578.157585
102577.827327
102577.437714
102576.987195
102576.464831
102575.892481
102575.259828
102574.775868
102574.140191
102573.897909
102546.399465
102546.368975
102546.320293
102546.256527
102546.171929
102546.061208
102545.917328
102545.739687
102545.521067
102545.259287
102544.940324
102544.562036
102544.104832
102543.556999
102542.962217
102542.213674
102541.483595
102540.812679
102540.088816
102539.751688
102508.470169
102508.439234
102508.390403
102508.324798
102508.234445
102508.114948
102507.95977
102507.765639
102507.522154
102507.224371
102506.855985
102506.413386
102505.873368
102505.203168
102504.508759
102503.556471
102502.69742
102501.811118
102500.972981
102500.528373
102463.97749
102463.945385
102463.894398
102463.82332
102463.724061
102463.592389
102463.420569
102463.202895
102462.926842
102462.585337
102462.160909
102461.644457
102461.015625
102460.205075
102459.388774
102458.229534
102457.223968
102456.137126
102455.203634
102454.659579
102410.766578
102410.72967
102410.671448
102410.58907
102410.475001
102410.323436
102410.125877
102409.87487
102409.55795
102409.166108
102408.681078
102408.086516
102407.367671
102406.430389
102405.486856
102404.178357
102403.031034
102401.812419
102400.802304
102400.19184
102346.819946
102346.774574
102346.704102
102346.604049
102346.467198
102346.286104
102346.051729
102345.755026
102345.382839
102344.923518
102344.357545
102343.665258
102342.826763
102341.784568
102340.641917
102339.320779
102337.999359
102336.74761
102335.672244
102335.027721
102269.467387
102269.417355
102269.340177
102269.230922
102269.082052
102268.885643
102268.631795
102268.310056
102267.906423
102267.407021
102266.790954
102266.041041
102265.107621
102264.063329
102262.720167
102261.51213
102260.064494
102258.947271
102257.847455
102257.241973
102176.321686
102176.279284
102176.21401
102176.121885
102175.996118
102175.829697
102175.613238
102175.336389
102174.985233
102174.544468
102173.991071
102173.3177
102172.423576
102171.529216
102170.196844
102169.214383
102167.833143
102166.966486
102165.88762
102165.36943
102067.895705
102067.865665
102067.819405
102067.753689
102067.663492
102067.543058
102067.384685
102067.179091
102066.913816
102066.57318
102066.133597
102065.607191
102064.83054
102064.166917
102062.984806
102062.35275
102061.182511
102060.560883
102059.51865
102059.165671
101946.662412
101946.634543
101946.591634
101946.530421
101946.446484
101946.33438
101946.187126
101945.996147
101945.749477
101945.432823
101945.017538
101944.542728
101943.768785
101943.176095
101942.002503
101941.492783
101940.43999
101940.083239
101939.273085
101939.419248
101816.407613
101816.37867
101816.334127
101816.270578
101816.183459
101816.067398
101815.915317
101815.719202
101815.466571
101815.149501
101814.72353
101814.276867
101813.473064
101812.957254
101811.730898
101811.279149
101810.110764
101810.161105
101809.30217
101810.084098
101681.237521
101681.210835
101681.169798
101681.111273
101681.031022
101680.92452
101680.784831
101680.60724
101680.375645
101680.100786
101679.710018
101679.339895
101678.634801
101678.28445
101677.150889
101677.103725
101675.807513
101676.045032
101674.801691
101675.445123
101541.211647
101541.190099
101541.157103
101541.110225
101541.045396
101540.962048
101540.846071
101540.71725
101540.512199
101540.340299
101539.978615
101539.766936
101539.180032
101538.828051
101538.052647
101537.862729
101536.91765
101537.030798
101536.076475
101536.261679
101396.590186
101396.587563
101396.57979
101396.572909
101396.55861
101396.547925
101396.521602
101396.507169
101396.455882
101396.434706
101396.325103
101396.295171
101396.05395
101396.051609
101395.435266
101395.437952
101394.679836
101394.870548
101394.505506
101394.856639
102808.544954
102808.576933
102805.045999
102805.07406
102800.734746
102800.768711
102796.065332
102796.073048
102791.122902
102791.120316
102785.14674
102785.14565
102778.14339
102778.12922
102770.252101
102770.242627
102761.044939
102761.034605
102750.592348
102750.577741
102738.726054
102738.714585
102725.131966
102725.119747
102709.804009
102709.790876
102692.844168
102692.830832
102674.191335
102674.177461
102653.485022
102653.470466
102630.167735
102630.152429
102603.713017
102603.694694
102573.652434
102573.632172
102539.502332
102539.478068
102500.26437
102500.238022
102454.390872
102454.36024
102399.908283
102399.873892
102334.716152
102334.677731
102256.903823
102256.856876
102164.967715
102164.916412
102058.720377
102058.658665
101938.933501
101938.880274
101809.623039
101809.582761
101675.075005
101675.035242
101535.864902
101535.874016
101394.180915
101394.394392
)
;

boundaryField
{
    inletfuel
    {
        type            zeroGradient;
    }
    inletair
    {
        type            zeroGradient;
    }
    outlet
    {
        type            fixedValue;
        value           uniform 101325;
    }
    axis
    {
        type            empty;
    }
    leftside
    {
        type            zeroGradient;
    }
    burnerwall
    {
        type            zeroGradient;
    }
    front
    {
        type            wedge;
    }
    back
    {
        type            wedge;
    }
    procBoundary1to0
    {
        type            processor;
        value           nonuniform List<scalar> 
27
(
102807.432282
102807.423882
102807.41498
102807.40487
102808.914163
102809.050129
102809.807783
102810.053041
102810.877227
102811.021952
102811.461358
102807.379534
102807.337766
102807.281656
102807.201286
102807.103402
102807.003454
102806.959323
102806.920372
102806.91244
102806.895443
102806.898772
102807.008713
102807.133669
102807.133669
102811.289208
102811.27067
)
;
    }
}


// ************************************************************************* //
