/*--------------------------------*- C++ -*----------------------------------*\
  =========                 |
  \\      /  F ield         | OpenFOAM: The Open Source CFD Toolbox
   \\    /   O peration     | Website:  https://openfoam.org
    \\  /    A nd           | Version:  7
     \\/     M anipulation  |
\*---------------------------------------------------------------------------*/
FoamFile
{
    version     2.0;
    format      ascii;
    class       volScalarField;
    location    "0.03";
    object      PaSR<psiReactionThermo>:kappa;
}
// * * * * * * * * * * * * * * * * * * * * * * * * * * * * * * * * * * * * * //

dimensions      [0 0 0 0 0 0 0];

internalField   nonuniform List<scalar> 
815
(
5.20622746581e-13
5.22561446761e-13
5.26510697711e-13
5.16016934744e-13
5.18159325675e-13
5.22505192852e-13
5.1163514161e-13
5.13895793325e-13
5.18475068413e-13
5.05633611893e-13
5.08008334347e-13
5.1279199453e-13
4.98700491594e-13
5.01169765421e-13
5.06144816479e-13
4.90968133103e-13
4.93517380398e-13
4.98653377819e-13
4.8264248317e-13
4.85233445995e-13
4.90475441681e-13
4.73529272977e-13
4.76150185326e-13
4.81450882968e-13
4.63643126699e-13
4.66241756754e-13
4.7153493288e-13
4.5282145899e-13
4.55367745999e-13
4.60585354269e-13
4.40992357111e-13
4.43424322781e-13
4.48473871604e-13
4.27874536975e-13
4.30153282296e-13
4.34946470774e-13
4.13402922536e-13
4.15461569793e-13
4.19871294237e-13
3.97348845929e-13
3.99128981273e-13
4.03045646806e-13
3.79628544986e-13
3.81090823114e-13
3.84410386154e-13
3.60266279434e-13
3.61360927951e-13
3.6399206416e-13
3.39400006721e-13
3.40142688525e-13
3.42064034138e-13
3.1763596973e-13
3.18039957732e-13
3.19265787778e-13
2.95900322071e-13
2.96024264135e-13
2.96646265889e-13
2.75527727987e-13
2.75449663782e-13
2.75604685669e-13
2.57908129716e-13
2.57707544701e-13
2.57550714424e-13
2.44030980785e-13
2.43772658116e-13
2.434367505e-13
2.34148741028e-13
2.33878225784e-13
2.33460494417e-13
2.2782296605e-13
2.27557521673e-13
2.2710626297e-13
2.24161867726e-13
2.23907770259e-13
2.234486732e-13
2.2219390708e-13
2.21947584687e-13
2.214862514e-13
2.21093590533e-13
2.20850924423e-13
2.20382878675e-13
2.20529853885e-13
2.20289383363e-13
2.19809775849e-13
2.23865720722e-13
2.23669349501e-13
2.23205458944e-13
2.85380970174e-13
2.85816066964e-13
2.85804062563e-13
7.86613673768e-13
7.88730767617e-13
7.89915915099e-13
5.31517909863e-13
5.28034289784e-13
5.24274965192e-13
5.18822415119e-13
5.12361724298e-13
5.05027535242e-13
4.96929724307e-13
4.87934635187e-13
4.77953919143e-13
4.66855059638e-13
4.54481336754e-13
4.4059100601e-13
4.25019707327e-13
4.07584986162e-13
3.8823380172e-13
3.67022983116e-13
3.44284428193e-13
3.20713609951e-13
2.97434196725e-13
2.75894306432e-13
2.57517166383e-13
2.43229485298e-13
2.33183103964e-13
2.26811371206e-13
2.23158689456e-13
2.21205660391e-13
2.20106868603e-13
2.19531909946e-13
2.22935710564e-13
2.85751732217e-13
7.90422059284e-13
6.38358036123e-13
5.94038079393e-13
4.49516535835e-13
3.44959452035e-13
3.86969091291e-13
5.61020552891e-13
7.75203531702e-13
5.40883113615e-13
5.52467695871e-13
5.59839050648e-13
5.63034565229e-13
5.6394656945e-13
5.64649333948e-13
5.66211678758e-13
5.68628920075e-13
5.71268147409e-13
5.75035885444e-13
5.80336995263e-13
5.84833481973e-13
5.83042566495e-13
5.6399487057e-13
4.96153798258e-13
3.77144389976e-13
3.35992891214e-13
4.21011834589e-13
5.86320564383e-13
7.77150971036e-13
5.38185797909e-13
5.50573700539e-13
5.58206147363e-13
5.61075607817e-13
5.61018021766e-13
5.59939462968e-13
5.58798564861e-13
5.57597543558e-13
5.55539337187e-13
5.52859733317e-13
5.49544447278e-13
5.42338332287e-13
5.23836210667e-13
4.8450491289e-13
4.09743667621e-13
3.32157525712e-13
3.41015265737e-13
4.49005019179e-13
5.9972270177e-13
7.71816238716e-13
5.34716584623e-13
5.47089199557e-13
5.54150752275e-13
5.5590446998e-13
5.54214925638e-13
5.50920521134e-13
5.46854408885e-13
5.4182217958e-13
5.34811890691e-13
5.25024721047e-13
5.11834996101e-13
4.92483135576e-13
4.60131966237e-13
4.09947451236e-13
3.45479974187e-13
3.09424823814e-13
3.52721871061e-13
4.69583684535e-13
6.05832862449e-13
7.62984691849e-13
5.29458314861e-13
5.41654901009e-13
5.48000256232e-13
5.48555259879e-13
5.45189790854e-13
5.3962293315e-13
5.32494296678e-13
5.23359346261e-13
5.10868583906e-13
4.93644063266e-13
4.70843563979e-13
4.40760197754e-13
4.00064740618e-13
3.49546564617e-13
3.04308936187e-13
3.00698042256e-13
3.65776357469e-13
4.83861343926e-13
6.0803305377e-13
7.5320236222e-13
5.23104226523e-13
5.35023154239e-13
5.40498266333e-13
5.39633697662e-13
5.34344487645e-13
5.26261229831e-13
5.1578482095e-13
5.02282669009e-13
4.84292354982e-13
4.60215357174e-13
4.29354204776e-13
3.91884287156e-13
3.48861689807e-13
3.05895313168e-13
2.80667707935e-13
2.99409725829e-13
3.78065473278e-13
4.94050383787e-13
6.09092423368e-13
7.43838573041e-13
5.15827741166e-13
5.27350203516e-13
5.31810941022e-13
5.29359730142e-13
5.21972979401e-13
5.11251522088e-13
4.97405856572e-13
4.79627105373e-13
4.56527759639e-13
4.26810186927e-13
3.9046222713e-13
3.49743630815e-13
3.09203390661e-13
2.77042362913e-13
2.68103036646e-13
3.0156544582e-13
3.88764510513e-13
5.01776703752e-13
6.10536740663e-13
7.35605649291e-13
5.07654550675e-13
5.18649376827e-13
5.21971478615e-13
5.17777270821e-13
5.08137577809e-13
4.94685403686e-13
4.77546284218e-13
4.55815092788e-13
4.28371972448e-13
3.94619155328e-13
3.55658088091e-13
3.15502971038e-13
2.80512520365e-13
2.58881740228e-13
2.61709538677e-13
3.05141979995e-13
3.98334297379e-13
5.0860668508e-13
6.13374460492e-13
7.28916898889e-13
4.9849465285e-13
5.08791579775e-13
5.10832525525e-13
5.04768504651e-13
4.92767257395e-13
4.765833063e-13
4.56388452035e-13
4.31322505758e-13
4.00650847081e-13
3.64691057366e-13
3.2577925439e-13
2.88975461842e-13
2.60814571579e-13
2.47805876501e-13
2.58586782686e-13
3.09315259551e-13
4.07368025478e-13
5.1560750808e-13
6.18068461299e-13
7.23859664387e-13
4.88208366391e-13
4.97644143325e-13
4.98288708542e-13
4.90295490767e-13
4.75910657487e-13
4.57078412324e-13
4.34167721877e-13
4.06534097053e-13
3.73909591074e-13
3.3753957374e-13
3.00784188512e-13
2.68953382484e-13
2.47560323119e-13
2.41069606548e-13
2.57254921507e-13
3.13988210593e-13
4.16489814565e-13
5.23461258836e-13
6.24613304736e-13
7.20285233461e-13
4.76643162295e-13
4.85044556409e-13
4.84206574646e-13
4.74284415186e-13
4.57597618194e-13
4.36318349716e-13
4.11151962458e-13
3.81830502971e-13
3.48605270086e-13
3.13488333835e-13
2.80401853471e-13
2.54175491151e-13
2.38720335939e-13
2.36924362891e-13
2.57019192027e-13
3.19426936155e-13
4.26269301072e-13
5.32632194378e-13
6.32729134621e-13
7.18183447285e-13
4.63622710925e-13
4.70823796521e-13
4.68462584755e-13
4.56701087082e-13
4.3792359777e-13
4.14542124273e-13
3.8769501379e-13
3.57612641362e-13
3.25074404688e-13
2.92588497826e-13
2.64077014408e-13
2.43385093955e-13
2.32795637956e-13
2.34361842905e-13
2.57685976803e-13
3.26151113225e-13
4.37231773706e-13
5.43421675911e-13
6.42102630256e-13
7.17512063524e-13
4.48933687839e-13
4.547914987e-13
4.50922853037e-13
4.37513948216e-13
4.17004315504e-13
3.92040368972e-13
3.64222458666e-13
3.3434245723e-13
3.03650705637e-13
2.74812272702e-13
2.5124679964e-13
2.35579580652e-13
2.28795825227e-13
2.32854244188e-13
2.59375534345e-13
3.34708130261e-13
4.49653028384e-13
5.55881662483e-13
6.52457501154e-13
7.1820656285e-13
4.3238733777e-13
4.36791881922e-13
4.3149999913e-13
4.16745121845e-13
3.9501040879e-13
3.69152707536e-13
3.41210749686e-13
3.12508510316e-13
2.84625136449e-13
2.6004675768e-13
2.41361025536e-13
2.29987860526e-13
2.26101544061e-13
2.32172155582e-13
2.62362619512e-13
3.45612097977e-13
4.63645817037e-13
5.70000443248e-13
6.63596822448e-13
7.20225985256e-13
4.13851793843e-13
4.16749631127e-13
4.10199477548e-13
3.94504777066e-13
3.72186657373e-13
3.46268284663e-13
3.19149797466e-13
2.92561865534e-13
2.68202056898e-13
2.48113268368e-13
2.33917558892e-13
2.26034673226e-13
2.24331517068e-13
2.32249733317e-13
2.66981930645e-13
3.59154646634e-13
4.79143953814e-13
5.85695278117e-13
6.75343882274e-13
7.23523782713e-13
3.93290943646e-13
3.94694344875e-13
3.87144742574e-13
3.71028865898e-13
3.48887751895e-13
3.23846235925e-13
2.98529507441e-13
2.74878820642e-13
2.54480010052e-13
2.38771935026e-13
2.28459544378e-13
2.23293335246e-13
2.23254840093e-13
2.33130358915e-13
2.7364503266e-13
3.75346285045e-13
4.96024214197e-13
6.02859689635e-13
6.8757543591e-13
7.28069363632e-13
3.70830841174e-13
3.70855011703e-13
3.62668544192e-13
3.46751438256e-13
3.25629872332e-13
3.02431102002e-13
2.79826552667e-13
2.59735705691e-13
2.43439959086e-13
2.31725007226e-13
2.24578322858e-13
2.21447610805e-13
2.2274765449e-13
2.34941997102e-13
2.82776264487e-13
3.94064252663e-13
5.14287487149e-13
6.21399401539e-13
7.00239507334e-13
7.3390083448e-13
3.46876809313e-13
3.45738879213e-13
3.37376346686e-13
3.22352666801e-13
3.03111654092e-13
2.82647979432e-13
2.63477211392e-13
2.47280962171e-13
2.34919501952e-13
2.26613620247e-13
2.21911177875e-13
2.20271242546e-13
2.22763362302e-13
2.37902009776e-13
2.94864090747e-13
4.14992526788e-13
5.33925343558e-13
6.41157360189e-13
7.1333028101e-13
7.4107548575e-13
3.22212084167e-13
3.20243065573e-13
3.1223283169e-13
2.98800111241e-13
2.82205232692e-13
2.65152747065e-13
2.49817376585e-13
2.3750312828e-13
2.28642973182e-13
2.23067406275e-13
2.20157506926e-13
2.19611352931e-13
2.23322977964e-13
2.42348478187e-13
3.10410266148e-13
4.37758061136e-13
5.55042714138e-13
6.6202633442e-13
7.26923031679e-13
7.49724767365e-13
2.98051596127e-13
2.95657979958e-13
2.88517744814e-13
2.77252257007e-13
2.63825668109e-13
2.50508875371e-13
2.3901667334e-13
2.30235415697e-13
2.2425977377e-13
2.20732795043e-13
2.19080076881e-13
2.19379719536e-13
2.2453666168e-13
2.48801795084e-13
3.29971353736e-13
4.62138158523e-13
5.77858355407e-13
6.83948838124e-13
7.4119163211e-13
7.60109032524e-13
2.75898643213e-13
2.73487059399e-13
2.67608685537e-13
2.58827438633e-13
2.48721283724e-13
2.39042964184e-13
2.31018142456e-13
2.25169079576e-13
2.21387364645e-13
2.19300268874e-13
2.18505698239e-13
2.19548206162e-13
2.26618114217e-13
2.58076383897e-13
3.54053822411e-13
4.880879402e-13
6.02701573029e-13
7.06922332895e-13
7.56489749015e-13
7.7255452806e-13
2.57175653012e-13
2.550612703e-13
2.50614870712e-13
2.44293650404e-13
2.37255204121e-13
2.30735888805e-13
2.25528667002e-13
2.2189640145e-13
2.19654764866e-13
2.18520081743e-13
2.18323762388e-13
2.20170961123e-13
2.30022327659e-13
2.7155472681e-13
3.83275689156e-13
5.15980208906e-13
6.3000687944e-13
7.31073857767e-13
7.73365962053e-13
7.87562094987e-13
2.42756642055e-13
2.41105145726e-13
2.38017812937e-13
2.33823439247e-13
2.29294542992e-13
2.25227241429e-13
2.22085892288e-13
2.19982631078e-13
2.18741866833e-13
2.18212333399e-13
2.18491266029e-13
2.21418700304e-13
2.35567246801e-13
2.91201280316e-13
4.17753281069e-13
5.46282700966e-13
6.60170433789e-13
7.5668382774e-13
7.92564080399e-13
8.05541481098e-13
2.32710923191e-13
2.31538777222e-13
2.29562894161e-13
2.26990905309e-13
2.24291049909e-13
2.21934028105e-13
2.20167059571e-13
2.19032059155e-13
2.18400084977e-13
2.18261333442e-13
2.19034116311e-13
2.23644060997e-13
2.44666553134e-13
3.19354195673e-13
4.56709384231e-13
5.79515733787e-13
6.93400885212e-13
7.84139138182e-13
8.14987771423e-13
8.267294428e-13
2.26394223179e-13
2.25621495718e-13
2.24447001321e-13
2.22981739545e-13
2.21483251872e-13
2.20209516249e-13
2.19280292553e-13
2.18713514351e-13
2.18439328513e-13
2.18595658904e-13
2.20039553088e-13
2.27410613961e-13
2.59219964846e-13
3.56946652036e-13
4.97922209417e-13
6.15645178547e-13
7.29372408756e-13
8.1383048731e-13
8.41547600594e-13
8.50672910544e-13
2.22802007427e-13
2.22314150048e-13
2.21658911452e-13
2.20879000637e-13
2.2010181369e-13
2.19459338456e-13
2.19004708445e-13
2.18754621591e-13
2.1869819053e-13
2.19143233527e-13
2.21574569323e-13
2.33218374505e-13
2.80223703537e-13
4.00389088156e-13
5.38045311115e-13
6.53553900322e-13
7.66963895768e-13
8.46046233474e-13
8.72998419524e-13
8.76081693283e-13
2.20895934893e-13
2.2058860455e-13
2.20240992143e-13
2.19852964697e-13
2.19477288993e-13
2.1917824567e-13
2.1897759334e-13
2.18899328343e-13
2.18987543211e-13
2.19742276182e-13
2.23418999709e-13
2.40463107127e-13
3.04555237657e-13
4.4094035551e-13
5.73405338097e-13
6.90656069884e-13
8.04364435421e-13
8.80823393981e-13
9.09791693705e-13
9.01232800065e-13
2.19824967708e-13
2.19620545487e-13
2.19441081886e-13
2.19261733428e-13
2.19096169435e-13
2.18973678268e-13
2.18902441452e-13
2.18915219339e-13
2.19090390941e-13
2.2008528398e-13
2.24737979745e-13
2.46086371701e-13
3.22960802897e-13
4.6856945918e-13
6.00086192132e-13
7.23157698026e-13
8.39490900334e-13
9.17652167296e-13
9.5187819508e-13
9.2443001821e-13
2.19260049061e-13
2.19107239311e-13
2.19013145427e-13
2.1893767851e-13
2.18875036439e-13
2.18837307542e-13
2.18825590853e-13
2.18881795705e-13
2.19072241852e-13
2.20092862042e-13
2.24752418392e-13
2.46528655611e-13
3.26523889897e-13
4.778936423e-13
6.14719631625e-13
7.47198388017e-13
8.70288435432e-13
9.55223716139e-13
9.98751794185e-13
9.45927989396e-13
2.22674301223e-13
2.2254760652e-13
2.22493572951e-13
2.22463060732e-13
2.22440392603e-13
2.22434164712e-13
2.22432637067e-13
2.22488869102e-13
2.22617120476e-13
2.23369814275e-13
2.26725002004e-13
2.42925727287e-13
3.08792208786e-13
4.59900958688e-13
6.1128611523e-13
7.586370204e-13
8.93987100293e-13
9.90197946181e-13
1.04871241567e-12
9.70110713295e-13
2.85689218197e-13
2.85674740887e-13
2.85678886581e-13
2.85679618128e-13
2.85669423967e-13
2.8566176608e-13
2.85657314383e-13
2.85675178224e-13
2.85771782735e-13
2.86181411299e-13
2.88131344855e-13
2.9658854688e-13
3.32306141066e-13
4.39592331946e-13
5.89621438641e-13
7.53432172871e-13
9.08391396013e-13
1.02082510699e-12
1.10050168053e-12
1.01346347479e-12
7.90865276859e-13
7.911639466e-13
7.91336037439e-13
7.91399929551e-13
7.91474293404e-13
7.91475325763e-13
7.91597791646e-13
7.91599586222e-13
7.91912479823e-13
7.92123293602e-13
7.93564783562e-13
7.96253505586e-13
8.03263463882e-13
7.965247779e-13
7.44306015695e-13
7.97831111427e-13
9.42837476789e-13
1.06644552178e-12
1.16726439191e-12
1.13120024477e-12
1.32555573845e-12
2.86795200579e-12
1.32303171221e-12
3.01041000345e-12
1.32151716148e-12
3.13750957487e-12
1.32354962617e-12
3.25697507532e-12
1.33006169847e-12
3.37398149904e-12
1.34053025065e-12
3.49084094724e-12
1.35575859291e-12
3.60840119684e-12
1.37491589273e-12
3.72727634657e-12
1.39636069029e-12
3.84728391327e-12
1.41973996129e-12
3.9682798389e-12
1.44487672955e-12
4.09046796381e-12
1.47138448587e-12
4.21400866955e-12
1.49896979631e-12
4.3392500526e-12
1.52755838155e-12
4.46683112161e-12
1.55684583811e-12
4.59749591898e-12
1.58701671577e-12
4.7320567488e-12
1.61799901315e-12
4.87136087124e-12
1.64979893569e-12
5.01613730258e-12
1.68261168121e-12
5.16708015402e-12
1.71624082583e-12
5.32445814449e-12
1.75137445418e-12
5.48821665925e-12
1.78801927418e-12
5.65784388545e-12
1.82670255744e-12
5.83214190316e-12
1.86686536602e-12
6.00860932926e-12
1.90626810072e-12
6.18051038711e-12
1.94120622768e-12
6.334037998e-12
1.96461247553e-12
6.44442947953e-12
1.97098996019e-12
6.47768944017e-12
1.95661176232e-12
6.4009836834e-12
1.92135142463e-12
6.19326857681e-12
1.84141674495e-12
5.80311735517e-12
1.6583947239e-12
5.02845421347e-12
)
;

boundaryField
{
    inletfuel
    {
        type            calculated;
        value           nonuniform 0();
    }
    inletair
    {
        type            calculated;
        value           nonuniform 0();
    }
    outlet
    {
        type            calculated;
        value           uniform 0;
    }
    axis
    {
        type            empty;
    }
    leftside
    {
        type            calculated;
        value           uniform 0;
    }
    burnerwall
    {
        type            calculated;
        value           nonuniform 0();
    }
    front
    {
        type            wedge;
    }
    back
    {
        type            wedge;
    }
    procBoundary1to0
    {
        type            processor;
        value           uniform 0;
    }
}


// ************************************************************************* //
