/*--------------------------------*- C++ -*----------------------------------*\
  =========                 |
  \\      /  F ield         | OpenFOAM: The Open Source CFD Toolbox
   \\    /   O peration     | Website:  https://openfoam.org
    \\  /    A nd           | Version:  7
     \\/     M anipulation  |
\*---------------------------------------------------------------------------*/
FoamFile
{
    version     2.0;
    format      ascii;
    class       surfaceScalarField;
    location    "0.03";
    object      phi;
}
// * * * * * * * * * * * * * * * * * * * * * * * * * * * * * * * * * * * * * //

dimensions      [1 0 -1 0 0 0 0];

internalField   nonuniform List<scalar> 
1572
(
-1.44907378241e-09
-5.85590719173e-08
-5.63794709932e-09
-1.75416587934e-07
-2.90369111422e-07
-1.29001193445e-08
-2.77216280655e-09
-5.91319808556e-08
-1.09522707693e-08
-1.77276654706e-07
-2.93658695165e-07
-2.44152993065e-08
-3.47630637708e-09
-5.92630715893e-08
-1.39970209984e-08
-1.77578712862e-07
-2.94128708856e-07
-3.15932060345e-08
-4.07268497371e-09
-5.91138376866e-08
-1.63197693462e-08
-1.77107182376e-07
-2.93344894718e-07
-3.6736868533e-08
-4.71247373433e-09
-5.86439087812e-08
-1.88537994571e-08
-1.75693414709e-07
-2.90914216906e-07
-4.25169394201e-08
-5.03990161639e-09
-5.8188579572e-08
-2.01413839911e-08
-1.74347698957e-07
-2.88519851083e-07
-4.54697079043e-08
-5.49391725429e-09
-5.76539768729e-08
-2.19085952139e-08
-1.72806858146e-07
-2.86011098091e-07
-4.92257139202e-08
-5.6845999794e-09
-5.73593212928e-08
-2.29348101373e-08
-1.71726767769e-07
-2.8450267582e-07
-5.13920503029e-08
-5.91917031572e-09
-5.72624889721e-08
-2.37449439313e-08
-1.71362463973e-07
-2.8391948541e-07
-5.34431100095e-08
-6.18295838144e-09
-5.73767753629e-08
-2.48280100183e-08
-1.71606715224e-07
-2.84322951595e-07
-5.59054222182e-08
-6.72673157941e-09
-5.74850496604e-08
-2.666825023e-08
-1.7216344025e-07
-2.85179778915e-07
-5.99811519445e-08
-7.0314861245e-09
-5.78507355112e-08
-2.81126868647e-08
-1.73268177448e-07
-2.86979530828e-07
-6.32907755229e-08
-7.67755403175e-09
-5.81213406881e-08
-3.05417031067e-08
-1.74241297311e-07
-2.88762679145e-07
-6.84896012334e-08
-8.14684489124e-09
-5.84515448575e-08
-3.24548789868e-08
-1.75353293496e-07
-2.90719162501e-07
-7.2872414199e-08
-8.6789786033e-09
-5.87583857339e-08
-3.46299333116e-08
-1.76347603599e-07
-2.9253718236e-07
-7.77241642931e-08
-9.28371370372e-09
-5.89447454282e-08
-3.68713896093e-08
-1.7715498196e-07
-2.94084277783e-07
-8.26511224862e-08
-9.61937503331e-09
-5.92561583822e-08
-3.84888361566e-08
-1.78060665249e-07
-2.95762280078e-07
-8.64290811288e-08
-1.00544118381e-08
-5.95449759409e-08
-4.01386464844e-08
-1.78986673732e-07
-2.97552822714e-07
-9.00148133849e-08
-1.0307086814e-08
-5.99085040206e-08
-4.11561457225e-08
-1.80128027539e-07
-2.99721690798e-07
-9.22789972325e-08
-1.04101500357e-08
-6.04318373544e-08
-4.16561068875e-08
-1.81660186825e-07
-3.02580438835e-07
-9.33962422883e-08
-1.05100701402e-08
-6.10579786821e-08
-4.19280800633e-08
-1.83630074937e-07
-3.06187247658e-07
-9.39371782499e-08
-1.05428512003e-08
-6.17742522328e-08
-4.20287965625e-08
-1.85905144477e-07
-3.10298470919e-07
-9.41560697242e-08
-1.06325781656e-08
-6.25046478511e-08
-4.24577110636e-08
-1.88155823557e-07
-3.14407926239e-07
-9.51214808088e-08
-1.07860382161e-08
-6.31565786211e-08
-4.30827818274e-08
-1.90167921515e-07
-3.18001930298e-07
-9.66445702006e-08
-1.07208457208e-08
-6.37885224933e-08
-4.28777377677e-08
-1.92067015017e-07
-3.21087878388e-07
-9.65316048031e-08
-1.04476239487e-08
-6.43276085032e-08
-4.17174153885e-08
-1.93757559741e-07
-3.23973448442e-07
-9.37457920455e-08
-9.35249289531e-09
-6.51770700463e-08
-3.72223403533e-08
-1.96493998616e-07
-3.28754002471e-07
-8.34374909894e-08
-7.30969820718e-09
-6.67755668175e-08
-2.90497134792e-08
-2.01475700478e-07
-3.37224137343e-07
-6.51097874008e-08
-4.37998923736e-09
-6.94184655938e-08
-1.7285652326e-08
-2.09627201539e-07
-3.50873526788e-07
-3.87591934172e-08
-1.06876075002e-09
-7.29497199345e-08
-4.30861334991e-09
-2.20195399265e-07
-3.68282804979e-07
-9.88017670488e-09
2.88858511027e-10
1.08513639249e-09
2.18980564996e-09
-3.47532383297e-07
-2.1308863722e-08
-3.50612972117e-07
-4.14519918365e-08
-3.50508143083e-07
-5.3394121282e-08
-3.48925190145e-07
-6.18891586047e-08
-3.4599211698e-07
-7.09367514386e-08
-3.42910901329e-07
-7.6071621865e-08
-3.3982393607e-07
-8.20768040622e-08
-3.3774002731e-07
-8.57969812274e-08
-3.37039104785e-07
-8.90592838095e-08
-3.3733776804e-07
-9.33493861054e-08
-3.38594713626e-07
-9.96858407751e-08
-3.40630290968e-07
-1.05577694232e-07
-3.42949482491e-07
-1.13788207101e-07
-3.45418923997e-07
-1.21183069406e-07
-3.47748572462e-07
-1.29207948462e-07
-3.49932054285e-07
-1.37165106663e-07
-3.52167475179e-07
-1.43625491538e-07
-3.5467819665e-07
-1.49379521417e-07
-3.57693202341e-07
-1.53078625763e-07
-3.61511260422e-07
-1.54955869159e-07
-3.66326490952e-07
-1.55721960254e-07
-3.7171313501e-07
-1.56122822982e-07
-3.76942788836e-07
-1.57897328032e-07
-3.81434798381e-07
-1.60624042618e-07
-3.85093735876e-07
-1.6085317417e-07
-3.88626405208e-07
-1.56009636752e-07
-3.94564354927e-07
-1.3860433313e-07
-4.04903271381e-07
-1.08131377452e-07
-4.21284020718e-07
-6.44746590493e-08
-4.41946611222e-07
-1.67512323273e-08
3.35856850487e-09
-1.76243744012e-05
-2.55696667749e-06
-2.48760818427e-05
7.41906938825e-06
-2.70028555668e-05
2.48342414953e-05
-2.55385775766e-05
3.93846424703e-05
-2.02273390871e-05
4.22083048881e-05
-1.18957590618e-05
3.14307260595e-05
-1.30917750445e-05
-8.77502854369e-07
-5.56792774105e-08
-1.27380325336e-06
-1.17418143767e-07
-1.9714210137e-06
-2.22619909183e-07
-2.76185681245e-06
-3.92589862306e-07
-3.63871140712e-06
-6.56320887896e-07
-4.58581224932e-06
-1.04972197407e-06
-5.57981059928e-06
-1.6195076145e-06
-6.58643605549e-06
-2.42314007595e-06
-7.55327789397e-06
-3.56077600072e-06
-8.39622830931e-06
-5.15488928441e-06
-8.99362187821e-06
-7.41549181689e-06
-9.06967638166e-06
-1.05950474523e-05
-8.23785243436e-06
-1.51745156622e-05
-5.74753000583e-06
-2.15260883071e-05
-4.60581266262e-07
-2.82775647891e-05
9.25877674462e-06
-2.97998037036e-05
2.32448352025e-05
-2.74464896958e-05
3.40688990097e-05
-2.17192616612e-05
3.32341613781e-05
-1.23661118308e-05
1.83352910162e-05
-3.03735755753e-05
-1.05541831918e-06
-1.0388784814e-07
-1.28664440743e-06
-2.08541794761e-07
-1.98856550694e-06
-3.69299012101e-07
-2.78326759782e-06
-6.09345959587e-07
-3.65957479384e-06
-9.60498530816e-07
-4.59831524148e-06
-1.46565259413e-06
-5.57182265075e-06
-2.18213386635e-06
-6.53939385586e-06
-3.18852233109e-06
-7.43722042336e-06
-4.59496636515e-06
-8.16389838515e-06
-6.55732151383e-06
-8.57154539619e-06
-9.26836773714e-06
-8.3649641653e-06
-1.29682717686e-05
-7.12052662338e-06
-1.78779265865e-05
-4.14772240332e-06
-2.38737351508e-05
1.26428474468e-06
-2.92987678714e-05
1.03534695321e-05
-3.03030252761e-05
2.08363083956e-05
-2.73635770809e-05
2.78049000935e-05
-2.18928979632e-05
2.44070163451e-05
-1.22518136008e-05
4.76044465888e-06
-4.7860724744e-05
-1.22145015585e-06
-1.35488088658e-07
-1.2856830676e-06
-2.71090860799e-07
-1.98407389771e-06
-4.77846856291e-07
-2.77226417857e-06
-7.80823779255e-07
-3.6364666618e-06
-1.21382419581e-06
-4.5548838573e-06
-1.82303681252e-06
-5.49489931536e-06
-2.67180705124e-06
-6.40749189463e-06
-3.84796824105e-06
-7.21490804132e-06
-5.47161688056e-06
-7.79719485404e-06
-7.70758860456e-06
-7.9801027887e-06
-1.07217989569e-05
-7.48330056711e-06
-1.46753119967e-05
-5.88572770049e-06
-1.95817730663e-05
-2.62150367858e-06
-2.49519443871e-05
2.59302560649e-06
-2.89421375632e-05
1.03782635557e-05
-2.96571697164e-05
1.79061527264e-05
-2.69501749499e-05
2.14805124041e-05
-2.15653378172e-05
1.54938261304e-05
-1.16689563942e-05
-9.2829470473e-06
-6.51760999718e-05
-1.30088102063e-06
-1.56443632087e-07
-1.27917969591e-06
-3.11790591898e-07
-1.97076422148e-06
-5.4672344955e-07
-2.74885043215e-06
-8.89149614095e-07
-3.59552756532e-06
-1.37622164003e-06
-4.48611847811e-06
-2.05964680698e-06
-5.3813552263e-06
-3.00909600151e-06
-6.22372390631e-06
-4.31661497178e-06
-6.92394142938e-06
-6.09722006745e-06
-7.35144719302e-06
-8.48869325521e-06
-7.32317966899e-06
-1.16190073826e-05
-6.5774381584e-06
-1.55343157287e-05
-4.75947663041e-06
-2.00404199945e-05
-1.48678558688e-06
-2.45706735583e-05
3.30417186257e-06
-2.74252410342e-05
9.36798196165e-06
-2.79087569611e-05
1.45006493719e-05
-2.56462431057e-05
1.53207161747e-05
-2.04945266529e-05
6.53260378145e-06
-1.10270481769e-05
-2.32996496271e-05
-8.22829205227e-05
-1.39836966948e-06
-1.77116082413e-07
-1.26818666451e-06
-3.50701704361e-07
-1.95055618819e-06
-6.13240061002e-07
-2.71431300148e-06
-9.94392060326e-07
-3.53859737173e-06
-1.53306286729e-06
-4.39608161575e-06
-2.2827376305e-06
-5.24110312317e-06
-3.31222628007e-06
-6.01045872461e-06
-4.70843194245e-06
-6.60716806752e-06
-6.57427099116e-06
-6.89458570865e-06
-9.0171697986e-06
-6.69311362311e-06
-1.21058027986e-05
-5.78018859842e-06
-1.57853531933e-05
-3.9024921802e-06
-1.97466608332e-05
-8.71637093077e-07
-2.34349274107e-05
3.27059880279e-06
-2.56747772945e-05
7.66679765436e-06
-2.60476563964e-05
1.07194304812e-05
-2.42606336914e-05
9.31575575217e-06
-1.92491120172e-05
-2.64124268545e-06
-1.03129108917e-05
-3.73211294956e-05
-9.91908138252e-05
-1.47234359439e-06
-1.91084674925e-07
-1.25591044828e-06
-3.78905433661e-07
-1.92810349682e-06
-6.61278613499e-07
-2.67734861167e-06
-1.06866370646e-06
-3.479390642e-06
-1.64088534778e-06
-4.30427129967e-06
-2.43048688986e-06
-5.10184981427e-06
-3.50357335745e-06
-5.8048252612e-06
-4.93847107428e-06
-6.31359089742e-06
-6.8182847195e-06
-6.49419728426e-06
-9.21190242524e-06
-6.18378051925e-06
-1.21327057391e-05
-5.20947316112e-06
-1.54633112889e-05
-3.42760441823e-06
-1.89104051196e-05
-7.84270469485e-07
-2.18241080359e-05
2.42100308775e-06
-2.37360200959e-05
5.44152241316e-06
-2.4183231333e-05
6.70124421809e-06
-2.27519344775e-05
3.31530108544e-06
-1.78252287661e-05
-1.21113789611e-05
-9.52093210289e-06
-5.1268964028e-05
-0.000115872578377
-1.48206445104e-06
-2.04181447669e-07
-1.24488197536e-06
-4.03037423014e-07
-1.90781596719e-06
-7.01066251169e-07
-2.64379041587e-06
-1.12876590789e-06
-3.42587949307e-06
-1.72616957818e-06
-4.22137601007e-06
-2.54301762227e-06
-4.97856001744e-06
-3.63984784773e-06
-5.62840219049e-06
-5.08281289122e-06
-6.07430090427e-06
-6.9324905329e-06
-6.19332837047e-06
-9.22207859156e-06
-5.84921448413e-06
-1.1922723597e-05
-4.92411645029e-06
-1.49110531986e-05
-3.35759052748e-06
-1.78750447528e-05
-1.26491833231e-06
-2.03035105593e-05
9.23045129978e-07
-2.20111600915e-05
2.72637155279e-06
-2.26237726523e-05
2.48843575954e-06
-2.12862582495e-05
-2.97003060467e-06
-1.65861644964e-05
-2.17941380418e-05
-8.75507589945e-06
-6.53254350918e-05
-0.000132455436511
-1.43586081629e-06
-2.1409364207e-07
-1.23714623942e-06
-4.21963956002e-07
-1.89353586864e-06
-7.33056352383e-07
-2.61887882395e-06
-1.17679523662e-06
-3.38594215603e-06
-1.79130175575e-06
-4.16009432713e-06
-2.62225814757e-06
-4.88993337368e-06
-3.7220169871e-06
-5.50824260581e-06
-5.14296215192e-06
-5.92607129029e-06
-6.92409855612e-06
-6.03823018553e-06
-9.07014141755e-06
-5.74105547329e-06
-1.15306340489e-05
-4.96412049706e-06
-1.41772690861e-05
-3.71499201904e-06
-1.66926747176e-05
-2.29682105381e-06
-1.8885581266e-05
-1.01155329645e-06
-2.04847256493e-05
-4.00614857513e-07
-2.12807365723e-05
-1.94087438144e-06
-2.00711266692e-05
-9.54816120474e-06
-1.54930592849e-05
-3.1799143079e-05
-8.09073067883e-06
-7.95384765985e-05
-0.000149036874464
-1.39019667729e-06
-2.23294248436e-07
-1.23312534819e-06
-4.40117456927e-07
-1.88559684688e-06
-7.63250529701e-07
-2.60405968973e-06
-1.22135387858e-06
-3.3619058137e-06
-1.85049261486e-06
-4.12392538488e-06
-2.69192898913e-06
-4.84129169383e-06
-3.79019906893e-06
-5.45160576822e-06
-5.18489964806e-06
-5.8778272582e-06
-6.89767638529e-06
-6.03645058788e-06
-8.91683643054e-06
-5.85605512269e-06
-1.11911358794e-05
-5.30191032902e-06
-1.35010055733e-05
-4.54839925644e-06
-1.57328298398e-05
-3.80169041806e-06
-1.77637702584e-05
-3.37586447385e-06
-1.94256366576e-05
-3.81974223966e-06
-2.02485842155e-05
-6.74479912018e-06
-1.91370785459e-05
-1.64323128701e-05
-1.45786729288e-05
-4.22196976364e-05
-7.55058324778e-06
-9.39602640141e-05
-0.000165721179414
-1.32246723695e-06
-2.34246539806e-07
-1.23293668092e-06
-4.61197085451e-07
-1.88414237632e-06
-7.97403787861e-07
-2.60015945629e-06
-1.27065883905e-06
-3.35542238017e-06
-1.91425056214e-06
-4.11604280987e-06
-2.76464135246e-06
-4.83766479859e-06
-3.85820381939e-06
-5.46573042406e-06
-5.22318499537e-06
-5.93788490182e-06
-6.86967092882e-06
-6.19268936688e-06
-8.78377787518e-06
-6.18345680872e-06
-1.08446672793e-05
-5.9822480685e-06
-1.2941960652e-05
-5.76057038669e-06
-1.50041065997e-05
-5.6999884383e-06
-1.69565192549e-05
-6.11816977774e-06
-1.86479193466e-05
-7.58420007049e-06
-1.95455775295e-05
-1.18928115273e-05
-1.84726193092e-05
-2.36787850971e-05
-1.38397358945e-05
-5.3115377277e-05
-7.13326893021e-06
-0.00010862732913
-0.000182589028223
-1.27726851255e-06
-2.48555705391e-07
-1.2367389545e-06
-4.87312042362e-07
-1.88982251255e-06
-8.38995619777e-07
-2.60813400743e-06
-1.3303394679e-06
-3.36810153691e-06
-1.99198566434e-06
-4.13869433902e-06
-2.85571480137e-06
-4.8818944852e-06
-3.95047744389e-06
-5.55338640939e-06
-5.29547364981e-06
-6.10681535525e-06
-6.8952342661e-06
-6.49978775795e-06
-8.69687487522e-06
-6.74588098502e-06
-1.06030519629e-05
-6.96672327677e-06
-1.25668114151e-05
-7.29604605191e-06
-1.45399074084e-05
-7.93325946149e-06
-1.64769483051e-05
-9.19191889499e-06
-1.82330169648e-05
-1.16691548743e-05
-1.92521760853e-05
-1.73312312828e-05
-1.81048981185e-05
-3.13520997699e-05
-1.33099054833e-05
-6.45243918465e-05
-6.86696671478e-06
-0.000123562055916
-0.000199736294426
-1.24681883875e-06
-2.63564950067e-07
-1.24388634058e-06
-5.16015420361e-07
-1.90150777832e-06
-8.85377548471e-07
-2.62681779852e-06
-1.39732747453e-06
-3.39873029063e-06
-2.07962275593e-06
-4.19082584589e-06
-2.95953020787e-06
-4.97289577092e-06
-4.0596084647e-06
-5.71252173119e-06
-5.39319309345e-06
-6.37883517452e-06
-6.94695269914e-06
-6.96128711354e-06
-8.65308409968e-06
-7.53337142708e-06
-1.04709954214e-05
-8.19924900874e-06
-1.23659293419e-05
-9.1022901694e-06
-1.43213894225e-05
-1.04413108275e-05
-1.63124634882e-05
-1.25335127721e-05
-1.81806658183e-05
-1.60214122751e-05
-1.92927124786e-05
-2.30560614949e-05
-1.79829262916e-05
-3.94673591676e-05
-1.29742306357e-05
-7.64343674368e-05
-6.72616274152e-06
-0.000138769067548
-0.000217201993353
-1.23336212522e-06
-2.8212099685e-07
-1.25289143984e-06
-5.49739453557e-07
-1.91724559666e-06
-9.38627960205e-07
-2.65355223992e-06
-1.47305176161e-06
-3.44414296268e-06
-2.17799543538e-06
-4.26846784056e-06
-3.07649393725e-06
-5.10545265505e-06
-4.18625237694e-06
-5.93515143151e-06
-5.51296695454e-06
-6.74533104832e-06
-7.02095157767e-06
-7.57315788163e-06
-8.67485300987e-06
-8.50030850801e-06
-1.04522173021e-05
-9.63069889502e-06
-1.23367530369e-05
-1.11194592938e-05
-1.43352531991e-05
-1.31598161527e-05
-1.64400470633e-05
-1.60734850346e-05
-1.84655178528e-05
-2.05711350782e-05
-1.96437205052e-05
-2.90343117336e-05
-1.80780372654e-05
-4.80179584395e-05
-1.28125752676e-05
-8.88087434632e-05
-6.68458921919e-06
-0.000154245810384
-0.000235000601778
-1.23083300742e-06
-3.00468729574e-07
-1.26262322566e-06
-5.83937645783e-07
-1.93544720695e-06
-9.92978642129e-07
-2.68626332219e-06
-1.5501650887e-06
-3.50186142168e-06
-2.27770229453e-06
-4.36853154712e-06
-3.19486894438e-06
-5.2752261836e-06
-4.31540792513e-06
-6.21482741758e-06
-5.62884150256e-06
-7.20661017585e-06
-7.11032911428e-06
-8.31025701469e-06
-8.74404062958e-06
-9.6092906637e-06
-1.05208315945e-05
-1.12161664366e-05
-1.24456377023e-05
-1.32917682477e-05
-1.45483565493e-05
-1.60209771864e-05
-1.68188106094e-05
-1.97485061619e-05
-1.90360948503e-05
-2.52573894724e-05
-2.02646807072e-05
-3.52172795802e-05
-1.83506422462e-05
-5.69979091334e-05
-1.28098415263e-05
-0.000101603501242
-6.74491959414e-06
-0.000169984508505
-0.000253150146744
-1.25149960081e-06
-3.19665208469e-07
-1.27235059509e-06
-6.19064697575e-07
-1.95515550706e-06
-1.04792287024e-06
-2.72391253416e-06
-1.62703087798e-06
-3.57072055128e-06
-2.37596002427e-06
-4.4894864533e-06
-3.31086278166e-06
-5.47971857067e-06
-4.43761197014e-06
-6.55223566414e-06
-5.74342115137e-06
-7.75332238343e-06
-7.21936263503e-06
-9.14867163495e-06
-8.86123991597e-06
-1.08301186498e-05
-1.06752923476e-05
-1.29171906899e-05
-1.26883043366e-05
-1.55713036552e-05
-1.49424409643e-05
-1.89768909651e-05
-1.74401957445e-05
-2.34914088472e-05
-1.98795656762e-05
-3.00268044051e-05
-2.10828805983e-05
-4.16143330501e-05
-1.87290244581e-05
-6.64067239674e-05
-1.2906531063e-05
-0.000114782508256
-6.8544646699e-06
-0.000185982662419
-0.000271649807241
-1.2741665027e-06
-3.3822137702e-07
-1.28207223526e-06
-6.5242343566e-07
-1.97654961862e-06
-1.09933491928e-06
-2.76683385975e-06
-1.69789255058e-06
-3.65120247647e-06
-2.46544273179e-06
-4.63154754175e-06
-3.41471009247e-06
-5.71931059948e-06
-4.54501641865e-06
-6.94692269677e-06
-5.85339900488e-06
-8.37248134036e-06
-7.34203829721e-06
-1.00679997958e-05
-9.01892665512e-06
-1.21344606578e-05
-1.09076304856e-05
-1.4695127299e-05
-1.30532518228e-05
-1.7911601176e-05
-1.55157616002e-05
-2.19656492271e-05
-1.82733656177e-05
-2.7256496766e-05
-2.09229668414e-05
-3.48541195311e-05
-2.20355279495e-05
-4.82036069581e-05
-1.91643830495e-05
-7.62244516628e-05
-1.30728643041e-05
-0.000128294488863
-7.00077816754e-06
-0.000202214666981
-0.000290474945642
-1.30522977728e-06
-3.54036155071e-07
-1.29246801454e-06
-6.81122839567e-07
-2.00066908351e-06
-1.14338041792e-06
-2.81650945882e-06
-1.75810309694e-06
-3.74504993431e-06
-2.5407577287e-06
-4.79650634433e-06
-3.49931492271e-06
-5.99745240724e-06
-4.6367540318e-06
-7.39419340509e-06
-5.96007092487e-06
-9.05138575498e-06
-7.48131238842e-06
-1.10489011625e-05
-9.22243775549e-06
-1.34943434495e-05
-1.12250260665e-05
-1.65119185162e-05
-1.35514216493e-05
-2.02640363125e-05
-1.62627600093e-05
-2.49417520923e-05
-1.93038478581e-05
-3.10031013002e-05
-2.21554138496e-05
-3.9697879563e-05
-2.30805123585e-05
-5.49736673115e-05
-1.96146098239e-05
-8.6425080346e-05
-1.32686187602e-05
-0.00014207405416
-7.15918576151e-06
-0.000218615359891
-0.000309552988547
-1.34044308239e-06
-3.67108949086e-07
-1.30450578565e-06
-7.04119499335e-07
-2.02885395972e-06
-1.17796078323e-06
-2.87450995965e-06
-1.80465901082e-06
-3.85375770482e-06
-2.5976208611e-06
-4.98614780861e-06
-3.56461246136e-06
-6.31197636451e-06
-4.71676197832e-06
-7.88375407835e-06
-6.06959847686e-06
-9.77332298202e-06
-7.64645018164e-06
-1.20669513567e-05
-9.48381325278e-06
-1.4876907835e-05
-1.16390142863e-05
-1.83278524248e-05
-1.4185900934e-05
-2.25862065437e-05
-1.71767864995e-05
-2.78665225028e-05
-2.05369401114e-05
-3.46724296913e-05
-2.35590637476e-05
-4.45239945735e-05
-2.4162446693e-05
-6.19271732615e-05
-2.00357646858e-05
-9.69644431157e-05
-1.34530389448e-05
-0.000156033684604
-7.28144060935e-06
-0.000235098176829
-0.000328760817182
-1.35285093076e-06
-3.75660264524e-07
-1.31881790879e-06
-7.19253770264e-07
-2.06165879854e-06
-1.20076964092e-06
-2.94093949244e-06
-1.83561702432e-06
-3.97632280467e-06
-2.63648909855e-06
-5.19709027549e-06
-3.61712587368e-06
-6.65104773533e-06
-4.79608036239e-06
-8.39612494193e-06
-6.19825046448e-06
-1.05103298959e-05
-7.85911566402e-06
-1.30846587501e-05
-9.83054220727e-06
-1.62337844319e-05
-1.21816148614e-05
-2.00866381583e-05
-1.49991043421e-05
-2.48105873954e-05
-1.83231025237e-05
-3.06603340192e-05
-2.1993732405e-05
-3.82256596473e-05
-2.51489095788e-05
-4.92680075868e-05
-2.52769387153e-05
-6.90462920519e-05
-2.04294264416e-05
-0.000107775777811
-1.36323712577e-05
-0.000170055512916
-7.41772876421e-06
-0.000251518276634
-0.000347974783687
-1.39233513643e-06
-3.80074013895e-07
-1.33638120875e-06
-7.2735279657e-07
-2.10001584035e-06
-1.21364819105e-06
-3.01613400437e-06
-1.85505107655e-06
-4.11127163396e-06
-2.66780066265e-06
-5.42192464936e-06
-3.67253763318e-06
-7.00050306163e-06
-4.89560392983e-06
-8.91008447682e-06
-6.37230078356e-06
-1.12329973088e-05
-8.15087854561e-06
-1.40634243906e-05
-1.02970852512e-05
-1.75178885448e-05
-1.28903415981e-05
-2.17328056129e-05
-1.60117724852e-05
-2.68895771714e-05
-1.96871766381e-05
-3.32799224525e-05
-2.36964413442e-05
-4.15812692639e-05
-2.68857821144e-05
-5.39052311318e-05
-2.63464709799e-05
-7.63287428623e-05
-2.07385730305e-05
-0.000118782353881
-1.37572787727e-05
-0.000184015299736
-7.50082894269e-06
-0.00026776878088
-0.000367100031484
-1.40394598933e-06
-3.81791996034e-07
-1.35757758003e-06
-7.31216659154e-07
-2.14371768644e-06
-1.22219165865e-06
-3.09795390103e-06
-1.87375579163e-06
-4.25236785008e-06
-2.70779231352e-06
-5.64835304223e-06
-3.75198959989e-06
-7.34198083697e-06
-5.04152930212e-06
-9.40027839219e-06
-6.62306354473e-06
-1.19080513704e-05
-8.55693159572e-06
-1.49625823863e-05
-1.09187517035e-05
-1.8684754906e-05
-1.37980270553e-05
-2.32174595026e-05
-1.72800327507e-05
-2.87577622312e-05
-2.13673548554e-05
-3.56445522042e-05
-2.57335663394e-05
-4.4662981126e-05
-2.8829193269e-05
-5.84122141788e-05
-2.74132290529e-05
-8.3768732227e-05
-2.10541017814e-05
-0.000129871522185
-1.39420355366e-05
-0.000197775790077
-7.70059557136e-06
-0.000283735896997
-0.000386160591103
-1.50622947757e-06
-3.83254883073e-07
-1.38060006934e-06
-7.36232917607e-07
-2.18877928007e-06
-1.23598087232e-06
-3.178771398e-06
-1.90627416722e-06
-4.38648979368e-06
-2.77501368267e-06
-5.85732070275e-06
-3.87799390254e-06
-7.64935069004e-06
-5.25964172651e-06
-9.83296762988e-06
-6.97776173653e-06
-1.24941318063e-05
-9.10326562926e-06
-1.57343225433e-05
-1.17249983238e-05
-1.96762165161e-05
-1.49390682077e-05
-2.44744822222e-05
-1.88316383837e-05
-3.03411611617e-05
-2.33740900054e-05
-3.76687474591e-05
-2.80793487006e-05
-4.73896953517e-05
-3.09192088843e-05
-6.27311648583e-05
-2.84188824123e-05
-9.13246175469e-05
-2.14031031665e-05
-0.000140876853855
-1.42744621313e-05
-0.000211184881381
-8.09495083345e-06
-0.000299397139675
-0.000405337074118
-1.69392345872e-06
-3.88447138866e-07
-1.40274144329e-06
-7.49493298894e-07
-2.23017145395e-06
-1.26536509387e-06
-3.25056087652e-06
-1.965427311e-06
-4.50175173005e-06
-2.88381838792e-06
-6.03281244909e-06
-4.06451831851e-06
-7.90225999158e-06
-5.5607577888e-06
-1.01836357518e-05
-7.44095507762e-06
-1.29626175521e-05
-9.78681822611e-06
-1.63449191078e-05
-1.26969622638e-05
-2.04556672377e-05
-1.62791289408e-05
-2.54570372156e-05
-2.06181642412e-05
-3.15789824979e-05
-2.56462441748e-05
-3.92667346636e-05
-3.06147178564e-05
-4.96980660236e-05
-3.29543134023e-05
-6.68323300845e-05
-2.93234003258e-05
-9.88340983011e-05
-2.19383093204e-05
-0.000151549933982
-1.50368682431e-05
-0.00022407739959
-9.00226490818e-06
-0.000314821667525
-0.000425047608772
-2.11550960858e-06
-3.96714326108e-07
-1.42117320718e-06
-7.68863919899e-07
-2.26371308748e-06
-1.30534142201e-06
-3.30712209287e-06
-2.04021557265e-06
-4.59064450545e-06
-3.01410710155e-06
-6.16551769922e-06
-4.27788542224e-06
-8.09054133448e-06
-5.89368934134e-06
-1.04406447426e-05
-7.93851449542e-06
-1.33017112873e-05
-1.0505990123e-05
-1.67802471944e-05
-1.37073635395e-05
-2.10021784809e-05
-1.7661377463e-05
-2.61349276519e-05
-2.24465474354e-05
-3.24286894556e-05
-2.79433064307e-05
-4.03710752993e-05
-3.30677053089e-05
-5.15107363128e-05
-3.46725225485e-05
-7.06775007234e-05
-3.01182467365e-05
-0.000106065080033
-2.28884180541e-05
-0.000161623853583
-1.65947608825e-05
-0.000236353002852
-1.08068689127e-05
-0.000330209392978
-0.000445990529712
-2.88885158952e-06
-3.99667453056e-07
-1.43513466776e-06
-7.77754741719e-07
-2.28879747127e-06
-1.32656780917e-06
-3.34815999674e-06
-2.08304054884e-06
-4.65429330996e-06
-3.09292280347e-06
-6.2584383573e-06
-4.41147920574e-06
-8.22047665299e-06
-6.10753858676e-06
-1.0614446598e-05
-8.26496700138e-06
-1.35261417468e-05
-1.09863549153e-05
-1.70603366116e-05
-1.43919307591e-05
-2.13422828122e-05
-1.86086195975e-05
-2.65403475906e-05
-2.37021137707e-05
-3.29271503174e-05
-2.94601237611e-05
-4.10455283679e-05
-3.44804110323e-05
-5.28803906165e-05
-3.5385536012e-05
-7.41020193887e-05
-3.05371697134e-05
-0.00011272072607
-2.4260620474e-05
-0.000170832110564
-1.90591853587e-05
-0.000248023448638
-1.3568977263e-05
-0.000345913232315
-0.000468933390963
-3.92646750084e-06
-3.87202728654e-07
-1.44864290815e-06
-7.54477564841e-07
-2.31198169961e-06
-1.28948080839e-06
-3.38472038358e-06
-2.03018828006e-06
-4.70877188409e-06
-3.02289240912e-06
-6.33568220186e-06
-4.32410221978e-06
-8.32543505348e-06
-6.00358084026e-06
-1.07510963303e-05
-8.14693587603e-06
-1.36970030159e-05
-1.08580189252e-05
-1.72657960778e-05
-1.42574493556e-05
-2.15811605609e-05
-1.84703919075e-05
-2.68097871716e-05
-2.35411295371e-05
-3.32502207001e-05
-2.91546731099e-05
-4.15269211163e-05
-3.37648165575e-05
-5.40013902715e-05
-3.4331650793e-05
-7.69530149385e-05
-3.0220199783e-05
-0.000118480718308
-2.58111712784e-05
-0.000178971070109
-2.23106435785e-05
-0.000259067189249
-1.73720722482e-05
-0.000362057094226
-0.000494467183488
-5.29439820277e-06
-3.43122327907e-07
-1.47140691907e-06
-6.68577456405e-07
-2.34928988113e-06
-1.14336416659e-06
-3.44114489214e-06
-1.8021072081e-06
-4.78937634994e-06
-2.6863821371e-06
-6.44663747063e-06
-3.84761552283e-06
-8.4726795799e-06
-5.34819255945e-06
-1.09410207556e-05
-7.26439563543e-06
-1.39354242431e-05
-9.68885514049e-06
-1.75570125087e-05
-1.27266356206e-05
-2.19307591275e-05
-1.6488272652e-05
-2.72191660761e-05
-2.09929367306e-05
-3.37551581798e-05
-2.58827331997e-05
-4.22555635508e-05
-2.97388657745e-05
-5.5293601999e-05
-3.03808791035e-05
-7.93406337809e-05
-2.82128436786e-05
-0.000122923434577
-2.65004882524e-05
-0.000185812527681
-2.5213934286e-05
-0.000269412592223
-2.10503166028e-05
-0.000378567360319
-0.000522312967609
-6.38155130546e-06
-2.67901995626e-07
-1.5101381911e-06
-5.22285570175e-07
-2.41181341615e-06
-8.93963783476e-07
-3.53368616591e-06
-1.41016439674e-06
-4.91954986826e-06
-2.10425501427e-06
-6.62302825322e-06
-3.01646959657e-06
-8.70549074534e-06
-4.19650294997e-06
-1.12410542307e-05
-5.7037255609e-06
-1.43155702092e-05
-7.6111127599e-06
-1.80297626644e-05
-9.99847878737e-06
-2.25145513486e-05
-1.29637689256e-05
-2.7918367803e-05
-1.65607300765e-05
-3.45789277417e-05
-2.06050061612e-05
-4.32250013239e-05
-2.39973398575e-05
-5.66079345691e-05
-2.4841314367e-05
-8.16372960474e-05
-2.44366270518e-05
-0.000126721515678
-2.4749487782e-05
-0.000192317366867
-2.50801169761e-05
-0.000279758991302
-2.22798760662e-05
-0.000394554942513
-0.000550268569445
-6.48796661218e-06
-1.60128756457e-07
-1.57111007237e-06
-3.12288366424e-07
-2.50975561655e-06
-5.34302615465e-07
-3.67813441869e-06
-8.41897664433e-07
-5.1223943239e-06
-1.25456407531e-06
-6.89807294038e-06
-1.79434916228e-06
-9.07077709455e-06
-2.48992101095e-06
-1.17160926937e-05
-3.37049956104e-06
-1.49288784409e-05
-4.48017971181e-06
-1.88060117977e-05
-5.85670763629e-06
-2.3496662223e-05
-7.56095163567e-06
-2.91355785662e-05
-9.66179834656e-06
-3.60448422431e-05
-1.2241876067e-05
-4.48343868664e-05
-1.51912288883e-05
-5.79406051507e-05
-1.71181723843e-05
-8.32124994809e-05
-1.85434917702e-05
-0.000129980542574
-2.02484390906e-05
-0.000199006869129
-2.12436508207e-05
-0.000290369123018
-1.83946090843e-05
-0.000410262047345
-0.00057430545227
-4.72493034907e-06
-4.3600973335e-08
-1.64669407327e-06
-8.59325438055e-08
-2.63103380996e-06
-1.46952601561e-07
-3.85692664654e-06
-2.29341639588e-07
-5.37418627331e-06
-3.36432012068e-07
-7.24147304008e-06
-4.69915496047e-07
-9.5305742044e-06
-6.30443988477e-07
-1.23235376176e-05
-8.16999787212e-07
-1.57234073266e-05
-1.01627555644e-06
-1.98469513435e-05
-1.22767225933e-06
-2.48399387081e-05
-1.40251044399e-06
-3.08956038921e-05
-1.59260702906e-06
-3.82494764728e-05
-1.84983593016e-06
-4.75198305913e-05
-2.94749175765e-06
-6.02606932922e-05
-4.87720536139e-06
-8.46101064151e-05
-7.70571370486e-06
-0.000131749614688
-1.06623253883e-05
-0.00020361145626
-1.21368147893e-05
-0.000298249277754
-8.65853500101e-06
-0.00042337091769
-0.000589816906829
-1.01258891071e-06
6.29008271125e-09
1.10331133029e-08
1.88073864706e-08
3.04844307707e-08
4.97529687228e-08
7.77572729164e-08
1.24906015015e-07
1.92599927404e-07
3.07198631254e-07
4.71114466797e-07
7.48324597672e-07
1.14811748442e-06
1.82968264399e-06
2.73031377887e-06
3.19841604308e-06
2.3320325145e-06
9.53011029605e-07
-1.81172218978e-07
1.38980358405e-06
1.43621630544e-06
-2.65885324227e-07
-1.60050939496e-05
-2.02178262304e-05
-2.79202094032e-07
-1.8556970492e-05
-2.24610501583e-05
-3.23013835966e-07
-2.1287627184e-05
-2.4824943106e-05
-3.57312886372e-07
-2.41326486733e-05
-2.73069431048e-05
-4.14850701444e-07
-2.71071371784e-05
-2.99479845374e-05
-4.20767099703e-07
-3.02603246689e-05
-3.27185487499e-05
-4.27819486222e-07
-3.35261821969e-05
-3.56193882508e-05
-4.83383299257e-07
-3.68151446387e-05
-3.87150162073e-05
-4.84414477203e-07
-4.0184352043e-05
-4.19556644922e-05
-4.37463386542e-07
-4.36525043834e-05
-4.52892669073e-05
-4.06086368798e-07
-4.72284256674e-05
-4.87361731203e-05
-3.81924524543e-07
-5.09150101357e-05
-5.23019344662e-05
-3.65467081765e-07
-5.4709116747e-05
-5.59837968647e-05
-3.5969601801e-07
-5.85965966352e-05
-5.97800459909e-05
-3.55789944608e-07
-6.25869475304e-05
-6.36822322643e-05
-3.57114086788e-07
-6.66670003678e-05
-6.76875986886e-05
-3.59741279921e-07
-7.08325555418e-05
-7.17879767514e-05
-3.55133181485e-07
-7.50774293115e-05
-7.59605940487e-05
-3.53613800808e-07
-7.93519591937e-05
-8.01871601547e-05
-3.38346618902e-07
-8.36745576324e-05
-8.44335507513e-05
-3.36894448716e-07
-8.79894693524e-05
-8.87022228999e-05
-3.53194988429e-07
-9.23687911536e-05
-9.30107582698e-05
-4.36359021573e-07
-9.68400981134e-05
-9.74354947523e-05
-6.27787360667e-07
-0.000101544537286
-0.000102102723148
-9.52408371343e-07
-0.000106709488291