/*--------------------------------*- C++ -*----------------------------------*\
  =========                 |
  \\      /  F ield         | OpenFOAM: The Open Source CFD Toolbox
   \\    /   O peration     | Website:  https://openfoam.org
    \\  /    A nd           | Version:  7
     \\/     M anipulation  |
\*---------------------------------------------------------------------------*/
FoamFile
{
    version     2.0;
    format      ascii;
    class       volScalarField;
    location    "0.03";
    object      Qdot;
}
// * * * * * * * * * * * * * * * * * * * * * * * * * * * * * * * * * * * * * //

dimensions      [1 -1 -3 0 0 0 0];

internalField   nonuniform List<scalar> 
815
(
127416.302127
125518.647679
121594.683778
10582.1515197
10477.5156841
10253.9406179
1020.62535749
1019.09032484
1016.42251519
215.489431116
217.455273143
221.774574729
138.361800468
139.694896426
142.695938439
139.527264475
140.51877675
142.661996342
156.292911813
157.042609807
158.707233265
181.25852177
181.928380651
183.324893366
214.463138645
215.056043077
216.325244384
256.741424616
257.346062614
258.555407615
309.510904431
310.053240221
311.185119977
373.484747576
373.908258776
374.850167556
448.462929277
448.671962482
449.165183992
532.272939565
531.967250653
531.611696038
618.798731518
617.851409867
616.153038754
698.04766347
696.039697041
692.427318093
754.849409705
751.725446952
745.850957777
773.324085269
769.076696466
760.922458597
742.144165882
737.098050638
727.258001798
661.709167064
656.435248424
645.987829191
545.904137726
541.026218354
531.216189943
416.688836487
412.622858561
404.385861258
294.83201005
291.789081703
285.545527794
193.983572253
191.886207702
187.552181908
119.027135322
117.698388283
114.928546832
68.380491379
67.5928045255
65.9448872642
36.8924661436
36.4562514852
35.5433473078
18.7397508347
18.515511587
18.0458215407
9.09513906114
8.98868630179
8.76290296594
5.13416266336
5.08683749096
4.97026209155
5.44671791135
5.40039311309
5.28183691043
116240.440116
9946.89201205
1012.76650665
228.106742762
147.09197266
145.783758019
161.046207627
185.240171934
217.97598952
260.069882732
312.503697544
375.815274946
449.434009952
530.636821114
613.302761403
686.996806598
737.432904781
749.606319388
713.887376301
632.020236798
518.247961782
393.581658763
277.39372744
181.913341436
111.328943941
63.8072388001
34.3629123299
17.440205951
8.47126721057
4.81138171626
5.11439093395
131645.308992
115182.845247
59218.7486005
22249.8804807
6296.07453845
802.100610143
41.2664206158
104966.437067
85048.4673123
63491.7272066
44251.125171
30030.6682147
21188.2803398
16875.8389675
16432.4036157
19782.7093353
27090.2173424
38258.610026
52367.4705789
66860.6272386
74011.5753666
61635.3875886
30517.9934388
12093.8745836
3256.52624093
360.78493132
19.5577141987
9284.22644963
8062.05359761
6700.41136822
5500.98462705
4746.27390235
4645.64278879
5425.06887839
7442.56147387
11161.7070988
16899.2422324
24416.409586
32639.9133756
39496.103267
40953.6799262
31998.8803194
15883.4948775
6443.39450263
1554.51807123
152.153984563
8.78026312098
1004.75699337
997.270724195
1015.79651729
1108.15918699
1354.09165659
1877.87054398
2869.17052661
4600.93040607
7385.09767241
11375.5944086
16223.4711951
20866.0331056
23609.1531128
22448.318649
16420.6327447
8305.46280976
3281.97197615
691.548186802
61.5762989983
3.7688742245
242.364246681
278.042925666
345.586104743
473.850152856
714.217073
1151.83521692
1915.21994645
3176.89992013
5114.37273201
7770.24812196
10803.2833024
13323.8033339
14108.7357495
12312.6561837
8473.53202001
4299.16508656
1584.53227631
290.632234469
24.5442367085
1.56316863155
157.055348871
182.505141802
231.862426681
326.578833355
504.022423336
824.698989443
1375.11015012
2259.51877317
3564.69075052
5266.32054782
7072.23114035
8337.64484768
8310.87495629
6754.68717679
4390.21670788
2165.353252
724.828137769
116.783990464
9.59447614512
0.629511744695
152.625956177
169.911995803
203.918976002
270.064761875
394.72756325
619.974554134
1003.34469852
1605.6360328
2458.72574581
3504.4589063
4513.01775821
5071.43146709
4790.25353379
3681.42716838
2258.63006684
1051.60678728
315.427432697
45.4765962597
3.68007589392
0.247265237972
165.906017778
177.689222859
200.858158277
246.089827676
331.088821424
483.77787929
741.299161206
1137.67969302
1675.99908876
2289.01039573
2808.47499127
2998.006776
2693.05965625
1969.16586342
1136.79599616
491.213329917
131.321166195
17.2252790094
1.38888121977
0.0952917613621
188.835222205
196.958234581
212.783476365
243.497058327
300.105990301
399.642521355
564.440704497
812.249309898
1134.44669387
1471.62342246
1710.52193057
1729.27701048
1476.9544307
1025.76013179
554.724144094
220.716725656
52.8117776803
6.36392917764
0.517742401709
0.0362536437131
220.741577329
226.424442612
237.425841721
258.526941142
295.753691587
357.888803895
456.421879611
599.084180123
774.949177095
940.480478607
1026.89497775
978.033741218
789.949073892
518.114381035
261.620009335
95.776852987
20.5730673465
2.30908231048
0.191408753852
0.0136952774226
262.191889871
266.054483359
273.739826618
288.47598623
312.671170548
348.980015274
401.02789626
470.376104867
548.155935149
608.20654914
614.82476077
546.415620587
413.271255489
253.634262309
119.312770628
40.199357596
7.79115234513
0.828140666397
0.0704347330849
0.00515869704871
313.883598189
315.893310694
320.680040626
330.510570408
345.176969292
362.875521482
381.795471025
400.037755032
412.496320637
408.106983345
373.754638356
304.875542612
212.827046194
120.840184802
52.7460573619
16.3785386812
2.88083738636
0.295091392098
0.0258815396787
0.0019431706942
376.051640277
375.460823261
376.602551368
381.150500326
386.987964774
389.208959379
382.687927435
364.333551956
333.399680811
290.236855271
235.609578757
172.522908728
109.06118822
56.5242063288
22.7620070038
6.51422870794
1.04541828483
0.104999659684
0.00952879164423
0.000733728139521
447.772032545
443.09215366
438.669576004
435.822174899
431.109471168
417.787980184
389.438535147
343.785491574
284.450702089
219.282594976
156.199217532
100.603497884
56.4065021137
26.2784805988
9.68871736383
2.54754809393
0.374880551826
0.03751266268
0.00352670094229
0.000278341464186
526.002458129
515.0599955
502.145562697
488.443776712
469.881269765
439.25821673
390.807065876
324.581749623
247.919906521
172.502776565
108.557264086
60.9915987916
29.8550233627
12.3175719025
4.12028758731
0.988560173871
0.134029562809
0.0135322509007
0.00131656773006
0.000106367547765
604.423297182
584.666470273
559.843352592
531.35982087
495.459956286
446.017915188
379.521424687
298.969302634
214.024866677
137.083687348
77.5261791134
38.2605031271
16.28742146
5.89595049304
1.77355930708
0.384320398657
0.0482820725123
0.00496008535558
0.000498125877886
4.11470109057e-05
672.698802671
641.867149471
602.248676612
556.030153343
500.943425178
433.324977309
352.742473967
264.643159522
179.178540657
107.155296166
55.4290941199
24.4233519409
9.12386956762
2.90024847613
0.780732555707
0.151063999338
0.0177197606954
0.00186066470597
0.000192283705268
1.62282605204e-05
717.115520542
674.257146069
618.95298084
554.801178069
482.054076127
400.25850521
311.81144957
223.27996459
143.631617591
80.8665896296
38.7813722005
15.5312851963
5.18012553933
1.46244939188
0.352893893416
0.0604490822974
0.0066970405986
0.000720290004483
7.63492758432e-05
6.57995623388e-06
723.793483912
670.391556767
601.882989839
523.649142868
438.828403569
349.939223928
261.129460167
178.684867104
109.413211185
58.2400688082
26.1330912927
9.65925125414
2.93174201719
0.748529744241
0.163178463297
0.0246975087085
0.00262692892534
0.000289717975969
3.14003301101e-05
2.76069651093e-06
684.526081222
624.910254072
549.285163001
464.559799543
376.194300918
288.648901456
206.594697247
135.169214253
78.8256267988
39.7563977439
16.7940183538
5.79647934621
1.62864878759
0.38378447705
0.0764041867734
0.0102828458359
0.00107156908985
0.000121349975877
1.34089159835e-05
1.20063391028e-06
602.134985315
542.531377707
467.890724433
385.778944604
302.777307895
224.073135089
154.027271822
96.3864387636
53.5403679154
25.6250800524
10.2356926763
3.32857620168
0.878493530671
0.194765604202
0.035732346793
0.00433892293352
0.000452609296857
5.27167769128e-05
5.92507609232e-06
5.38974759243e-07
490.97250688
437.413349809
371.120205783
299.263886878
228.338142625
163.34652238
107.957222903
64.6366055629
34.2146921852
15.563853108
5.90031716438
1.8202352457
0.456778119389
0.0969197756579
0.0164491831612
0.00184148974332
0.000196150424589
2.35339987272e-05
2.68561935309e-06
2.47439749486e-07
371.115829096
327.52346487
274.040740301
216.701654809
161.123875989
111.604771381
70.9892163416
40.6970800924
20.5514103952
8.90165102756
3.21319052885
0.945998109754
0.228325248372
0.0470090150127
0.00735775607187
0.000781347068125
8.63657428634e-05
1.06799548376e-05
1.23545717137e-06
1.14839327159e-07
260.541999979
228.098088402
188.530298158
146.460499396
106.295230311
71.3907750415
43.7608935021
24.055719948
11.6087636683
4.79861822416
1.65463304971
0.46763052293
0.109853418145
0.0221007957365
0.00316665748595
0.000330235050485
3.83137979103e-05
4.87846600497e-06
5.70958161025e-07
5.32543430353e-08
170.295025751
148.032336702
120.99557852
92.4548939925
65.5867362628
42.7777091988
25.3149063995
13.3711354231
6.18089764339
2.4446098621
0.808001459483
0.22065628747
0.0510789411975
0.00998463927119
0.00130763185281
0.000138968192915
1.70294435991e-05
2.22678416166e-06
2.62944569725e-07
2.44163401215e-08
103.915776484
89.7489477785
72.6054636665
54.6324081706
37.9419677497
24.0809223076
13.7917618516
7.01890348006
3.11701934702
1.18330530367
0.376431937209
0.100078240119
0.0230297979424
0.00428854189296
0.000522499458763
5.83271523101e-05
7.55265844244e-06
1.01001735334e-06
1.19832433567e-07
1.09482004074e-08
59.4035255353
51.0092667904
40.8840366104
30.3392661523
20.6702652966
12.7996817682
7.11671864958
3.50166377981
1.49922907024
0.548288023667
0.168573805525
0.0438738622608
0.0100151147133
0.00174326113454
0.000204453771878
2.42924782067e-05
3.30473473263e-06
4.49733507919e-07
5.33077085299e-08
4.71088974388e-09
31.9254690491
27.2848649775
21.6991956339
15.9141633451
10.6659908258
6.46591667419
3.5036365509
1.67363392312
0.693746535636
0.245384734727
0.0731217363251
0.0186034135926
0.00415684717696
0.000676900876498
7.85753441226e-05
9.86365991806e-06
1.39360903919e-06
1.91839629274e-07
2.25511838695e-08
1.88214325163e-09
16.183247093
13.7846115624
10.8981636063
7.91878273121
5.23741305062
3.11976006667
1.6542067158
0.770398703257
0.310426069628
0.106537477871
0.0307697052937
0.00757610692574
0.00162977905755
0.000252061330796
2.90920644529e-05
3.77637496043e-06
5.46154735034e-07
7.54770927016e-08
8.7106722152e-09
6.65185171622e-10
7.85979364914
6.68444815969
5.26616167074
3.80272411324
2.49135967114
1.46461963913
0.763622034435
0.348486240927
0.13718625285
0.0458613346475
0.0128363836974
0.00301267244603
0.000606005749093
9.0333607016e-05
1.01524326275e-05
1.31475794104e-06
1.90293467696e-07
2.59991497746e-08
2.89930435872e-09
1.95498893377e-10
4.46852608571
3.79797650377
2.98469476221
2.14476694602
1.39432776713
0.810697920319
0.41665256807
0.18677707567
0.0720279477379
0.0234992839285
0.00637810769253
0.0014109758568
0.000248524955178
3.21809875651e-05
3.30916611297e-06
4.08214992597e-07
5.75742463221e-08
7.62283751896e-09
8.04568969213e-10
4.72509884475e-11
4.74660376932
4.02130100096
3.14322457174
2.24075158956
1.44120212568
0.826302250078
0.417454818021
0.183312487447
0.0690481399093
0.021929241005
0.00576573404876
0.00121621614461
0.000192659069588
1.96408696974e-05
1.40456592454e-06
1.38084299495e-07
1.84979824928e-08
2.44245829456e-09
2.61015114503e-10
1.5986013008e-11
6.7488369687
1.46595452517
3.46938718844
0.804985907919
1.66038571397
0.403097865818
0.750361148436
0.187811432941
0.324606409294
0.0829378534969
0.135455962089
0.0351260010189
0.0548755868476
0.0143689936741
0.0217633728331
0.00573715171679
0.00850834015484
0.00225619506137
0.00330264938152
0.000881063200145
0.00127906952824
0.000343574620759
0.000495539455161
0.00013412877632
0.000192388309061
5.25129680394e-05
7.49844714251e-05
2.06529682567e-05
2.94172195224e-05
8.1870288484e-06
1.167753368e-05
3.28902345078e-06
4.72512870348e-06
1.34959826227e-06
1.96471044815e-06
5.7019281765e-07
8.44312354348e-07
2.49353428929e-07
3.75230613661e-07
1.1291402494e-07
1.71513731493e-07
5.25856756238e-08
7.98004810225e-08
2.49132615228e-08
3.73146734214e-08
1.18401978822e-08
1.73134738293e-08
5.56797660549e-09
7.87582872028e-09
2.55804477412e-09
3.4667882969e-09
1.13006532562e-09
1.44085024659e-09
4.66751800794e-10
5.42122969013e-10
1.71212254129e-10
1.73356518272e-10
5.17366373776e-11
4.35235454858e-11
1.17890064031e-11
8.44185222881e-12
2.06042100399e-12
2.3946564543e-12
5.88369700116e-13
)
;

boundaryField
{
    inletfuel
    {
        type            zeroGradient;
    }
    inletair
    {
        type            zeroGradient;
    }
    outlet
    {
        type            zeroGradient;
    }
    axis
    {
        type            empty;
    }
    leftside
    {
        type            zeroGradient;
    }
    burnerwall
    {
        type            zeroGradient;
    }
    front
    {
        type            wedge;
    }
    back
    {
        type            wedge;
    }
    procBoundary1to0
    {
        type            processor;
        value           nonuniform List<scalar> 
27
(
1295573.86504
1271879.98441
1222244.37542
1157429.21116
230294.39179
207228.378855
114056.23107
41282.6992549
11211.877922
1627.62114555
82.6347942537
1023664.59384
806908.268903
583657.805901
386701.673861
239381.792841
143910.751822
88419.5318546
59936.8681767
49577.8494484
52445.0709599
66059.1340781
88409.9275727
115313.269739
115313.269739
12.1322844741
2.40716917386
)
;
    }
}


// ************************************************************************* //
