/*--------------------------------*- C++ -*----------------------------------*\
  =========                 |
  \\      /  F ield         | OpenFOAM: The Open Source CFD Toolbox
   \\    /   O peration     | Website:  https://openfoam.org
    \\  /    A nd           | Version:  7
     \\/     M anipulation  |
\*---------------------------------------------------------------------------*/
FoamFile
{
    version     2.0;
    format      ascii;
    class       volScalarField;
    location    "0.03";
    object      T;
}
// * * * * * * * * * * * * * * * * * * * * * * * * * * * * * * * * * * * * * //

dimensions      [0 0 0 1 0 0 0];

internalField   nonuniform List<scalar> 
815
(
689.758358197
689.549587961
689.123811381
674.858029064
674.559511862
673.938960014
661.647625041
661.245901626
660.403182251
648.761064355
648.264535249
647.218510525
635.940818234
635.359179169
634.132087166
623.022105385
622.369859597
620.993272766
609.913378335
609.201878878
607.701047843
596.517201337
595.76410628
594.171142372
582.787771384
582.006182759
580.351969265
568.710010308
567.912772545
566.225579533
554.301380948
553.497668526
551.803424114
539.579414016
538.786931711
537.118790969
524.63215007
523.862852273
522.24858615
509.558427847
508.830335737
507.306040062
494.535893779
493.865028767
492.462968544
479.802191985
479.201608242
477.950605504
465.650939059
465.134843881
464.059304682
452.451616648
452.024602714
451.135152273
440.568949337
440.231258318
439.527862691
430.321871614
430.067561089
429.537127903
421.90860747
421.725830244
421.344639242
415.356180867
415.231070106
414.970023063
410.524223722
410.442543059
410.271896179
407.145067587
407.094108286
406.987419115
404.892283182
404.861791731
404.7978578
403.44755713
403.429991057
403.393137649
402.54158932
402.531958315
402.511688723
401.974714708
401.969733053
401.959148914
401.612201163
401.609782846
401.604547009
401.36368854
401.362576261
401.360100089
401.16411074
401.163527825
401.162306149
688.581480742
673.126898964
659.28465171
645.821063962
632.484923822
619.140220583
605.679574579
592.026710909
578.124848091
563.95441757
549.522968744
534.873087026
520.076240027
505.253645003
490.573371736
476.262431752
462.604946147
449.930675336
438.574243318
428.817518561
420.827334516
414.615638639
410.040155599
406.842460394
404.710963821
403.343106772
402.48418317
401.944767755
401.597407796
401.356699479
401.160621987
719.160399499
620.520128745
505.256778406
441.512210614
427.503815402
458.361159265
538.049637467
687.572792519
686.359864424
686.153693386
687.814552785
691.842919801
698.051148036
705.485536713
712.686905263
717.942864302
718.832475008
712.109141693
694.211283918
662.29179391
610.620083098
538.523334435
465.64882434
430.724913831
430.869343031
467.824279866
542.465204267
671.521923966
669.016509381
666.909937862
665.944209568
666.465813928
668.130335131
669.830082508
669.990126135
666.931001589
658.717674461
643.055063266
617.890325824
582.687568839
537.545488024
486.658159515
442.515837122
425.521111784
435.205903482
476.193859362
545.623793333
657.020627996
653.149005423
649.114002319
645.590867879
642.833551964
640.42275827
637.231675175
631.753703771
622.545053031
608.318470436
587.845154277
560.413174207
526.915743178
489.935547331
454.781649883
429.312759913
423.650789911
439.774652927
483.455443109
548.045462979
642.964169542
637.869885824
632.11894578
626.343323385
620.755666811
614.953803309
607.90525588
598.282121618
584.950521714
567.231291558
544.850791129
518.132127214
488.680189781
459.650799862
435.760177833
422.00153093
423.558177238
444.092881094
489.608498768
550.075578788
629.112414468
622.971157012
615.764315971
608.098587578
600.183874069
591.686537574
581.735140675
569.25199132
553.435124062
534.098155957
511.675904847
487.186220235
462.471636088
440.39031752
424.506510402
418.052056939
424.29775425
448.001188268
494.91713627
551.926015718
615.339975818
608.333207656
599.933529013
590.74206196
580.994312807
570.457559178
558.461372608
544.205390778
527.199223778
507.609744641
486.303044796
464.659252221
444.49017204
428.058402634
417.824944574
415.962997587
425.314098093
451.465082051
499.609590151
553.710183579
601.537317509
593.849627307
584.52009364
574.156214383
563.039611403
551.052896992
537.736045537
522.561067545
505.312414159
486.391849719
466.863821852
448.209742782
432.055923703
420.042039989
413.772302991
414.864575291
426.370305386
454.595080367
503.9081218
555.501741223
587.631262605
579.438604239
569.430594502
558.227487283
546.169454242
533.258929862
519.234812675
503.813829966
487.005776323
469.352975089
451.949451002
436.191481539
423.431612746
414.771888035
411.247217443
414.280156691
427.388935902
457.54810359
508.008140422
557.375432348
573.564543082
565.03859024
554.591659005
542.862165198
530.25190423
516.879096806
502.658131794
487.507986887
471.608373859
455.568962291
440.411594025
427.337174778
417.382902056
411.251740012
409.627479451
413.97032816
428.382017546
460.478016369
512.046003646
559.431002554
559.311957308
550.619740762
539.961772745
527.997790655
515.188736724
501.758749408
487.768797328
473.292585027
458.621253471
444.372112425
431.437187094
420.768832199
413.10159255
408.860891707
408.559436841
413.826073831
429.419274436
463.541296896
516.107239777
561.788212733
544.878856487
536.18457825
525.535176319
513.609799219
500.921745298
487.785955907
474.379293639
460.883636923
447.646569691
435.246228658
424.41467254
415.852956668
410.039184874
407.212684419
407.842618748
413.820839227
430.616068004
466.898012579
520.279958819
564.552487635
530.310645581
521.776815011
511.347385739
499.715812027
487.436813404
474.896600725
462.356676273
450.065899067
438.381759262
427.806478876
418.903509262
412.15216326
407.830291685
406.066131092
407.371420497
413.969465147
432.094005232
470.660792093
524.670265806
567.805474057
515.68045724
507.47027794
497.466692385
486.368042531
474.755995861
463.065598872
451.612632889
440.676550438
430.589218666
421.755313729
414.579683273
409.361756887
406.232229456
405.269705593
407.091625731
414.314174443
433.973399908
474.920726421
529.381342366
571.602196199
501.11188522
493.384766189
484.001625031
473.653492663
462.932256516
452.297514188
442.090054131
432.589682994
424.079986227
416.863078908
411.205856148
407.267597586
405.081554042
404.726928948
406.976789421
414.903777789
436.35921434
479.745544001
534.492752537
575.973539941
486.769080724
479.675577784
471.091132418
461.684547964
452.039035038
442.614464545
433.749950304
425.703571588
418.700479057
412.948462224
408.600481455
405.712057631
404.263113866
404.375520122
407.02075834
415.787388746
439.33287349
485.161704494
540.051271459
580.934842544
472.8694286
466.541896117
458.907831675
450.596992384
442.164343475
434.047762099
426.563378426
419.934348072
414.327187672
409.867908247
406.621731541
404.575763974
403.69415936
404.175486704
407.227956499
417.026936506
442.978302025
491.18298832
546.094856151
586.494218267
459.680254862
454.220183145
447.648386932
440.538304194
433.398187725
426.625872467
420.499800844
415.201950278
410.846414469
407.495054893
405.151209819
403.764457526
403.314433978
404.103293089
407.616213393
418.689036277
447.358370216
497.803702703
552.657189936
592.662296107
447.504784112
442.968675734
437.516752371
431.650240315
425.815404553
420.357921972
415.511668497
411.417855378
408.147077529
405.715173201
404.087378788
403.20238408
403.079617064
404.147936067
408.214572837
420.851325846
452.534664179
505.034714556
559.786281191
599.461490161
436.647175438
433.035162418
428.69463691
424.043731139
419.457342648
415.223338385
411.530285731
408.482630968
406.11769896
404.421392659
403.341704087
402.82831169
402.958944399
404.310304282
409.070667828
423.622421557
458.586456011
512.918244657
567.5573525
606.923616812
427.356385021
424.608871604
421.30366617
417.772358176
414.315778252
411.163786399
408.46249914
406.285097171
404.645206096
403.513259259
402.837147726
402.593542201
402.932364706
404.604817829
410.255270741
427.145152866
465.628868595
521.543547448
576.058300493
615.078317915
419.771665097
417.779037809
415.377202355
412.815717444
410.324750663
408.080011198
406.189763477
404.701956258
403.615503278
402.897186741
402.507355322
402.460584318
402.992770651
405.068759768
411.895263412
431.651979291
473.834526832
531.049096309
585.382128805
623.918509291
413.88886771
412.511555048
410.847546488
409.075252791
407.362276549
405.836596388
404.574478207
403.6049687
402.919830459
402.49071938
402.298584696
402.404022732
403.146949272
405.767587149
414.180600575
437.440244443
483.400182447
541.566102078
595.544233161
633.362460582
409.562847867
408.654734886
407.555396619
406.386235968
405.263292553
404.274999805
403.472118357
402.870708124
402.46125913
402.225740903
402.170560909
402.410921221
403.420328578
406.811364951
417.385094175
444.860068406
494.457242204
553.098718395
606.393343011
643.205315988
406.542863672
405.970806582
405.277515383
404.541700976
403.839803676
403.22960553
402.743069468
402.388429206
402.158746313
402.049116657
402.095142394
402.478814111
403.853319483
408.340843544
421.798759052
454.104103274
506.829963582
565.31135181
617.473826448
653.108626059
404.53083839
404.185977308
403.767975251
403.325552688
402.906653399
402.547055846
402.265936761
402.067633516
401.94988254
401.922183912
402.052717085
402.605562189
404.470566482
410.430860911
427.476769793
464.805636991
519.705961398
577.289581142
627.935486342
662.636350098
403.239135951
403.039882898
402.798470798
402.543801858
402.304495276
402.101733143
401.946637296
401.842235686
401.791554339
401.818153383
402.023655547
402.762862209
405.199970213
412.87163192
433.800894187
475.598119061
531.425000521
587.467564499
636.586726242
671.341114589
402.426733537
402.316392262
402.182704991
402.042098819
401.910902231
401.801175253
401.719353314
401.668379717
401.655673137
401.715475862
401.97487756
402.859887406
405.764246226
414.898908384
439.116416134
484.067305847
539.654018196
593.880597812
642.09490244
678.910474797
401.914457163
401.855939718
401.784949302
401.710428634
401.641300937
401.584219742
401.542958116
401.520516604
401.526456601
401.598885303
401.871442227
402.787218025
405.821278733
415.568692022
441.484658712
487.784383161
542.253139143
594.819035779
643.409442347
685.270859409
401.582163787
401.552523789
401.516455133
401.478604121
401.443624795
401.415077061
401.395149278
401.386421776
401.397598141
401.461609952
401.691024613
402.456498449
405.029060966
413.810029313
438.970767841
484.889300843
537.944271099
589.522859788
640.253296783
690.510161582
401.349329021
401.334902608
401.317293674
401.298841789
401.281857063
401.26817054
401.258974155
401.256092559
401.265820948
401.311697553
401.473208892
402.008902072
403.791140581
410.168919994
431.172229781
474.358448701
526.500133651
578.959736417
634.022804793
694.523029797
401.156920053
401.14965744
401.140823142
401.131651456
401.123309558
401.116725271
401.112519531
401.111856706
401.118979244
401.149959036
401.259982532
401.629904453
402.855327461
407.187745459
422.857560812
461.379785153
513.792333409
569.138217914
629.015311264
696.704961471
577.111155769
570.307717637
569.117379583
560.564286403
563.789024644
553.472136438
560.210493625
548.228172372
557.797788661
544.286821176
556.216234769
541.310687224
555.269778595
539.09669858
554.854217438
537.526922884
554.933515924
536.541110808
555.506737698
536.1178552
556.594055149
536.250847041
558.21904655
536.937012662
560.402121019
538.175058156
563.154307336
539.96307542
566.483318193
542.298303872
570.388160317
545.178219666
574.871879857
548.603232324
579.941390473
552.579110024
585.608954626
557.116012028
591.894550235
562.224061075
598.797514695
567.901559669
606.299291634
574.129816153
614.323276954
580.855329216
622.732800308
587.974852369
631.33027843
595.307838368
639.877835698
602.582758051
648.209518572
609.444587641
656.244410929
615.483800912
664.007046735
620.352400311
671.231494161
623.898096861
676.852252506
626.223648901
679.372958642
627.573161306
)
;

boundaryField
{
    inletfuel
    {
        type            fixedValue;
        value           nonuniform 0();
    }
    inletair
    {
        type            fixedValue;
        value           nonuniform 0();
    }
    outlet
    {
        type            zeroGradient;
    }
    axis
    {
        type            empty;
    }
    leftside
    {
        type            fixedValue;
        value           uniform 294;
    }
    burnerwall
    {
        type            zeroGradient;
    }
    front
    {
        type            wedge;
    }
    back
    {
        type            wedge;
    }
    procBoundary1to0
    {
        type            processor;
        value           nonuniform List<scalar> 
27
(
718.83255414
718.42974492
717.627612734
716.625219443
871.751648819
745.632329795
570.983283149
461.209482871
426.146824154
448.020006816
531.707368943
714.734411768
712.531864236
711.852287132
713.966471307
719.793965915
729.555584999
742.676356345
757.946425809
773.739921564
787.401426998
795.095431805
791.989622956
772.253158528
772.253158528
588.890264339
583.695786931
)
;
    }
}


// ************************************************************************* //
