/*--------------------------------*- C++ -*----------------------------------*\
  =========                 |
  \\      /  F ield         | OpenFOAM: The Open Source CFD Toolbox
   \\    /   O peration     | Website:  https://openfoam.org
    \\  /    A nd           | Version:  7
     \\/     M anipulation  |
\*---------------------------------------------------------------------------*/
FoamFile
{
    version     2.0;
    format      ascii;
    class       volVectorField;
    location    "0.03";
    object      U;
}
// * * * * * * * * * * * * * * * * * * * * * * * * * * * * * * * * * * * * * //

dimensions      [0 1 -1 0 0 0 0];

internalField   nonuniform List<vector> 
815
(
(-0.00492347962814 -2.10893457922e-11 -6.81096511449)
(-0.0125399339874 -5.75611122128e-11 -6.77765181892)
(-0.0198929171387 -8.34970068498e-11 -6.73427314674)
(-0.00883907195821 -3.63459974666e-11 -6.71555176667)
(-0.022778553104 -9.29613240212e-11 -6.68071618541)
(-0.0356711949373 -1.51584293046e-10 -6.63470741529)
(-0.0104637440811 -1.03763500176e-10 -6.59804638108)
(-0.0273379081803 -9.21991132692e-11 -6.56145662517)
(-0.0434429726167 -1.07956935231e-10 -6.51268104968)
(-0.0114971323054 -8.41429889873e-11 -6.4390806196)
(-0.0298996931402 -3.66313045494e-11 -6.40135368147)
(-0.0473914372772 -1.3190831723e-10 -6.350556485)
(-0.0125908574697 -9.78357055998e-11 -6.25953508478)
(-0.0327467268062 -7.23017859036e-11 -6.22052217088)
(-0.0519586291713 -7.58180835712e-11 -6.16766505491)
(-0.0126355221201 -8.06273078499e-12 -6.0756512874)
(-0.0328377693741 -2.25324785546e-11 -6.03628190167)
(-0.0521032992842 -3.60065388541e-11 -5.98228581988)
(-0.0130144261499 -3.31112419082e-12 -5.89007305754)
(-0.033796747254 -1.0002361707e-11 -5.85031876166)
(-0.0533845819005 -1.97192077764e-11 -5.79546285355)
(-0.012626581464 4.08966442906e-12 -5.71915944664)
(-0.0330876338517 8.86817751426e-12 -5.6799709099)
(-0.0524065159446 -3.5323716997e-12 -5.62494531921)
(-0.0123906432889 2.37227112945e-11 -5.55967737046)
(-0.03231029134 7.32189280944e-11 -5.52121574252)
(-0.0511677022919 1.05134658208e-11 -5.46644114975)
(-0.0120986054701 -3.93828978802e-12 -5.41514124907)
(-0.031587454427 -1.90976654295e-11 -5.37817858055)
(-0.0500655359221 -3.67778089617e-11 -5.32442871872)
(-0.0123886510303 5.58287520317e-11 -5.28282770829)
(-0.0320035880715 -2.18641238803e-11 -5.24740567836)
(-0.0504204505754 -8.29691022787e-11 -5.19499987483)
(-0.0120945031645 -1.31012533041e-11 -5.1602160539)
(-0.0314377972905 -3.59019636415e-11 -5.12697762903)
(-0.04970788259 -5.25227878897e-11 -5.07672784688)
(-0.0123601061485 -2.49663780801e-11 -5.04086617055)
(-0.0320096806702 -6.70907473864e-11 -5.01036073357)
(-0.0503928477337 -8.76571003459e-11 -4.9629083424)
(-0.0122782835471 -5.39225861041e-11 -4.92116891939)
(-0.0317743233461 -1.56536040732e-10 -4.89371103528)
(-0.0500578176721 -1.66812280094e-10 -4.84987004399)
(-0.012176796289 -1.40843029231e-11 -4.79768189242)
(-0.0315668458404 -4.12765832482e-11 -4.77400376849)
(-0.0497887599455 -7.90807864843e-11 -4.7346876859)
(-0.0121915072003 4.26664195449e-12 -4.67315261105)
(-0.0314366900911 1.87714782352e-11 -4.65344548949)
(-0.0494309015812 -7.20589986489e-11 -4.61944626647)
(-0.0117475233986 -1.71820607011e-11 -4.55240941494)
(-0.030479475932 -4.84360918599e-11 -4.53710133621)
(-0.0481641577563 -7.92033044276e-11 -4.50911930308)
(-0.0114710503165 -1.35981493894e-11 -4.44325112343)
(-0.0297033561224 -3.90166005582e-11 -4.43242067486)
(-0.046874573845 -6.78544637112e-11 -4.41089455659)
(-0.0109978517388 3.27078089001e-12 -4.35332206961)
(-0.0284814466885 4.85277598489e-12 -4.34685496864)
(-0.0449703092208 -2.19648690999e-11 -4.3319137167)
(-0.0104206078821 6.69023790629e-11 -4.28875870602)
(-0.0270337810211 1.9057270519e-10 -4.28638863577)
(-0.0427340759216 1.33996517425e-10 -4.27780721486)
(-0.00991681014729 4.40814148514e-11 -4.2532476825)
(-0.0256607392174 1.25434369035e-10 -4.25453727143)
(-0.0405066055113 2.96582218734e-11 -4.25167729486)
(-0.00942229049414 1.7555387685e-12 -4.24396270927)
(-0.0243640757838 3.3015994533e-12 -4.24845464721)
(-0.0384386977707 -3.34158908876e-12 -4.25050566698)
(-0.00902298220746 2.87797908724e-14 -4.25330766517)
(-0.0233665804557 -5.95920818254e-13 -4.26055534215)
(-0.036895864298 -4.66285478108e-12 -4.26652454362)
(-0.00873901142995 -6.5957507287e-13 -4.2703748423)
(-0.0226251331241 -1.88636431174e-12 -4.28008022743)
(-0.0357622222167 -4.12832058563e-12 -4.28907785142)
(-0.00830112029867 -4.00428694959e-12 -4.28938203839)
(-0.0215040838403 -4.89984817661e-12 -4.30127937215)
(-0.0340986021227 -2.58636116786e-12 -4.31242832395)
(-0.00776009103468 -8.56826596282e-11 -4.30712930963)
(-0.0200784584626 -3.47683660398e-11 -4.32117221914)
(-0.0317633547816 -1.53094724655e-12 -4.33389014045)
(-0.0066783910447 -3.77299886094e-12 -4.34509152049)
(-0.0172496493216 -1.48875687154e-11 -4.36146658244)
(-0.0272018157113 -2.30333645939e-11 -4.37557819253)
(-0.00501518727538 3.47053041418e-11 -4.42262201028)
(-0.0129596005973 -7.8373837071e-11 -4.44147358787)
(-0.0204199306602 -5.44770897868e-11 -4.45685605248)
(-0.00288954506628 -6.45607544859e-11 -4.56325085592)
(-0.00743823261742 -1.21997765462e-11 -4.58466222489)
(-0.0116911344981 2.85791716501e-11 -4.6011706648)
(-0.000665657850346 1.81852378987e-11 -4.77744561981)
(-0.00175315474551 6.21629484009e-11 -4.8022313523)
(-0.00284601809293 -3.66356513715e-11 -4.81909023169)
(0.000132282497137 -6.2839772996e-11 -5.04789689478)
(0.000581818239507 1.39690653964e-10 -5.07633562644)
(0.000420100889683 1.43584424486e-10 -5.09115072069)
(-0.0272038037659 -8.71758663924e-11 -6.68101330267)
(-0.0492380117983 -1.30592600014e-10 -6.57783758993)
(-0.0601019339961 -1.18419196765e-10 -6.45174224383)
(-0.0656057956187 -1.23980548221e-10 -6.28661650812)
(-0.0713836108665 -9.25537378529e-11 -6.1004981425)
(-0.0719156255489 -4.60276111392e-11 -5.91294645913)
(-0.0732709950757 -2.84783360519e-11 -5.7242230617)
(-0.0719492553459 -1.48605688826e-11 -5.55272712792)
(-0.0701799012251 -1.20175649954e-11 -5.3936133669)
(-0.0688996721967 -4.31487108562e-11 -5.25188603273)
(-0.0691095953263 -6.91214980427e-11 -5.12310092809)
(-0.0683836990598 -6.24377190033e-11 -5.00646209479)
(-0.0690329731693 -9.32441852733e-11 -4.89518161436)
(-0.0686352014168 -1.43149543254e-10 -4.78579462937)
(-0.0682837897892 -1.08556813528e-10 -4.67554733159)
(-0.0676736167795 -1.28970920715e-10 -4.56643309349)
(-0.0660669899925 -1.04443161655e-10 -4.46334268315)
(-0.0642170470908 -9.52922462983e-11 -4.37313348352)
(-0.0615938797503 -5.9099756679e-11 -4.30247337722)
(-0.0585214050514 1.62030293744e-11 -4.25646135347)
(-0.0554180219495 -3.20981865613e-11 -4.23759689885)
(-0.052556558323 -1.48694564817e-11 -4.24253503686)
(-0.0504607415197 -1.11435143985e-11 -4.26331903265)
(-0.0489270421431 -7.25304088372e-12 -4.28937207711)
(-0.0467835565845 -7.98102522736e-13 -4.31504835071)
(-0.0434916900334 2.20630174805e-11 -4.33797939479)
(-0.0371330878221 -3.8483864335e-11 -4.38072510319)
(-0.0278422006061 -6.02104193961e-11 -4.46280074997)
(-0.0159515641973 -6.44339680951e-12 -4.60770598155)
(-0.00393244984838 -2.05570981379e-11 -4.82548337891)
(0.0011171482651 8.27739122076e-11 -5.0958656484)
(-1.63331461262 -2.49954054331e-12 -0.455846474602)
(-1.66638601533 2.17067500381e-12 0.754859985596)
(-1.39163185288 -4.93937233401e-12 1.75243128059)
(-1.1396905418 -2.35899258052e-12 2.11014403545)
(-0.886855556451 -1.30517667434e-12 1.97799615784)
(-0.7410074459 -3.55323090875e-12 1.45606831026)
(-0.297465096458 -6.71650860913e-12 -0.153877915274)
(-0.0406233372102 -8.40444213658e-11 -6.5678213721)
(-0.0634416768691 -5.65160778309e-11 -6.33774117666)
(-0.0911793382062 -3.75008678405e-11 -6.04770820005)
(-0.128692585233 -4.33966612843e-11 -5.71793537345)
(-0.177798549937 -2.64359225426e-11 -5.3617889956)
(-0.242233119827 -2.10293598693e-11 -4.98499429085)
(-0.322169052217 -2.35489266813e-11 -4.58225829189)
(-0.423996281024 -3.19665308796e-11 -4.14569350098)
(-0.544346352789 -3.50196994053e-11 -3.66349012552)
(-0.712525921945 -5.82053034435e-12 -3.12898063733)
(-0.909752402518 7.78188523762e-12 -2.51287885441)
(-1.13192887151 6.72493382629e-12 -1.81144681514)
(-1.37219981689 -1.0823973697e-11 -1.01270164119)
(-1.63263631609 -1.04531306235e-12 -0.156231579655)
(-1.63026442597 3.25990058693e-12 0.840985987176)
(-1.41279808534 -3.87573089168e-12 1.55413318613)
(-1.18963698328 -1.97264704395e-12 1.83706780115)
(-0.953519353649 -2.49359872448e-12 1.61757194102)
(-0.764323428998 -1.06010792831e-11 0.996869130152)
(-0.287564508813 -6.84500288135e-12 -0.766168577104)
(-0.0733884470285 -1.28999008213e-10 -6.45750576697)
(-0.108930960317 -1.53961276497e-10 -6.21386674555)
(-0.148814875418 -4.24562754561e-11 -5.90705220451)
(-0.194891779737 -5.03292110347e-11 -5.5567418862)
(-0.250745236144 -2.21790901218e-11 -5.1752223895)
(-0.321077668073 -1.61692932664e-11 -4.76649501838)
(-0.407970381224 -1.85014184751e-11 -4.32595711831)
(-0.521077203784 -3.22877230524e-11 -3.84709676036)
(-0.658425969318 -1.48327609255e-11 -3.32319884696)
(-0.81863298406 -7.22782925386e-12 -2.75295976515)
(-1.00016426379 1.54518938319e-11 -2.11711191587)
(-1.19894300301 -1.09369303866e-12 -1.42260337889)
(-1.39357530657 -3.37129720134e-12 -0.678217835669)
(-1.53846922654 -6.22097110966e-13 0.0768068691153)
(-1.5080753102 1.52304809867e-13 0.851029951757)
(-1.34183936084 -2.64499679288e-12 1.35809205479)
(-1.17641131538 -1.07494939735e-12 1.53044566375)
(-0.962842344335 -2.65648856696e-12 1.25404274205)
(-0.739477712496 -7.58360515871e-12 0.46964978798)
(-0.271206371795 -8.41617534385e-12 -1.41484742769)
(-0.0901330969212 -1.35943570137e-10 -6.32312742287)
(-0.133653242945 -1.55097213652e-10 -6.06414537907)
(-0.182057889954 -6.79488082316e-11 -5.7375078133)
(-0.237712864189 -2.33926158365e-11 -5.36310326737)
(-0.302428000551 -1.59493638468e-11 -4.95397469015)
(-0.379850836879 -8.68825007653e-12 -4.51472922981)
(-0.473127867181 -7.19335973735e-12 -4.04231850268)
(-0.584140207812 -3.64389880485e-11 -3.53141976335)
(-0.713083528094 -9.90234077681e-12 -2.9773239943)
(-0.862334778299 -1.96408449389e-11 -2.38347564239)
(-1.02668035237 6.2850942068e-12 -1.75047314916)
(-1.1911946303 -4.17779616688e-12 -1.08506341968)
(-1.34446062076 -3.97479173284e-12 -0.406550457236)
(-1.40903034575 1.31627034824e-12 0.238733804935)
(-1.36781508852 2.67983032584e-12 0.822746789795)
(-1.24759387119 3.27696174743e-13 1.16210473023)
(-1.11215333999 6.55358397644e-12 1.21696418737)
(-0.940538169424 -2.91826121579e-12 0.883469377599)
(-0.699895687981 -7.6179507039e-12 -0.0760952944559)
(-0.233534913838 -1.14956313328e-11 -2.06574547791)
(-0.0983552832208 -1.36131296604e-10 -6.1515198431)
(-0.145269212218 -1.30020468844e-10 -5.88009683436)
(-0.196388564327 -6.68540883705e-11 -5.53768770219)
(-0.254564899646 -5.29753472144e-11 -5.14413881545)
(-0.321523453176 -1.48682627401e-11 -4.71246128566)
(-0.400119312855 -1.74563917898e-12 -4.24827148232)
(-0.492831657134 1.49042267537e-11 -3.75048183764)
(-0.600798553722 -1.07806743825e-11 -3.21605636505)
(-0.72320562769 3.82725594468e-12 -2.6462934982)
(-0.857442159108 -1.4463241405e-11 -2.04958413395)
(-0.998079112141 1.09926195955e-11 -1.43566878206)
(-1.12986618046 -1.15127725956e-11 -0.817875679797)
(-1.23681049948 -1.00149686759e-11 -0.221140153681)
(-1.25654199712 5.1163930995e-12 0.319038383642)
(-1.21340869624 1.26011298686e-11 0.741199057571)
(-1.13086656324 8.67655062243e-13 0.962205466073)
(-1.02901686001 2.7340507562e-12 0.917061023939)
(-0.870925951512 -2.6008987614e-12 0.49371029726)
(-0.644777190815 -4.56056288609e-12 -0.617023266649)
(-0.209561719784 -7.16783615666e-12 -2.71309855485)
(-0.105544134591 -1.36569376525e-10 -5.95921624969)
(-0.154151728443 -7.90568959068e-11 -5.67677424342)
(-0.207213095578 -5.03102630603e-11 -5.32074917678)
(-0.26724074916 -2.85842021918e-11 -4.91125240006)
(-0.335086361728 -1.19338575237e-11 -4.46181668815)
(-0.413151729088 -3.74606177953e-12 -3.97954161778)
(-0.502688752374 -3.12184399613e-12 -3.46590887357)
(-0.603665856832 -8.79121792784e-12 -2.92116052112)
(-0.713979272596 -4.89211849192e-12 -2.34995863135)
(-0.830079078709 -4.23610136824e-12 -1.76498771117)
(-0.944812236311 4.14910867258e-12 -1.18361272196)
(-1.04610504218 7.92026875031e-13 -0.624216493121)
(-1.11354736541 -1.00876501675e-11 -0.112617399973)
(-1.11507010035 4.74655895158e-12 0.323057851615)
(-1.07586916676 7.12659020207e-12 0.621178144458)
(-1.01314514286 1.8426577717e-12 0.743866485555)
(-0.945417950757 3.14916363422e-12 0.622085582799)
(-0.798720670208 -1.11052090068e-12 0.0936172618555)
(-0.584269816314 3.46812400847e-12 -1.18279514579)
(-0.188264372161 -4.8467824976e-12 -3.35637998444)
(-0.107080129427 -5.76229249137e-11 -5.76684538998)
(-0.156780631409 -5.46382732226e-11 -5.47570401401)
(-0.210149082567 -4.32783743803e-11 -5.10937852963)
(-0.269432297551 -2.68596893856e-11 -4.68827713475)
(-0.335462809043 -1.28300305128e-11 -4.22666269887)
(-0.409895913336 -5.42315076316e-12 -3.73343598645)
(-0.493283466633 -2.90098527752e-12 -3.21266102901)
(-0.584917076417 -5.885559915e-12 -2.66805789307)
(-0.681769743908 -3.56222811558e-12 -2.10739373381)
(-0.779376185098 -3.07996933055e-12 -1.54651236199)
(-0.870019913775 1.85481268759e-12 -1.00647244343)
(-0.945694480709 -3.70001045658e-12 -0.50956588728)
(-0.985421017617 -3.78543713908e-12 -0.079217781774)
(-0.978272534737 5.48625934161e-12 0.262810428883)
(-0.951024550729 7.42825186895e-12 0.470619199915)
(-0.897806213615 2.65748561066e-12 0.511477875599)
(-0.85413206151 3.58549648635e-12 0.321731731304)
(-0.724797149583 1.98002585597e-13 -0.312099654371)
(-0.522330005609 6.30776129781e-12 -1.75425024347)
(-0.166122487861 -2.49525770748e-12 -3.99496980852)
(-0.108129968509 -3.97129895914e-11 -5.57441002014)
(-0.157011475938 -4.19385938456e-11 -5.277164212)
(-0.209433339377 -4.4035133888e-11 -4.90374507687)
(-0.266871240834 -3.07808971751e-11 -4.47538815381)
(-0.33006874505 -1.7541883941e-11 -4.00729130936)
(-0.400020296794 -1.11090365138e-11 -3.51011871531)
(-0.476508950161 -3.8764730558e-12 -2.9906818977)
(-0.558329975212 -4.24644818674e-12 -2.4556971794)
(-0.641915073307 -2.50871774469e-12 -1.91569008685)
(-0.722497476074 -2.00553166842e-12 -1.38811607049)
(-0.793086715615 1.02140571395e-12 -0.895546740936)
(-0.849271599702 -3.06706036003e-12 -0.461307942876)
(-0.869463046239 -2.65504200297e-12 -0.104872949775)
(-0.859752303109 5.83729539856e-12 0.155961197548)
(-0.850899406129 7.43833273038e-12 0.294399331709)
(-0.805446603863 3.60683246222e-12 0.272340518945)
(-0.770413792681 5.22557338353e-12 0.0142390724988)
(-0.658527347386 1.12102187726e-12 -0.72998512414)
(-0.468180748852 4.90777450829e-12 -2.33830507822)
(-0.143454232637 -5.32501227194e-13 -4.63182247711)
(-0.106639845876 -2.82978705171e-11 -5.40032227597)
(-0.154528116941 -3.33261927981e-11 -5.0994058486)
(-0.205489889159 -5.58172431793e-11 -4.72246634195)
(-0.260909533525 -4.34309503836e-11 -4.2914651519)
(-0.32053646914 -2.76032659416e-11 -3.82280287028)
(-0.385330056078 -2.41342783143e-11 -3.32875447199)
(-0.454265403845 -6.29014736496e-12 -2.81858582952)
(-0.525963566761 -3.59074111059e-12 -2.30150893773)
(-0.596819759268 -1.61132289246e-12 -1.79016110839)
(-0.662181006411 -1.05681524086e-12 -1.30260399554)
(-0.716908609316 6.50923371926e-13 -0.861018865985)
(-0.757524238161 -2.99176187979e-12 -0.487643677122)
(-0.768760653234 -3.30768354771e-12 -0.195610898266)
(-0.758178012499 5.93032977157e-12 -0.00173657004811)
(-0.763535153113 7.4439468019e-12 0.0834207742334)
(-0.725806497182 5.66446298251e-12 0.015274510253)
(-0.698822360661 1.32510579319e-11 -0.306432973286)
(-0.603445747662 2.32409069881e-12 -1.16944347484)
(-0.41888876288 6.31216150395e-12 -2.93740583268)
(-0.127008439505 1.00471922661e-12 -5.27166581183)
(-0.104287995873 -2.83070907583e-11 -5.23996343747)
(-0.151398602444 -2.55183403135e-11 -4.93782256589)
(-0.200702244942 -8.30029500155e-11 -4.56101207369)
(-0.253865294873 -6.72571418261e-11 -4.13182762288)
(-0.31000644891 -4.19810826086e-11 -3.66806462214)
(-0.369900104002 -4.9214907672e-11 -3.18346273207)
(-0.432098234307 -1.00398150807e-11 -2.68933128817)
(-0.495152856212 -3.98650594694e-12 -2.19681530186)
(-0.555610384911 -1.53641914905e-14 -1.7198998614)
(-0.609398758696 4.89680188686e-13 -1.27651201079)
(-0.654277153064 2.22589856985e-12 -0.887405920849)
(-0.681603362842 -3.821713911e-12 -0.570622064432)
(-0.688234854705 -1.13782274685e-11 -0.335812772003)
(-0.679622745782 5.96230365232e-12 -0.194751319942)
(-0.69363399516 7.45762768775e-12 -0.153168116676)
(-0.661689023818 7.15789700171e-12 -0.258612293688)
(-0.642279932496 1.58668483032e-11 -0.643745107949)
(-0.557858976364 3.24940266914e-12 -1.63138462412)
(-0.376735468424 7.30444745733e-12 -3.55340192322)
(-0.115144727623 2.02529107252e-12 -5.9189039822)
(-0.102655540378 -5.26887536644e-11 -5.09853634199)
(-0.148876885875 -7.36910789476e-11 -4.79806023658)
(-0.196710763102 -7.87149699567e-11 -4.42506810977)
(-0.247619491137 -9.90990376817e-11 -4.00239109355)
(-0.300479874949 -4.95147622684e-11 -3.54897953231)
(-0.355734488201 -3.94760040723e-11 -3.07994983151)
(-0.411801368109 -1.29709276208e-11 -2.60809787624)
(-0.467214733331 -6.74736629065e-12 -2.14580729162)
(-0.518902471665 4.57551474567e-12 -1.70751874876)
(-0.564480192333 3.95666154481e-12 -1.3103508753)
(-0.599990193632 1.18383562968e-11 -0.972155873549)
(-0.618378862924 3.85283110996e-12 -0.705898350791)
(-0.625698626592 9.47648134967e-12 -0.520438398707)
(-0.619231902994 8.22021414458e-12 -0.420222348067)
(-0.638778948408 7.49571937918e-12 -0.412089308436)
(-0.610643014761 7.65978156734e-12 -0.55047839917)
(-0.599779520125 1.24167774795e-11 -0.999968129898)
(-0.520662526905 3.07893667111e-12 -2.11975602741)
(-0.341366587651 1.0016576746e-12 -4.18944668191)
(-0.107379789331 2.49724160863e-12 -6.57896459416)
(-0.102279209967 -7.15305874782e-11 -4.97133331979)
(-0.147590743211 -1.0366752053e-10 -4.67548809783)
(-0.194096418844 -7.80815556792e-11 -4.31005380045)
(-0.243056414991 -6.8415481322e-11 -3.89841422719)
(-0.293099845113 -5.369562652e-11 -3.46044876304)
(-0.344452999768 -5.83812012424e-11 -3.01245254328)
(-0.395467709012 -1.80422186898e-11 -2.56821239304)
(-0.444748718941 -1.65973797879e-11 -2.14068931671)
(-0.48993320898 1.67706175373e-11 -1.74402734083)
(-0.528616988511 5.83778344061e-12 -1.39374450277)
(-0.555883978958 1.0364440462e-11 -1.10379078727)
(-0.569967189629 1.80699033669e-11 -0.884213478361)
(-0.57977445761 5.97559343452e-12 -0.740158716204)
(-0.574244616015 1.78779630559e-11 -0.672397684739)
(-0.59848296467 7.66526494185e-12 -0.690684817844)
(-0.574453923639 7.84856473387e-12 -0.860846440454)
(-0.57127691343 1.18850266245e-11 -1.37807853692)
(-0.492300730531 3.24227907142e-12 -2.63849206986)
(-0.313381530015 2.66142550561e-12 -4.84721238048)
(-0.103961223694 2.84705128192e-12 -7.25823924865)
(-0.101527910952 -7.43723908408e-11 -4.85800396549)
(-0.146374115839 -7.81640383804e-11 -4.57006054882)
(-0.191946318841 -7.41185838981e-11 -4.21626314973)
(-0.239298359055 -6.37387070834e-11 -3.82034339448)
(-0.286968838636 -4.77156010152e-11 -3.40288973816)
(-0.334996704536 -3.51298332759e-11 -2.98100450565)
(-0.381812093442 -1.54760352619e-11 -2.56900806776)
(-0.42622458393 -4.96885379977e-12 -2.17981991033)
(-0.466235474206 1.13513896241e-11 -1.82658949291)
(-0.498579715703 7.49327877486e-12 -1.52231370044)
(-0.520828046195 1.08150313943e-11 -1.27773201486)
(-0.533894435608 1.1381853471e-11 -1.10008083246)
(-0.546706985152 6.98607087612e-12 -0.990120989173)
(-0.542426971804 1.20622671267e-11 -0.948508727632)
(-0.572043949459 7.47306984642e-12 -0.988506862826)
(-0.550905269246 6.2746150266e-12 -1.19003035477)
(-0.553100888291 1.08988899719e-11 -1.78120757966)
(-0.47138318406 3.04985644678e-12 -3.19054697339)
(-0.292071604087 2.16915016001e-12 -5.52873635921)
(-0.103059449775 2.86253996684e-12 -7.9622892039)
(-0.101828717183 -1.00390322311e-10 -4.75204527555)
(-0.146060818108 -8.46205621458e-11 -4.47579032206)
(-0.19069002123 -7.478877616e-11 -4.13810011421)
(-0.236538960084 -5.77963784244e-11 -3.76285739574)
(-0.282067541998 -3.99744293962e-11 -3.37099240208)
(-0.327204579861 -2.34416961287e-11 -2.98003955141)
(-0.370543208434 -1.43785673415e-11 -2.60436030671)
(-0.41108775133 -5.60611552674e-12 -2.256323989)
(-0.446415345761 1.88879967819e-11 -1.94732396351)
(-0.474054452172 9.13139051058e-12 -1.68777242548)
(-0.494535261737 1.23487550421e-11 -1.48552397349)
(-0.507768390823 1.45671552245e-11 -1.34469235096)
(-0.524031801177 5.97176800787e-12 -1.26300973285)
(-0.521937774663 1.19206707852e-11 -1.24251660418)
(-0.556493609889 7.97298561212e-12 -1.30123484823)
(-0.538329755533 -7.66306080333e-14 -1.53506807637)
(-0.543712852332 1.08164663102e-11 -2.2102867187)
(-0.456604047393 2.59530583061e-12 -3.77716662277)
(-0.276569263161 1.77585634141e-12 -6.23645922663)
(-0.103335169294 2.85009587097e-12 -8.69578179411)
(-0.101332522702 -1.56713425741e-10 -4.65022925149)
(-0.145154951473 -1.001737822e-10 -4.38968525674)
(-0.18894537962 -8.73891511757e-11 -4.07283348326)
(-0.233452432956 -5.3413374448e-11 -3.72329522608)
(-0.277048502568 -2.85376612133e-11 -3.36199218133)
(-0.319679739946 1.37248295302e-12 -3.00637674197)
(-0.360169020807 -1.43383375117e-11 -2.67040511418)
(-0.397140667547 -2.06299793584e-11 -2.36532713202)
(-0.428735318962 -1.78181022862e-12 -2.10048168392)
(-0.453749169672 8.71492394056e-12 -1.88389572135)
(-0.474515355212 1.48529476674e-11 -1.72033327705)
(-0.488701764519 2.48905663945e-11 -1.61142742276)
(-0.509082422577 -3.24972222668e-12 -1.55321295071)
(-0.510160111586 1.19154486621e-11 -1.54975766848)
(-0.549046641575 1.49155635652e-11 -1.62567525515)
(-0.5338119457 4.0662340019e-12 -1.89538541141)
(-0.541195459462 1.38889212216e-11 -2.66790348373)
(-0.446620531733 1.29098255724e-12 -4.40021988384)
(-0.266434041307 1.22395266997e-12 -6.97339436658)
(-0.10482269355 2.76692035247e-12 -9.46254316396)
(-0.100723993717 -1.4241502082e-10 -4.55000612571)
(-0.143951567388 -1.15059457008e-10 -4.30944317246)
(-0.186812969281 -1.25053112521e-10 -4.01829129006)
(-0.229939450256 -5.5239378917e-11 -3.69944965321)
(-0.271728320939 -2.38391855169e-11 -3.37336243529)
(-0.312141664884 -4.62906684716e-12 -3.0568897093)
(-0.350054844621 -1.12884114045e-11 -2.76308876028)
(-0.383920204993 -9.72401411234e-12 -2.5017177441)
(-0.413295207333 2.62151360697e-12 -2.28012525436)
(-0.437214704568 4.76167260663e-12 -2.10395532077)
(-0.45956675157 1.4739576633e-11 -1.97515801342)
(-0.47545628211 1.96944075487e-11 -1.89365394368)
(-0.500140614346 3.36193006788e-12 -1.85486208739)
(-0.50509561957 1.10125388919e-11 -1.86570053941)
(-0.547551738045 1.1709300007e-11 -1.95902907444)
(-0.536951009569 3.61541249775e-12 -2.27053650425)
(-0.543631473224 8.78316028245e-12 -3.15641820082)
(-0.438969036748 -2.51734135254e-12 -5.06094410436)
(-0.260142904531 2.42385958383e-13 -7.7422220145)
(-0.105770785733 2.49923502709e-12 -10.2659135295)
(-0.0995528270262 -2.16334571509e-10 -4.45332112043)
(-0.141935695608 -1.24209137164e-10 -4.23683358311)
(-0.183689568938 -9.09274105045e-11 -3.97589599724)
(-0.225370252793 -5.81340643701e-11 -3.69220595548)
(-0.265444504543 -1.65841300865e-11 -3.40518186978)
(-0.303857751329 1.52633817485e-11 -3.13059122285)
(-0.33947080345 -8.88543884587e-12 -2.88014053326)
(-0.371048158524 -9.75767590428e-12 -2.6620126219)
(-0.399587027943 -2.96486970465e-12 -2.48163547865)
(-0.4234894537 -1.17987954788e-11 -2.34238627322)
(-0.448399502245 1.60530399562e-11 -2.24409322266)
(-0.466793667838 3.04916697722e-11 -2.18555660661)
(-0.496614253062 4.7907564252e-12 -2.16275288186)
(-0.506377278408 1.09130307899e-11 -2.1860742283)
(-0.550484325254 1.56534488223e-11 -2.29874129759)
(-0.545877764029 2.92616922262e-12 -2.66088511299)
(-0.549178521257 5.83095795264e-12 -3.67831885775)
(-0.432459550448 -9.11960571154e-12 -5.76102261767)
(-0.256863375746 -1.14595686383e-12 -8.54558677352)
(-0.106142317357 1.8225206215e-12 -11.1088697134)
(-0.0972981877895 -1.35500342003e-10 -4.36467789916)
(-0.138653603578 -1.32236425126e-10 -4.17577106188)
(-0.179197060165 -9.75446331281e-11 -3.94884212976)
(-0.219413087864 -8.68673291149e-11 -3.703808007)
(-0.257915683818 -2.08569803908e-11 -3.45851226555)
(-0.294448008425 -1.10010209924e-12 -3.22716956358)
(-0.328269188884 -1.22728735366e-11 -3.01985931366)
(-0.358627500675 -9.68235474665e-12 -2.84321209742)
(-0.387494189162 -3.66764339256e-12 -2.70086107053)
(-0.412357523366 -1.1831193076e-12 -2.59440832899)
(-0.440670104363 1.54813646904e-11 -2.5221997058)
(-0.462507760099 2.47477826693e-11 -2.48251767713)
(-0.497715948943 7.87606947733e-12 -2.47281257222)
(-0.513424183604 8.81700848791e-12 -2.50738680357)
(-0.557485479878 3.26494483939e-12 -2.64296195368)
(-0.559670571793 -1.11681396631e-12 -3.06740440535)
(-0.556551228322 3.63298913039e-12 -4.23622440154)
(-0.425949437731 -4.93388253599e-12 -6.50065235155)
(-0.255435400536 -2.52532352283e-12 -9.38438337963)
(-0.105698679471 6.00640988815e-13 -11.9921699595)
(-0.0943414566645 -1.35514826234e-10 -4.2903828209)
(-0.134288519478 -1.77035081804e-10 -4.13146026936)
(-0.173402264222 -9.6829759491e-11 -3.94096792238)
(-0.212085377826 -6.58446402565e-11 -3.73651182426)
(-0.249067732147 -2.20816582053e-11 -3.53386001224)
(-0.283981893251 -7.7695007876e-12 -3.34536318907)
(-0.316838184805 -2.74303493033e-11 -3.17941859272)
(-0.346973073993 -1.17734016321e-11 -3.04118544702)
(-0.377194339581 -5.61130861418e-12 -2.93278930116)
(-0.403994286095 -1.20174253189e-12 -2.85453836493)
(-0.436383559873 1.44584606455e-11 -2.80398197206)
(-0.462200338234 3.55118797553e-11 -2.77947053206)
(-0.5023102306 1.7885300414e-11 -2.78061051605)
(-0.525896245902 7.82249182535e-12 -2.82669937203)
(-0.568000211145 1.54268559992e-12 -2.99009561261)
(-0.576667449952 -1.49317693323e-11 -3.49173689943)
(-0.5640205075 1.13033358221e-12 -4.832614424)
(-0.418659493717 -5.11603636322e-12 -7.27977208892)
(-0.254637519616 -4.84825969602e-12 -10.2589219996)
(-0.103233725413 -7.32438580193e-13 -12.9156646568)
(-0.090389982212 -1.05430398313e-10 -4.23615021058)
(-0.128703495979 -1.1144063519e-10 -4.10792842948)
(-0.166298463745 -8.27375007162e-11 -3.95436853297)
(-0.20347727533 -8.24108283137e-11 -3.7903470046)
(-0.239141237261 -2.5991131384e-11 -3.62922466154)
(-0.273057851263 -1.10037873992e-11 -3.48135603445)
(-0.30591861 -1.9117013726e-11 -3.35351301221)
(-0.336887058494 -1.88153032798e-11 -3.24951846528)
(-0.369368415839 -1.14511513648e-11 -3.1703832824)
(-0.399106391798 -2.70713888082e-12 -3.11554752409)
(-0.436252446964 1.60361722205e-12 -3.08240733282)
(-0.466500362732 2.87490563461e-11 -3.06992178205)
(-0.511800599028 1.33255669357e-11 -3.08054760377)
(-0.544251667298 7.07115289194e-12 -3.13932106733)
(-0.58183236787 -5.44476079313e-12 -3.33734199001)
(-0.596527018144 -1.95913034263e-11 -3.93553094067)
(-0.571156541206 -3.56456176081e-13 -5.4686425298)
(-0.411093316571 -5.469333998e-12 -8.0967007398)
(-0.254380199819 -8.5025609619e-12 -11.1676853016)
(-0.1012621192 -2.15072065897e-12 -13.8774004409)
(-0.0858193200283 -8.08493051752e-11 -4.20605391409)
(-0.122369104106 -7.09992306661e-11 -4.10732525221)
(-0.158446653043 -3.26497980195e-11 -3.98902105084)
(-0.194280194015 -2.60704903579e-11 -3.86310243087)
(-0.229138288734 -2.33095355943e-11 -3.74041293342)
(-0.262925369924 -1.53447724001e-11 -3.62930636129)
(-0.296749264239 -2.5633193246e-11 -3.53504466597)
(-0.329499706712 -4.62672555454e-11 -3.46030936473)
(-0.365099082346 -3.1685364027e-11 -3.40538736835)
(-0.398684506956 3.90868660179e-14 -3.36923631304)
(-0.441004114574 8.93732134935e-12 -3.34966864768)
(-0.476094918238 3.80812823427e-11 -3.34656679169)
(-0.525393411418 1.27137421608e-11 -3.36622856043)
(-0.567125754712 1.28358038318e-11 -3.44021275214)
(-0.600144645723 8.01886472613e-12 -3.68259761403)
(-0.617679139138 -1.26754694314e-11 -4.40123277486)
(-0.576128739449 1.04352464398e-12 -6.1463655025)
(-0.402514634664 -5.7650749085e-12 -8.94995095041)
(-0.253322954363 -1.26801747625e-11 -12.1094708236)
(-0.0979029472737 -3.51126599995e-12 -14.8764925384)
(-0.0811486874363 -1.20332863111e-10 -4.20149265412)
(-0.115952948681 -1.75153225671e-11 -4.12919224206)
(-0.150709129876 -9.17059287308e-11 -4.04240886249)
(-0.185666853023 -7.5920945852e-11 -3.95028821518)
(-0.220453473486 -2.80778445456e-11 -3.86122074653)
(-0.255009064279 -1.79513610742e-11 -3.78166982184)
(-0.290617855433 -2.34867938251e-11 -3.71556180351)
(-0.326077532361 -2.50731222781e-11 -3.66465618512)
(-0.36548894901 -1.62217667127e-11 -3.62884328751)
(-0.40368554999 1.29327828534e-11 -3.60690395615)
(-0.451072475385 -6.84189254232e-13 -3.59762047921)
(-0.491990699923 3.62273906301e-11 -3.60203143197)
(-0.545498993368 2.32311913853e-12 -3.63105345027)
(-0.59604122563 -3.79184317719e-13 -3.72501744025)
(-0.624938965554 -4.95311987477e-13 -4.02506469967)
(-0.641385020782 -9.74379366948e-12 -4.89405854036)
(-0.580206658741 6.77312445628e-12 -6.86835435873)
(-0.395934602804 -5.06484295012e-12 -9.83901797611)
(-0.253871092677 -1.04599704587e-11 -13.0847109808)
(-0.0984564155923 -4.6258969795e-12 -15.9146653525)
(-0.0769133311666 -2.95929927075e-11 -4.21845279785)
(-0.110311731586 1.61023533033e-11 -4.16825696315)
(-0.144238110642 -4.4607644349e-11 -4.10784822419)
(-0.178995940227 -4.58535153439e-11 -4.04387856967)
(-0.214447705534 -2.66774098321e-11 -3.98253133065)
(-0.250560654382 -1.82071662367e-11 -3.92856610547)
(-0.288633189778 -1.74776201508e-11 -3.88476789295)
(-0.32755827945 -4.02688999076e-13 -3.85219703682)
(-0.371080678308 -1.27460314986e-11 -3.83060564367)
(-0.414474331307 5.16094240204e-12 -3.81895680063)
(-0.467029877449 7.39897389722e-12 -3.81713300564)
(-0.514286397192 2.59198274721e-11 -3.82785399667)
(-0.572140880576 5.51348905718e-12 -3.86703725129)
(-0.628699782384 1.65877622712e-12 -3.98809057606)
(-0.656558235792 -3.63782495315e-12 -4.36361947764)
(-0.66680013406 -7.98329384123e-12 -5.41962603707)