/*--------------------------------*- C++ -*----------------------------------*\
  =========                 |
  \\      /  F ield         | OpenFOAM: The Open Source CFD Toolbox
   \\    /   O peration     | Website:  https://openfoam.org
    \\  /    A nd           | Version:  7
     \\/     M anipulation  |
\*---------------------------------------------------------------------------*/
FoamFile
{
    version     2.0;
    format      ascii;
    class       volScalarField;
    location    "0.07";
    object      alphat;
}
// * * * * * * * * * * * * * * * * * * * * * * * * * * * * * * * * * * * * * //

dimensions      [1 -1 -1 0 0 0 0];

internalField   nonuniform List<scalar> 
814
(
0.000204749503501
0.0001263479846
1.62677734625e-05
0.000168358897611
0.000105010093974
1.40083503179e-05
0.000152942145449
9.61705878555e-05
1.30825473771e-05
0.000128636038545
8.88956420954e-05
2.75228153486e-05
0.000115828682565
8.73224968907e-05
4.97551088384e-05
0.000107071015199
9.1010784818e-05
7.32392687375e-05
0.000105075741732
0.000101401580445
9.72481908433e-05
0.0001113115118
0.000117449133892
0.000122735904313
0.000126018156878
0.000139240600984
0.000151908500826
0.000149999665515
0.000167641357994
0.000186220367163
0.000183564454016
0.000202916666655
0.000225029744459
0.000225322529094
0.000243275558124
0.000265313953412
0.00026983980812
0.000283843996713
0.000301706813436
0.000308136041539
0.000316475823337
0.000326922556572
0.000327617284096
0.000330539165748
0.000332134959099
0.000316728796003
0.000315370044551
0.000309945082779
0.000279015947823
0.000276285084362
0.000269070995656
0.000242974158355
0.000241613186246
0.000238135279658
0.000236318275536
0.00023689599078
0.000237377304614
0.000244820517263
0.000245309105341
0.000245125357655
0.000239482368421
0.000238997645594
0.000237510582568
0.000232432543846
0.000231696553937
0.000229682180425
0.000233238994294
0.000231842889811
0.000228729687207
0.000236785969648
0.00023508880111
0.000231087916241
0.000244160123566
0.000241595873371
0.000236747608837
0.000249161462326
0.000247132975566
0.000242111304826
0.000253231531938
0.000250740204469
0.000246527242403
0.000252812446203
0.000251860651454
0.000249109983038
0.000271604206766
0.000270721026611
0.000270082404434
0.000317108239494
0.000316782592311
0.000315179814321
0.000284029292565
0.000282592318806
0.000280947802658
0.000246829662001
0.000247103216504
0.000246958291455
0.000271779632739
6.45267908168e-05
8.33469397836e-05
0.000103804069586
0.00012858233627
0.000160427283515
0.000198634638907
0.000239723810232
0.000279016358488
0.000311019573946
0.000329240575617
0.000326332800392
0.000298333365576
0.000257972483384
0.000233018891885
0.000236465063889
0.00024335838742
0.000234746299085
0.000226600014691
0.000224415802213
0.00022547351669
0.0002299974216
0.000235337769476
0.000240419064367
0.000245501278644
0.000268716029338
0.000313082724612
0.000278289438558
0.000246906033437
3.13115235036e-05
0.000179520912619
0.000262525678672
0.000298667456064
0.00031940615899
0.000339419690248
0.000362785513266
0.000391402895376
0.000420211563772
0.000448013035999
0.000469411794483
0.000484452213702
0.000489579920195
0.000487307508403
0.000475734495049
0.000462503895514
0.000445162318328
0.000431776204193
0.000403605835245
0.000117151585626
7.1615835673e-05
9.69430904518e-05
0.00020459343729
0.000266871988075
0.00031737275824
0.000347040871937
0.000373684845016
0.00040075293371
0.000426772227761
0.000451362481715
0.000471029753174
0.000484643285093
0.000489964522333
0.000487813121161
0.000477828225617
0.000464702752277
0.000449231872478
0.000435034229401
0.00039605542404
0.000119016184115
0.000124581769499
9.65821389788e-06
2.92304013688e-05
0.000146232984405
0.000263709782185
0.000340710310776
0.000376272288746
0.000407925830357
0.000435968610335
0.000460672034552
0.000479563654552
0.000491905342374
0.000496330663784
0.000493322428958
0.000483059316665
0.000469209095782
0.000453639209155
0.000438513599183
0.00039121484126
0.000120654598073
8.35299634755e-05
8.46831587428e-06
3.26002724447e-06
8.86265494517e-06
4.94100011765e-05
0.000178207368996
0.000304829716408
0.000384630779882
0.00043627964573
0.00047252923951
0.00049502243296
0.000506898238639
0.000509400978566
0.000504413811555
0.000492250278414
0.000476848327042
0.000459800333378
0.000443627400611
0.000387189357049
0.000135772908546
3.36846623352e-05
1.34679990777e-05
6.29429525422e-06
2.79814026441e-06
4.79604526469e-06
2.64538153101e-05
0.000112369481235
0.000258603096332
0.000386853853679
0.000464983782168
0.000505610736099
0.000522287165896
0.000524015028576
0.000517017157225
0.00050243492806
0.000485324317124
0.000466444862817
0.000449368113335
0.000385856772022
0.000139197686579
4.3519060252e-05
2.50027298348e-05
1.08482149672e-05
3.92061447088e-06
2.98164462214e-06
1.14371837124e-05
6.34174123755e-05
0.000187153959035
0.000332282391399
0.000438226218355
0.000503487498186
0.000532917634486
0.000537546121159
0.000529512921162
0.000512694998417
0.000493815295512
0.000473187517982
0.000454721082762
0.000384951132629
0.000145006295523
7.01494989403e-05
4.12150460882e-05
1.58592770159e-05
4.60377987016e-06
3.40765396611e-06
1.12195146215e-05
5.50596807878e-05
0.0001558973946
0.000283520556727
0.000400648663968
0.000487748524559
0.000535844074635
0.000548526785634
0.00054133758911
0.000522815922648
0.000502095007874
0.000479815200646
0.000459294861649
0.000382213482224
0.000152008568925
0.000109716457417
6.47497986292e-05
2.33278599741e-05
5.74505844235e-06
4.07834210136e-06
1.09287282097e-05
4.58836528917e-05
0.000126359430344
0.000236438633754
0.000358140791152
0.000462563370741
0.000530601650128
0.000556161131661
0.000552587477708
0.000533209886583
0.000510641267079
0.000486666435552
0.000463774844761
0.000377626408233
0.000158022009553
0.000156826597363
9.56695962222e-05
3.35822132515e-05
7.92482906914e-06
4.72128775667e-06
8.91216005092e-06
3.31948374527e-05
9.60151662939e-05
0.000193630238445
0.00031439581101
0.000432152978504
0.000517887471848
0.000559303233223
0.00056283710875
0.000544009292247
0.000519800906795
0.000493992133936
0.000468646070124
0.000372582046897
0.000162236417759
0.000205403002218
0.00013317246573
4.67021743499e-05
1.19679801461e-05
5.83109567792e-06
6.9929568916e-06
2.16349257011e-05
6.89788278264e-05
0.000155936221929
0.000272153491618
0.000398100205396
0.000498410297777
0.000556547290637
0.000570879229629
0.000554808663551
0.000529555964051
0.000501819790095
0.000473877641647
0.000367754979944
0.000165467893186
0.000249509188825
0.000171061971576
6.20302890989e-05
1.67150962356e-05
7.8180928887e-06
6.62902184008e-06
1.49444620201e-05
4.94091342644e-05
0.000124652980305
0.000233422532418
0.000360373046685
0.000473102600292
0.000547090586463
0.000575168444836
0.000564821337351
0.000539677594578
0.000510096566977
0.000479262996719
0.000362904033387
0.000168212356189
0.000284461035414
0.000200284940057
7.71019416212e-05
2.14858724491e-05
1.13112539454e-05
8.42336091447e-06
1.26142682561e-05
3.70190062125e-05
9.89261358051e-05
0.000197854809985
0.000320999893949
0.000442859678133
0.00053095771392
0.000574377563994
0.000573060358138
0.000549836149559
0.000518787120141
0.00048466981357
0.000357757709402
0.000170570589911
0.000307301612012
0.000215124347237
8.8014822598e-05
2.69362299095e-05
1.73912567249e-05
1.34025030272e-05
1.33949889892e-05
2.92172786497e-05
7.72425425414e-05
0.000164402479154
0.000280896493557
0.000407845694717
0.000508815873164
0.000567729026483
0.000578435996767
0.000559582091029
0.000527841731377
0.00049006048557
0.000352491565712
0.000172547145153
0.000313454385559
0.000215233355068
9.1974241642e-05
3.34022436307e-05
2.70328357796e-05
2.26348324174e-05
1.67495846829e-05
2.37584015099e-05
5.7574118777e-05
0.000131117410237
0.000240251364729
0.000368153627898
0.000481150613053
0.000554998896564
0.000579901175557
0.000568292188449
0.000537131731283
0.000495443202445
0.000347368342738
0.000174247608086
0.000298454947882
0.000201045341898
9.24915204456e-05
4.41739786791e-05
4.14926686918e-05
3.59473495134e-05
2.35812231334e-05
2.11433330936e-05
4.01016291673e-05
9.7171096032e-05
0.00019717744913
0.000323661704113
0.000447974174623
0.00053635741175
0.000576684121789
0.000575206194573
0.000546411354495
0.000500850017645
0.000342856257115
0.000175805281183
0.00026515160153
0.000181735600694
9.82569127109e-05
6.26541655635e-05
5.94833212269e-05
5.25527333062e-05
3.59686629026e-05
2.36497492728e-05
2.84322395985e-05
6.5572027756e-05
0.000151768775499
0.000275604662764
0.000408388058726
0.000512210756265
0.000568523644893
0.000579552217458
0.000555314769034
0.000506315932611
0.000339444576218
0.0001773349547
0.000232383884768
0.000174032192177
0.000117341524859
8.73780658889e-05
7.82167949641e-05
7.28233253284e-05
5.41384424437e-05
3.23490978103e-05
2.50240389237e-05
4.30514954716e-05
0.000108948519701
0.000226295201187
0.000364628933335
0.000483458151141
0.000555596375159
0.000580708332144
0.000563367888547
0.000511837528627
0.000337425029181
0.00017891558611
0.000220846822798
0.000185139171621
0.000144844748264
0.000112316543007
9.41759632364e-05
8.87188067493e-05
7.33677090948e-05
4.53491099511e-05
2.79585420213e-05
3.2204432205e-05
7.76516457686e-05
0.000182980197567
0.000321510176699
0.00045207624548
0.000538729490601
0.000578362157322
0.000570035771208
0.000517343320148
0.000336907828767
0.000180603508549
0.000230547501104
0.000204668749917
0.000167205005652
0.000129656330048
0.000103903805967
9.61567725944e-05
8.75410663167e-05
5.76849936362e-05
3.28757786121e-05
2.93714236077e-05
6.14868971937e-05
0.000152884468471
0.000285847165847
0.000420234693031
0.00051885888966
0.000572422818354
0.000574728383198
0.000522619295832
0.000337854729402
0.000182426449641
0.00023578869469
0.000210452137873
0.000174223858158
0.000134718314026
0.000106245341686
9.66702352657e-05
9.5852644733e-05
6.47167609509e-05
3.58808354071e-05
3.05462692604e-05
5.93430140038e-05
0.000140387194843
0.000260716994273
0.000389314815035
0.00049575831535
0.000562204856217
0.00057670661578
0.0005272903382
0.000340096032185
0.000184385231497
0.000226599505475
0.000204495122561
0.000170215253262
0.000131675521745
0.00010414225882
9.33714220391e-05
9.87380177442e-05
6.27249137017e-05
3.6764038213e-05
3.71087928928e-05
6.74381787633e-05
0.000136288535775
0.00023746636896
0.000354366275069
0.000466478328407
0.000546017139204
0.000574670018263
0.000530611700147
0.000343277903345
0.000186409518981
0.000218443225721
0.000196477620667
0.00016245903487
0.00012524031326
9.96380784098e-05
9.2496842773e-05
9.33503798317e-05
6.45965610059e-05
4.77314135256e-05
5.17333995834e-05
7.4843553586e-05
0.000123524098923
0.000201577517592
0.000305295761797
0.00042182734223
0.000519167395514
0.000566170119983
0.000531406861179
0.000346786767239
0.000188353003649
0.000213927150331
0.000189019958354
0.000154101990268
0.0001192363966
9.53901716617e-05
9.0186202288e-05
8.78045217956e-05
7.49969518716e-05
6.63475292295e-05
6.51848770408e-05
7.29603780505e-05
9.67205331803e-05
0.000147557235226
0.000232867458759
0.000350587338661
0.000472260527278
0.000546287116982
0.000527586189553
0.000349658909971
0.000190004990273
0.000212898385141
0.000185522388777
0.000150142258239
0.00011625618385
9.34394514613e-05
8.85223819371e-05
8.86730391056e-05
8.45138407459e-05
8.13269671225e-05
7.88780845415e-05
7.54875288727e-05
7.75962484691e-05
9.74596095202e-05
0.000150991130784
0.000252899669066
0.000394117985989
0.000507014415439
0.000515521154996
0.000350393282535
0.000191122924993
0.000215689593105
0.000186749382871
0.000151032104236
0.000118024922554
9.59987482173e-05
8.89390619736e-05
9.14708941214e-05
9.22670227988e-05
9.29832814507e-05
9.41667524897e-05
8.93816693481e-05
8.0432871897e-05
7.67293547036e-05
9.4247937478e-05
0.000157656780333
0.000288186046723
0.000440343891631
0.000490400711209
0.000346974504037
0.000191480522315
0.000220788502541
0.000191924233676
0.00015756815286
0.000126207223321
0.000105032370131
9.57456469097e-05
9.70793715373e-05
0.000100799455442
0.000104493390458
0.000109618520851
0.000109426487585
9.97496280668e-05
8.37954096197e-05
7.50455822776e-05
9.71685201115e-05
0.000186398407617
0.000348600968695
0.00044765875639
0.000336964668042
0.000190852875402
0.000227793491035
0.000202705356564
0.000172383023305
0.000144308656447
0.000125695707531
0.00011781634635
0.000117520518721
0.000119706043602
0.000121324936613
0.00012436636421
0.000127327913505
0.000124730149368
0.000107282951134
8.19939764793e-05
7.44338452199e-05
0.000119386560763
0.000255723230579
0.000389203052099
0.000318340607301
0.00018915523861
0.000237311501916
0.00022044365577
0.000199385583723
0.000178903978384
0.000163042728332
0.00015499627583
0.000152835030099
0.000150873023009
0.000146255533691
0.000140757528855
0.000137990706831
0.000142837656952
0.00013450561858
0.000101503523968
7.4454013428e-05
8.6334392729e-05
0.000183157086026
0.000323850081689
0.000290677374576
0.000186413894357
0.000266076792491
0.000259367028856
0.000247771207518
0.000230936905032
0.000212367840713
0.000196108833536
0.000182904507712
0.000170458226979
0.000156878790697
0.000143616591936
0.000136851680504
0.000145333864696
0.000152250120946
0.000120076747945
8.1281367698e-05
7.58945579544e-05
0.000145505734587
0.000268850038506
0.00025597252012
0.000182491084109
0.00030763835089
0.000295139499136
0.000277445011964
0.000255909376258
0.000232608203618
0.0002095908153
0.000187797813351
0.000167094737742
0.000147434725799
0.000130234331589
0.000121670784572
0.000132759677703
0.000150751438716
0.000126989324257
8.30698268554e-05
7.47910069505e-05
0.000137614341952
0.000233778470961
0.00021887612533
0.000177317064686
0.000273326013729
0.000263558678965
0.000250706573131
0.000235071833348
0.000216838017707
0.000196061285438
0.000172827143374
0.000148998983001
0.000127487961177
0.000112511568129
0.00010785761817
0.000117625942135
0.000133735755121
0.000114208116417
7.60246092581e-05
8.0751092803e-05
0.000149365975937
0.000205332487155
0.000182008509636
0.000170748627677
0.00024643222667
0.000244237302529
0.000239360862346
0.000229944932609
0.000214033182238
0.000190549778672
0.000160439772736
0.000132009961395
0.000110541414283
9.74133598378e-05
9.53006526032e-05
0.000103563659491
0.000109102748795
0.00023095194097
0.000120305074662
0.000178845909794
0.000156927424612
0.00017890569227
0.000177073654964
0.000176085284324
0.000174204302295
0.000173488925322
0.00016477995548
0.000170703414066
0.000153538960457
0.000168386564134
0.000142341824542
0.00016606610572
0.000131678815353
0.000163649523997
0.000121691479375
0.000161038963197
0.000112420033001
0.000158256759846
0.000103850195535
0.000155347763643
9.59461907878e-05
0.000152368023877
8.86956316419e-05
0.00014938963153
8.20939253264e-05
0.000146486619751
7.61122557e-05
0.000143713432129
7.07389046568e-05
0.000141138747541
6.59890473364e-05
0.000138797087553
6.18886425636e-05
0.000136680672538
5.84717896727e-05
0.000134766076406
5.57848022056e-05
0.000133013740909
5.38559300011e-05
0.000131456784484
5.26978516749e-05
0.000130105337271
5.2249088404e-05
0.000129012095023
5.24190400325e-05
0.000128083629901
5.3062502012e-05
0.000127185864765
5.40163744292e-05
0.00012599258005
5.51105532169e-05
0.000124188446035
5.62636062857e-05
)
;

boundaryField
{
    inletfuel
    {
        type            calculated;
        value           nonuniform List<scalar> 3(0.000853387503598 0.000853312006126 0.000853452293747);
    }
    inletair
    {
        type            calculated;
        value           nonuniform List<scalar> 
20
(
0.000406938515443
0.000406938918772
0.00040694192663
0.000406945112881
0.000406949426678
0.000406954219381
0.000406960208198
0.000406966827544
0.000406974330244
0.000406982275838
0.000406990550969
0.00040699860572
0.000407006401511
0.000407014385438
0.000407022942983
0.000407032072996
0.000407040496058
0.000407048483336
0.000407053720836
0.000407058320076
)
;
    }
    outlet
    {
        type            calculated;
        value           nonuniform 0();
    }
    axis
    {
        type            empty;
    }
    leftside
    {
        type            compressible::alphatWallFunction;
        Prt             0.85;
        value           nonuniform List<scalar> 
33
(
0
0
6.15158127733e-06
6.47013010721e-06
6.75053286963e-06
0
0
0
0
0
0
0
0
0
0
0
0
0
0
0
0
0
0
0
0
0
0
0
0
0
0
0
0
)
;
    }
    burnerwall
    {
        type            compressible::alphatWallFunction;
        Prt             0.85;
        value           uniform 0;
    }
    front
    {
        type            wedge;
    }
    back
    {
        type            wedge;
    }
    procBoundary0to1
    {
        type            processor;
        value           nonuniform List<scalar> 
27
(
0.000275826554447
0.000275050963279
0.00027542801594
0.000275527329761
8.78462307309e-05
6.95382664586e-05
9.70586550421e-05
0.000157451989947
0.000166471091676
0.000148434163474
0.000162352324036
0.000276279284321
0.000275931276562
0.000271629514259
0.000259623888448
0.000236746452692
0.000203649755018
0.000161788541234
0.000123050454071
9.81972081321e-05
8.76793739174e-05
8.69056732175e-05
8.82122238344e-05
8.78462307309e-05
8.40107654111e-05
0.000121697094035
5.75935314506e-05
)
;
    }
}


// ************************************************************************* //
