/*--------------------------------*- C++ -*----------------------------------*\
  =========                 |
  \\      /  F ield         | OpenFOAM: The Open Source CFD Toolbox
   \\    /   O peration     | Website:  https://openfoam.org
    \\  /    A nd           | Version:  7
     \\/     M anipulation  |
\*---------------------------------------------------------------------------*/
FoamFile
{
    version     2.0;
    format      ascii;
    class       volScalarField;
    location    "0.07";
    object      dQ;
}
// * * * * * * * * * * * * * * * * * * * * * * * * * * * * * * * * * * * * * //

dimensions      [1 2 -3 0 0 0 0];

internalField   nonuniform List<scalar> 
814
(
4.1206268644e-10
1.24301793256e-09
1.44490912672e-09
3.86121810872e-08
1.5905990611e-07
4.75602888806e-07
1.73762117936e-06
1.26537564716e-05
0.00015822184023
8.04703284565e-05
0.00132547224869
0.071144823706
0.000173318319738
0.0022604552939
0.0426943096712
0.000251190477783
0.00245750006858
0.0218799376871
0.000284894108608
0.00207089171224
0.0103374968284
0.000270298421762
0.00148121811992
0.0047395458208
0.000221925201237
0.000953069560219
0.0021671517523
0.000161091703886
0.000570665178503
0.00101020034996
0.000104873335848
0.000324213895221
0.00048945754194
6.21497364284e-05
0.000177541132027
0.000251019933276
3.42600343406e-05
9.57784594513e-05
0.000139571233864
1.83722728365e-05
5.30498668628e-05
8.69895774306e-05
1.03594369715e-05
3.22903247853e-05
6.22405147742e-05
6.76785160689e-06
2.28957314425e-05
5.01475034056e-05
5.35461636599e-06
1.89237535359e-05
4.34558545565e-05
5.06671803548e-06
1.80153580354e-05
4.13109431489e-05
6.43239101395e-06
2.30572208512e-05
5.37021445552e-05
1.33300860703e-05
4.75173357671e-05
0.000109412574277
3.13413718335e-05
0.000107972763694
0.000234825118668
5.79802844661e-05
0.000196585135281
0.0004162671062
9.28293533131e-05
0.000314168347803
0.000664088098083
0.000133228044415
0.000450227880074
0.000946137901205
0.000156960882181
0.000525150784694
0.00108566422716
0.000138462791778
0.000458248216408
0.000923821307465
8.82847974586e-05
0.000285840717129
0.000556315102362
4.27199532861e-05
0.000135766584693
0.000253544074978
3.38425086363e-05
0.000106349560056
0.000196151411955
0.000269065834497
0.000827689686671
0.00145568734615
0.0010385247482
0.00315116447928
0.00541742648731
0.00183997361501
0.00561618215364
0.00968461523006
0.0248450019345
0.162734435559
0.055430456627
0.0186553096623
0.00656545791659
0.0024788288849
0.00102787239964
0.000477362525501
0.000255329018174
0.000161854041169
0.000120917475785
0.000101192293944
8.846583925e-05
7.71670379199e-05
7.21008020335e-05
9.5517276625e-05
0.000191591575163
0.000387255131836
0.000667451684867
0.00106391581983
0.00150193508281
0.00168837169489
0.00139625251959
0.000805406896766
0.000350291671218
0.000268327978736
0.0018794415485
0.00677340896134
0.0121670524677
4.01271598538e-05
2.10646514608e-05
1.95909829421e-05
1.65127355371e-05
1.17458258451e-05
7.1296818634e-06
3.14334891119e-06
1.04253962987e-06
3.15548840331e-07
8.7180220793e-08
2.16313600236e-08
4.77855826763e-09
9.19748502518e-10
1.52823123734e-10
2.13583420563e-11
2.48161049305e-12
2.3170764665e-13
1.68849462796e-14
9.35919858481e-16
7.52744550436e-17
0.00408927928797
0.00259508408716
0.00113699114879
0.000484167079817
0.000214140723807
9.46170738841e-05
2.93461677995e-05
7.71190344999e-06
1.94712090542e-06
4.66015753579e-07
1.03490624174e-07
2.08953611705e-08
3.7399511214e-09
5.82434749417e-10
7.69242479743e-11
8.48225590399e-12
7.57951707485e-13
5.31745837781e-14
2.9022606209e-15
2.08057280245e-16
0.0293505192439
0.137588059326
0.0359507113434
0.00718188458599
0.00155625681229
0.000339673754908
8.62571141316e-05
2.0763985228e-05
4.89029249972e-06
1.11023397538e-06
2.36320734866e-07
4.60428066313e-08
8.00097465624e-09
1.21119915397e-09
1.55293198521e-10
1.66140211321e-11
1.44225701227e-12
9.92579801795e-14
5.35712022754e-15
3.41896585775e-16
0.330776559533
0.677377941309
0.324477406188
0.0949998646004
0.0218129590811
0.0037516514762
0.000530596481553
9.23921938352e-05
1.99120800702e-05
4.28984509715e-06
8.84353320935e-07
1.68323805317e-07
2.87985302506e-08
4.31552374951e-09
5.4836439028e-10
5.82146473624e-11
5.01815039997e-12
3.47361244092e-13
1.91702971319e-14
1.55615744735e-15
0.433468936434
0.102663019023
0.28210820266
0.648699049858
0.15217411243
0.0317877501057
0.00495828226314
0.00060835295757
7.22127398367e-05
1.47622269051e-05
2.97524368527e-06
5.61204712909e-07
9.61677089518e-08
1.45526490582e-08
1.87315498212e-09
2.01753312761e-10
1.76567643659e-11
1.25783457516e-12
7.37277963782e-14
8.98210784737e-15
0.132403819651
0.0173068990592
0.0660291707433
0.738355110658
0.255542711052
0.0614373479054
0.0103359421558
0.00157063848619
0.000188667493799
3.90585033081e-05
8.33513635746e-06
1.63042807683e-06
2.883272071e-07
4.51257177556e-08
6.018332703e-09
6.71611106366e-10
6.09168950028e-11
4.53885283101e-12
2.89986865296e-13
4.82456233085e-14
0.0375244103907
0.0130742454967
0.082581480475
0.772047338904
0.21086752929
0.0553118523683
0.0106370451773
0.00210240551718
0.000429216583281
7.89968209158e-05
1.92386302272e-05
4.04158880336e-06
7.54399630662e-07
1.24568213333e-07
1.75530378165e-08
2.06684622689e-09
1.97698396069e-10
1.55887596148e-11
1.09688545487e-12
2.1735196122e-13
0.0121077497482
0.0130600389298
0.08307485859
0.792538567777
0.200383897501
0.0546586212949
0.0116218211305
0.00268842250394
0.000736659990379
0.000154941299079
3.80465632189e-05
8.70688342428e-06
1.72903588837e-06
3.04510573177e-07
4.59406631598e-08
5.78870043871e-09
5.91896320373e-10
4.98564867925e-11
3.86501239624e-12
8.22388446716e-13
0.00481217969388
0.0106132508149
0.0600940320273
0.546871459137
0.249785921211
0.067981407126
0.0149693749826
0.00353205631157
0.00108075417069
0.000294424392726
6.44313783249e-05
1.63570474849e-05
3.51307808172e-06
6.65178204391e-07
1.08330653974e-07
1.47510728434e-08
1.6282424356e-09
1.47579982334e-10
1.25649005136e-11
2.70203696959e-12
0.00230807843224
0.0072506315817
0.0405974392516
0.320761180933
0.413524749803
0.10284184711
0.0222291021472
0.00482955362686
0.0014482777398
0.000471504730638
0.000103746406123
2.81959017292e-05
6.51178284918e-06
1.32291886614e-06
2.32911827055e-07
3.4448536446e-08
4.13103987974e-09
4.04910503699e-10
3.77173331274e-11
7.93811940352e-12
0.00129651325775
0.00502443755437
0.0303574491978
0.243919832502
0.627885198877
0.154870394212
0.0334646565573
0.00657947836032
0.00181519825941
0.000645991618987
0.000176461773413
4.2526581728e-05
1.10521980625e-05
2.42515106696e-06
4.61904367788e-07
7.4384190338e-08
9.72662567176e-09
1.03422954192e-09
1.0509676032e-10
2.13179141211e-11
0.00089980565838
0.00398745155681
0.0252107056741
0.210215240789
0.79504107986
0.19927035272
0.0454793406098
0.00857928831521
0.00221244861742
0.00080713084829
0.000268214490538
6.34711073922e-05
1.77709285787e-05
4.18211781152e-06
8.57027879229e-07
1.49987322753e-07
2.14020066505e-08
2.47205862583e-09
2.73484725947e-10
5.3082886371e-11
0.000766016608398
0.00379302884561
0.0237285855515
0.18390537886
0.938069804706
0.231788302653
0.0558821368299
0.0109393568232
0.00271248877645
0.00098215652579
0.000373694074951
9.86780758328e-05
2.63673345953e-05
6.82186708401e-06
1.50182217243e-06
2.84784502051e-07
4.42839273331e-08
5.55610000043e-09
6.67864304516e-10
1.23904876355e-10
0.000719023863047
0.00367285245274
0.0219380655512
0.144343644633
0.830161442283
0.305249786069
0.077563380995
0.0162735492533
0.00375470527495
0.00126853653508
0.0004949289055
0.000153746085491
3.80482638587e-05
1.06492405545e-05
2.51209557576e-06
5.13168538474e-07
8.66289366373e-08
1.17878993389e-08
1.536261728e-09
2.73688197096e-10
0.000678781785527
0.00334946734725
0.0179631285996
0.0938524335324
0.425797677802
0.572881666345
0.159759563541
0.0363293087249
0.00727255168672
0.00194969952483
0.000681296892578
0.000233456446416
5.51699055887e-05
1.6145947562e-05
4.04001255349e-06
8.82391669352e-07
1.60828912797e-07
2.3672390289e-08
3.33524391241e-09
5.75298716735e-10
0.000609044768563
0.00275037396812
0.0125051126388
0.0530106201344
0.220982353622
1.21425489379
0.402511599731
0.105623454864
0.0206558078904
0.00396226440765
0.0010522889938
0.000341205044457
8.91431185785e-05
2.27474982111e-05
6.22737675633e-06
1.45076530819e-06
2.83996252355e-07
4.50782599589e-08
6.84150309462e-09
1.15439501824e-09
0.000512574159832
0.00207593193739
0.00823239394378
0.0312888374862
0.117493063607
0.540931746434
0.904872589523
0.271670589259
0.0613011872387
0.0100573198501
0.00187186227567
0.000495108299768
0.000137048013274
3.21611327281e-05
9.26574871356e-06
2.28661983179e-06
4.77856504471e-07
8.15247313675e-08
1.32802243927e-08
2.21634212087e-09
0.000472088996489
0.00188489188582
0.00744085941241
0.0271509477028
0.0939943120462
0.378931910031
1.4210749382
0.492775214659
0.131638407609
0.0233837686897
0.00340710735454
0.000695314899098
0.000192225907145
4.48160550641e-05
1.3037600957e-05
3.44302736274e-06
7.66874064845e-07
1.403333238e-07
2.44571937336e-08
4.08197702823e-09
0.000660270489531
0.00276454005649
0.010667812783
0.0371124367915
0.119957301459
0.420457974631
1.50776683219
0.558973069814
0.16613389548
0.0337219665567
0.00483355428316
0.000860522734078
0.000233843617831
6.2114365096e-05
1.73075904565e-05
4.97495294994e-06
1.18191961284e-06
2.31474059523e-07
4.30051907116e-08
7.25398789685e-09
0.00128827189651
0.0050462965143
0.0180106249614
0.0596216082139
0.187898822819
0.642936184783
1.02616749439
0.39510572269
0.122079610594
0.0257525412735
0.00399312056032
0.00080206149808
0.000246419577651
8.00840161938e-05
2.29851135058e-05
7.09229930767e-06
1.787961909e-06
3.7217092602e-07
7.3219949189e-08
1.25956440835e-08
0.00243937321674
0.00879857797228
0.0298410138949
0.0965015520406
0.309838640682
1.10629759017
0.470408224658
0.151930794409
0.043509282394
0.00965341038709
0.00216071200129
0.000669253714672
0.000265001759308
0.00010862386964
3.25339442618e-05
1.05370042755e-05
2.76113655952e-06
5.99771735773e-07
1.23220565216e-07
2.17121597297e-08
0.00407907155184
0.0143583906766
0.0478824356746
0.158552958684
0.542518025191
0.690538245117
0.201976675398
0.0474398967077
0.0120335272357
0.00466597378438
0.00204560527743
0.000927499759855
0.000418409669183
0.000184534071469
6.02187895988e-05
1.75200651225e-05
4.66581504308e-06
1.01321315428e-06
2.110097169e-07
3.8027590146e-08
0.00648146167933
0.0228157964901
0.0758017760055
0.244023043367
0.791790569
0.488437621153
0.14397510265
0.0466908848545
0.02504150004
0.014171322653
0.00721158633791
0.00318258110666
0.00127223662473
0.000484092588107
0.000162045933026
3.75184637585e-05
9.32489125343e-06
1.89432668983e-06
3.80587949689e-07
6.94384323597e-08
0.0089438862057
0.0301903465648
0.0955973259009
0.288300831233
0.844561652673
0.481572630712
0.192415310903
0.106208719517
0.0863757188116
0.0646845350521
0.0368118100426
0.0164075762595
0.00607960802579
0.00195843328113
0.000571716523546
0.000115385234456
2.16035022659e-05
4.04153691236e-06
7.42264731488e-07
1.34936648569e-07
0.00969923750389
0.0307563929561
0.0900876688911
0.245292539066
0.62977877073
0.695345029246
0.375216287202
0.282998816022
0.267776066153
0.231783841768
0.152271823297
0.0768330819921
0.030112298553
0.00942943377215
0.00236843792225
0.000478188332917
5.98030485638e-05
9.7159397125e-06
1.57922535103e-06
2.80853515407e-07
0.00765734389634
0.0224698721428
0.0602782219131
0.14853644491
0.337702037845
0.71614936481
0.925039604941
0.784325102448
0.744315142941
0.663142269632
0.481146268115
0.275282470771
0.12086172482
0.040842697141
0.0102604973143
0.00189068266103
0.000213474869152
2.28757779273e-05
3.45570849746e-06
6.10154643698e-07
0.00415465332711
0.0111162079535
0.0272741998025
0.0618706664832
0.128869789974
0.251276481969
0.464798113012
0.801288917203
1.29441606875
1.63762115283
1.19158683542
0.743057539811
0.366498187477
0.137589165307
0.037811744204
0.00666454806392
0.000751547347787
5.38861716072e-05
7.07892390904e-06
1.31173539523e-06
0.00168431714537
0.00406764665585
0.0091338362421
0.0197633984209
0.0429800015854
0.0899640687951
0.176013823469
0.314469725779
0.52951531552
0.916430482328
1.8447233281
1.45669863972
0.785893237487
0.332481893776
0.105594533221
0.0203411957129
0.00214423733741
0.000147214679229
1.37731752552e-05
2.6380707443e-06
0.00130108760252
0.00338344546499
0.00845656167895
0.0199728833498
0.0444399026054
0.0930355179487
0.182385457251
0.33356789099
0.575383501732
0.960658142783
1.66275976353
1.99174249491
1.12012780745
0.508855058398
0.175591771421
0.0376838489598
0.00393574359447
0.000279744933037
2.54942951742e-05
5.230869842e-06
0.00813819376768
0.0168870851891
0.0336942222212
0.0656072606532
0.124543603745
0.229626197703
0.409580838431
0.704059265456
1.16811990146
1.89865406925
2.54697696107
1.6345082245
1.02283253829
0.496762206983
0.170147927029
0.0362414584183
0.00383021151623
0.000291698603466
3.22280037159e-05
9.55824030255e-06
0.0276436847353
0.052747928324
0.096633340914
0.173316124383
0.305898648532
0.533063123261
0.912952590301
1.53514751251
2.51403820061
2.18790386491
1.43514229085
0.914557489959
0.568647108195
0.286084742348
0.0959503041141
0.0188725128195
0.00205379438376
0.000201794715476
3.87406867362e-05
1.78515789369e-05
0.0499141604379
0.0960248183241
0.177821811204
0.323618119422
0.581563873049
1.03733749282
1.79160253716
1.56800184097
1.18087082065
0.829973453865
0.54561598529
0.344011920188
0.19969705173
3.43650477157e-16
8.45862909115e-16
2.28541664406e-15
2.27067374876e-15
1.01479042174e-14
6.12264381766e-15
3.91219417519e-14
1.63562721981e-14
1.17215159737e-13
4.04888672441e-14
3.11490790222e-13
9.43042148825e-14
7.47319689169e-13
2.03895856743e-13
1.66824930345e-12
4.19398867361e-13
3.52407384197e-12
8.29350998697e-13
7.14739574011e-12
1.59220630744e-12
1.40853159481e-11
2.99207878797e-12
2.71436474164e-11
5.54676698837e-12
5.12648080253e-11
1.02126496991e-11
9.46632068109e-11
1.86302586325e-11
1.71409924442e-10
3.37062571818e-11
3.06365814325e-10
6.13922385022e-11
5.43054389548e-10
1.14718700576e-10
9.76991811446e-10
2.28712091078e-10
1.834165137e-09
5.06934957393e-10
3.70687994573e-09
1.26819919098e-09
8.21356529779e-09
3.47186382585e-09
1.97849945212e-08
9.83906287975e-09
4.94409817318e-08
2.73741105424e-08
1.22705150939e-07
7.2707164545e-08
2.90040497781e-07
1.81346390923e-07
6.52228189689e-07
4.2398625029e-07
1.37672395292e-06
9.30258314108e-07
2.76002814526e-06
1.92782018676e-06
)
;

boundaryField
{
    inletfuel
    {
        type            zeroGradient;
    }
    inletair
    {
        type            zeroGradient;
    }
    outlet
    {
        type            zeroGradient;
    }
    axis
    {
        type            empty;
    }
    leftside
    {
        type            zeroGradient;
    }
    burnerwall
    {
        type            zeroGradient;
    }
    front
    {
        type            wedge;
    }
    back
    {
        type            wedge;
    }
    procBoundary0to1
    {
        type            processor;
        value           nonuniform List<scalar> 
27
(
0.00259128854273
0.00791052308607
0.0137815312439
0.0175137683222
0.0992407235874
0.0346549026752
0.00676296088655
0.000837296822279
0.000138327134441
5.77963273357e-05
3.40573138434e-05
0.0738625027146
0.14972904382
0.294755269266
0.567036099281
0.780060391349
0.726874374769
0.627241842075
0.490894726864
0.35289516975
0.24591256206
0.173666063451
0.119541800648
0.0992407235874
0.0756793192486
5.31499889808e-06
3.81555932198e-06
)
;
    }
}


// ************************************************************************* //
