/*--------------------------------*- C++ -*----------------------------------*\
  =========                 |
  \\      /  F ield         | OpenFOAM: The Open Source CFD Toolbox
   \\    /   O peration     | Website:  https://openfoam.org
    \\  /    A nd           | Version:  7
     \\/     M anipulation  |
\*---------------------------------------------------------------------------*/
FoamFile
{
    version     2.0;
    format      ascii;
    class       volScalarField;
    location    "0.07";
    object      ed::R_H2O;
}
// * * * * * * * * * * * * * * * * * * * * * * * * * * * * * * * * * * * * * //

dimensions      [1 -3 -1 0 0 0 0];

internalField   nonuniform List<scalar> 
814
(
3.66576678772e-07
3.68601974699e-07
2.57082141932e-07
5.43116842632e-05
7.45775857612e-05
0.00013379593301
0.00386448739725
0.00938068751921
0.0703770921474
0.166339834284
0.913225732257
29.3768290169
0.344531596979
1.49754644862
16.9433589959
0.480166364664
1.56537012449
8.34534705214
0.523657629387
1.26817000798
3.7895308963
0.477686040425
0.87194230786
1.66984481732
0.377035254548
0.539245386721
0.733819993488
0.263053893323
0.310296518287
0.328751156175
0.164564914348
0.169396675505
0.153086594767
0.0936951553749
0.0891256341652
0.0754544094986
0.0496129939367
0.046191300254
0.0403175062138
0.0255527646361
0.0245758992731
0.02414396877
0.0138350678842
0.0143653033442
0.0165920226542
0.00867507956032
0.00977676712646
0.0128320596224
0.00658383322972
0.00775148404243
0.0106670469843
0.00597459238445
0.0070773636799
0.00972651080892
0.0072757093215
0.0086893487168
0.0121311481067
0.0144565469828
0.0171706549212
0.0237021467076
0.0325710003712
0.0373909677224
0.0487591947072
0.0578029953282
0.0653111587282
0.0829317008329
0.0888662300406
0.100226234633
0.127044516539
0.122514034881
0.137970761395
0.173866579532
0.138714243176
0.15466100158
0.191737339601
0.117659956406
0.129769103174
0.156887970267
0.0721789666837
0.0778823924727
0.0909075551791
0.0336200603842
0.0356100180936
0.039887838912
0.0256291798228
0.0268433788925
0.029698750785
0.195363055103
0.200306853307
0.211334390066
0.72113684177
0.729356754899
0.752293235135
1.22449022988
1.24583868016
1.2889888305
8.49691635239
53.4922857084
17.5321544009
5.67626088965
1.92132600854
0.697592982696
0.278164694256
0.124224368982
0.063886722083
0.0389320414557
0.0279522028383
0.0224699467402
0.0188560601789
0.015778630137
0.0141432230486
0.0179806260497
0.0345926438094
0.0670339202184
0.110870564608
0.169699953468
0.230119749061
0.248617764902
0.197715763834
0.109752300277
0.0459614742145
0.0338873983169
0.227611628812
0.784755682911
1.3511860481
0.0016008046611
0.000526062038448
0.000333766301566
0.000201890262159
0.000106555925046
4.91355349026e-05
1.67471704624e-05
4.35214130128e-06
1.043166059e-06
2.3020191029e-07
4.59454807621e-08
8.21255850102e-09
1.28537165235e-09
1.74406902141e-10
1.99772639905e-11
1.90837216771e-12
1.46900088954e-13
8.84661987852e-15
4.06098401698e-16
2.70998916647e-17
0.257718318298
0.102438794863
0.0306243867918
0.00935943496855
0.00307160040688
0.00103102986359
0.000247216848845
5.09037936236e-05
1.01778920086e-05
1.94567094753e-06
3.47566263774e-07
5.6781770972e-08
8.26423942574e-09
1.05099130404e-09
1.13765063701e-10
1.03137827505e-11
7.59801836418e-13
4.40513162265e-14
1.99115981578e-15
1.18435048116e-16
2.90838861887
8.52085750666
1.52615382829
0.219324486307
0.0352878802423
0.00585214150512
0.0011489212863
0.000216707264654
4.04180700878e-05
7.32924963369e-06
1.25491604187e-06
1.97832221242e-07
2.79547747541e-08
3.45575946344e-09
3.63140067534e-10
3.19416563577e-11
2.28600681107e-12
1.30015843121e-13
5.81135185501e-15
3.07728845155e-16
29.9784581166
37.8135383322
12.4913225444
2.66887484883
0.458263880538
0.0600297876654
0.00656802598795
0.00089623857317
0.000152965662006
2.63224379775e-05
4.36494572995e-06
6.72235020755e-07
9.35241603172e-08
1.144463274e-08
1.19187686874e-09
1.04029222302e-10
7.39297017747e-12
4.22914534588e-13
1.9329252308e-14
1.30185760535e-15
37.6681519228
5.52180511873
10.3011485953
17.0415662748
3.02780276795
0.486700132773
0.0589458692496
0.00567390464701
0.000533489381437
8.71130549271e-05
1.41229473339e-05
2.15549619277e-06
3.0035387271e-07
3.71159775429e-08
3.91549221184e-09
3.467322653e-10
2.50170968639e-11
1.47280507917e-12
7.14937296044e-14
7.22667968226e-15
11.0894762304
0.897374827729
2.32065218722
18.5943084554
4.84724587533
0.900948842437
0.118008519259
0.0140811817103
0.0013403601471
0.000221660144998
3.80507544465e-05
6.02250302014e-06
8.66042756439e-07
1.10686017325e-07
1.20986981807e-08
1.11004670241e-09
8.30067373937e-11
5.11113841609e-12
2.70436161734e-13
3.73308548898e-14
3.0280472615
0.653171677296
2.79271303683
18.7266850988
3.85131706589
0.779418114877
0.116703425321
0.0181184823317
0.0029319566752
0.000431137547013
8.44637822184e-05
1.43574359248e-05
2.17924139496e-06
2.93850323659e-07
3.39363442719e-08
3.28535174383e-09
2.59077116767e-10
1.68823706896e-11
9.83779975485e-13
1.61742183333e-13
0.941503430201
0.628913600028
2.70454871018
18.4824566869
3.51846007006
0.739725734235
0.122486798687
0.02226772767
0.00483791240815
0.000813186770471
0.000160640199513
2.97465282626e-05
4.80350624169e-06
6.90831488517e-07
8.54202604387e-08
8.84923351795e-09
7.45971823057e-10
5.19271421784e-11
3.33379142685e-12
5.88554991656e-13
0.360563488815
0.492755794237
1.88414536624
12.2506787176
4.20416479386
0.88211251604
0.151451561087
0.0281104469266
0.00682318227846
0.00148584953707
0.000261621858295
5.37434619589e-05
9.38625493772e-06
1.45130485443e-06
1.93716231028e-07
2.16869869682e-08
1.9735443274e-09
1.47826138781e-10
1.04231161091e-11
1.85973830941e-12
0.166608513542
0.324605516324
1.22618968705
6.91046803892
6.66624492351
1.27772232629
0.215730854736
0.0369201806589
0.00878885169404
0.00228785554393
0.000405114180924
8.9094464121e-05
1.67322267564e-05
2.77590433555e-06
4.00550343991e-07
4.8707669226e-08
4.81546430905e-09
3.90062122248e-10
3.00905688717e-11
5.25446581847e-12
0.0901269543233
0.216839356731
0.883365519285
5.05598532783
9.70438708667
1.84257471068
0.311445806372
0.0483028592309
0.0105871338049
0.00301359815958
0.000662603551568
0.000129230840229
2.73118027501e-05
4.89395891008e-06
7.63956127683e-07
1.01148184742e-07
1.09041514345e-08
9.58169976032e-10
8.0636108327e-11
1.35708137369e-11
0.0602014667632
0.16574867421
0.706585668075
4.19251920456
11.7954335159
2.27246049352
0.405936138735
0.0604775688753
0.0124003024803
0.00361985240417
0.000968404771132
0.000185487840735
4.22335304592e-05
8.11647371066e-06
1.36320740453e-06
1.96147533831e-07
2.3074645776e-08
2.20259806697e-09
2.01801359529e-10
3.24986877784e-11
0.0492996694718
0.151708997702
0.640125682747
3.52924129779
13.3657865352
2.53472426083
0.478363880802
0.0740287072448
0.0146065300368
0.00423422125789
0.0012972791654
0.000277317320785
6.02637721549e-05
1.27327719588e-05
2.29739622652e-06
3.58175162939e-07
4.59174291498e-08
4.76099167716e-09
4.73947259513e-10
7.29540966922e-11
0.0444871174463
0.141226414608
0.569170786886
2.66527679831
11.3616175619
3.19919136036
0.636308533368
0.105659792158
0.0194193191887
0.00525611565709
0.00165186743023
0.000415480992052
8.3630189372e-05
1.91154832336e-05
3.69575799896e-06
6.20711623991e-07
8.6386386095e-08
9.71437078335e-09
1.04847419892e-09
1.5497697644e-10
0.040343355609
0.123703249967
0.4479826887
1.66764875816
5.60219612389
5.75009155293
1.25390533313
0.226036978232
0.0361044864109
0.00776201282525
0.00218594335936
0.000606613537704
0.000116616631288
2.78724065458e-05
5.71609334363e-06
1.02645953277e-06
1.54240105233e-07
1.87616597212e-08
2.18912647312e-09
3.132954871e-10
0.0347441497252
0.0975092073382
0.299820547098
0.90674108459
2.79735978148
11.6811747632
3.0183737612
0.628641934557
0.0983341610654
0.0151498943769
0.00324515963303
0.000852421567203
0.000181197860784
3.77647325013e-05
8.47363687646e-06
1.62303501267e-06
2.61936853998e-07
3.43595255897e-08
4.3186245575e-09
6.04594962845e-10
0.0280562471061
0.0706768769869
0.189906469099
0.515415360657
1.4317664386
5.00023884696
6.49205531558
1.54513124918
0.279539613613
0.0369134470976
0.00554720692513
0.0011891715736
0.000267869719531
5.13476586913e-05
1.21252767494e-05
2.4602233509e-06
4.23869548593e-07
5.97613281614e-08
8.06213275807e-09
1.11633843618e-09
0.0248032330601
0.0616736124109
0.16520391566
0.430645815858
1.10251592502
3.36957343563
9.78147583351
2.68165724803
0.574892353869
0.0823649433707
0.00970136410797
0.00160550674773
0.000361269154218
6.88100779211e-05
1.64079138566e-05
3.56262615184e-06
6.54198182289e-07
9.89332976082e-08
1.42791279738e-08
1.97732556505e-09
0.0333086784716
0.0869316903299
0.227793478433
0.566275336619
1.35349597643
3.59636918706
9.9768949004
2.91991143387
0.696118484546
0.114060662176
0.0132260577732
0.00191023883239
0.000422585193013
9.17121701417e-05
2.09476341774e-05
4.95070564632e-06
9.69669097299e-07
1.56940394335e-07
2.41471764879e-08
3.37934403254e-09
0.0623583285937
0.15235293186
0.369450051879
0.874217605736
2.0379067593
5.2884549084
6.53896457792
1.98790292477
0.492319168157
0.0837731216768
0.0105057051326
0.00171191556149
0.000428200691005
0.000113707428734
2.67537228105e-05
6.78753746244e-06
1.410729748e-06
2.42675235597e-07
3.95389508351e-08
5.6431697618e-09
0.113262344533
0.254952405081
0.587727873815
1.35913470476
3.22963763429
8.75383948509
2.89192880557
0.738717310592
0.169320215007
0.0302375198306
0.00546780922581
0.00137354185602
0.000442794792908
0.000148306728889
3.64173148465e-05
9.69811312473e-06
2.0951866161e-06
3.76113880692e-07
6.39924682623e-08
9.35517326163e-09
0.181796747954
0.399414449564
0.905522826309
2.14508806005
5.43673195136
5.26501685738
1.19927256191
0.222807666034
0.0451526159345
0.0140638672873
0.00497715773345
0.00182999330975
0.000672175753839
0.00024226019721
6.48213133135e-05
1.55076964575e-05
3.40494631997e-06
6.11060237522e-07
1.05389552521e-07
1.57576758546e-08
0.277381767971
0.609449852314
1.37688137747
3.17297840274
7.63256178538
3.58839651637
0.823814696146
0.210921445442
0.090168960559
0.0409969035051
0.0168468741569
0.00603216759523
0.00196431104871
0.000610995079619
0.000167724431254
3.19366387337e-05
6.54442779622e-06
1.09871967136e-06
1.82809464231e-07
2.76716841075e-08
0.367686253869
0.77480697325
1.66891079826
3.6043965602
7.83047394516
3.40205094707
1.05670799579
0.45950130661
0.297318868843
0.17887356897
0.0823226757554
0.0298213966604
0.00901316481032
0.00237541927509
0.000568901108795
9.44496287615e-05
1.45811711045e-05
2.25437096789e-06
3.42885715864e-07
5.17135761516e-08
0.383255011253
0.758836810065
1.51233497797
2.94937312988
5.61434832427
4.71525813739
1.97345232534
1.16986021854
0.878975246302
0.610250891916
0.324492349241
0.133425262615
0.0427775979322
0.0109806285289
0.00226503443009
0.000376343020657
3.88169424127e-05
5.21202651149e-06
7.01582534587e-07
1.03511451743e-07
0.290999934129
0.533296613621
0.973579823556
1.71829025822
2.89522924412
4.66321415012
4.66109861643
3.10051590114
2.33257248986
1.66313517295
0.974685899829
0.454641116464
0.163898213493
0.0455777865845
0.00942384527962
0.00143034496853
0.000133242990079
1.1801427158e-05
1.47642383883e-06
2.16259179275e-07
0.151967471648
0.254004173454
0.424176358495
0.689140511833
1.06349413978
1.57392219471
2.24983409854
3.03881372533
3.88760286113
3.93046636288
2.30396524571
1.16736832736
0.47269463394
0.146708316146
0.0333142261226
0.00484503626482
0.000451023799828
2.67338671288e-05
2.90852088062e-06
4.47090463114e-07
0.0593350469842
0.0895488607675
0.136899982848
0.212158983427
0.341741745763
0.542693830954
0.820110700269
1.14737676833
1.52928136675
2.11333575576
3.42178450545
2.18990172308
0.966142447779
0.338092769292
0.0891250601284
0.01420479524
0.00123712854373
7.0232390164e-05
5.44197465943e-06
8.64639462403e-07
0.0441255112968
0.071732874464
0.122097669615
0.206558377154
0.340388888906
0.540499004236
0.818129666451
1.17133123835
1.59897379669
2.13132274187
2.96649250903
2.87696950926
1.32003837057
0.494878316448
0.142057020903
0.0252807971238
0.00218311578965
0.000128329338346
9.68632936928e-06
1.64853867549e-06
0.264720894731
0.343545552286
0.467066790819
0.651805473385
0.916876895811
1.28266397965
1.76688337838
2.37791624485
3.12266643233
4.05310146793
4.37397461903
2.27335336364
1.15988780147
0.464276721026
0.132316068751
0.0233771366158
0.0020428305262
0.00012866332824
1.17736194666e-05
2.89632638788e-06
0.860536856977
1.02754200935
1.28356678545
1.65123441674
2.16126800054
2.85973377833
3.78485133145
4.98567761938
6.46642702803
4.49793947522
2.37635344223
1.22749043794
0.622692366036
0.258157291834
0.0719340235707
0.0117147658984
0.00105329622461
8.55720266089e-05
1.36064846489e-05
5.20049334009e-06
1.48959387598
1.79382711387
2.26598041098
2.95935921012
3.94613391395
5.34811702383
7.14339483596
4.90274255435
2.9285481742
1.64758278575
0.873421020876
0.446930015864
0.212113752803
1.26054816113e-15
3.04050019727e-15
8.06338223819e-15
7.85042503858e-15
3.44359686921e-14
2.03591117962e-14
1.27680115819e-13
5.23081277432e-14
3.67912272886e-13
1.24530909855e-13
9.40284480494e-13
2.789492437e-13
2.1695586197e-12
5.80032509049e-13
4.65773773009e-12
1.14741131753e-12
9.46251914308e-12
2.18210934946e-12
1.84567833327e-11
4.0288587876e-12
3.49800049745e-11
7.28112323042e-12
6.48283675277e-11
1.29809233088e-11
1.17749228779e-10
2.29848353891e-11
2.09102682462e-10
4.03232303202e-11
3.64125416635e-10
7.01577014478e-11
6.25875341376e-10
1.22885246083e-10
1.06688711355e-09
2.2081729085e-10
1.84581053748e-09
4.23340190014e-10
3.33232767814e-09
9.02279252061e-10
6.47622030495e-09
2.17044990772e-09
1.37987047164e-08
5.71324473631e-09
3.19613437062e-08
1.55673946749e-08
7.67973646923e-08
4.16417249919e-08
1.83264342619e-07
1.06335247223e-07
4.16496572537e-07
2.54979213474e-07
9.00463325029e-07
5.7309545781e-07
1.82724133641e-06
1.20875949549e-06
3.52133941231e-06
2.40793224366e-06
)
;

boundaryField
{
    inletfuel
    {
        type            calculated;
        value           uniform 0;
    }
    inletair
    {
        type            calculated;
        value           uniform 0;
    }
    outlet
    {
        type            calculated;
        value           nonuniform 0();
    }
    axis
    {
        type            empty;
    }
    leftside
    {
        type            calculated;
        value           uniform 0;
    }
    burnerwall
    {
        type            calculated;
        value           uniform 0;
    }
    front
    {
        type            wedge;
    }
    back
    {
        type            wedge;
    }
    procBoundary0to1
    {
        type            processor;
        value           uniform 0;
    }
}


// ************************************************************************* //
