/*--------------------------------*- C++ -*----------------------------------*\
  =========                 |
  \\      /  F ield         | OpenFOAM: The Open Source CFD Toolbox
   \\    /   O peration     | Website:  https://openfoam.org
    \\  /    A nd           | Version:  7
     \\/     M anipulation  |
\*---------------------------------------------------------------------------*/
FoamFile
{
    version     2.0;
    format      ascii;
    class       volScalarField;
    location    "0.07";
    object      ed::R_O2;
}
// * * * * * * * * * * * * * * * * * * * * * * * * * * * * * * * * * * * * * //

dimensions      [1 -3 -1 0 0 0 0];

internalField   nonuniform List<scalar> 
814
(
-3.25554274578e-07
-3.27352926223e-07
-2.28312915334e-07
-4.82338402723e-05
-6.62318506284e-05
-0.000118823265185
-0.00343202517804
-0.00833092528033
-0.062501420597
-0.147725284285
-0.811029609923
-26.0893636007
-0.305976186209
-1.32996089484
-15.0472827822
-0.42643250806
-1.39019464367
-7.41144639851
-0.465056806761
-1.12625322586
-3.36545681539
-0.424229748842
-0.774366079316
-1.48297791333
-0.334842465145
-0.478900188854
-0.65170058404
-0.233616387444
-0.275572243857
-0.291961683225
-0.146148989868
-0.150440044344
-0.135955171709
-0.0832100351877
-0.0791518742386
-0.0670105518724
-0.0440609651024
-0.0410221820341
-0.0358057051862
-0.0226932378308
-0.0218256902942
-0.0214420957293
-0.0122868304221
-0.0127577289559
-0.0147352633481
-0.00770427961383
-0.00868268090659
-0.0113960655537
-0.00584705786038
-0.00688404066727
-0.00947333244028
-0.00530599517715
-0.0062853589226
-0.00863804861014
-0.00646150834837
-0.00771695195541
-0.0107735907667
-0.0128387618156
-0.0152491427595
-0.0210497165373
-0.0289260856246
-0.0332066661017
-0.0433027117685
-0.0513344500681
-0.0580023993148
-0.0736510838459
-0.0789214991862
-0.0890102426015
-0.112827377779
-0.108803887593
-0.122530902101
-0.154409735945
-0.123191183253
-0.137353391775
-0.170280637362
-0.104493013257
-0.115247064783
-0.139331147637
-0.0641016532127
-0.0691668271665
-0.0807343862659
-0.0298577487425
-0.0316250167551
-0.035424120555
-0.0227611016423
-0.0238394236422
-0.0263752601504
-0.173500610832
-0.177891164653
-0.18768464563
-0.640436762591
-0.647736811969
-0.66810654528
-1.08746150969
-1.10642092432
-1.14474228164
-7.5460540712
-47.5061379455
-15.5701880079
-5.04104898991
-1.70631666213
-0.619527620233
-0.247036187777
-0.110322823766
-0.056737366743
-0.0345752832843
-0.0248241627055
-0.0199554080617
-0.016745939795
-0.0140128949428
-0.012560500944
-0.0159684726527
-0.030721493519
-0.0595323721682
-0.0984634002193
-0.150709383456
-0.204367796181
-0.220795759215
-0.175590035578
-0.0974702772141
-0.0408180750793
-0.0300951697564
-0.202140351513
-0.696936226077
-1.19997921085
-0.00142166381651
-0.000467192146221
-0.000296415600002
-0.000179297379369
-9.46315979421e-05
-4.36369369563e-05
-1.48730490695e-05
-3.86510731929e-06
-9.26428737202e-07
-2.04440763013e-07
-4.08038714022e-08
-7.29351778239e-09
-1.14152989014e-09
-1.54889592808e-10
-1.77416733336e-11
-1.69481244351e-12
-1.30460977646e-13
-7.85662341279e-15
-3.60653249997e-16
-2.40672309041e-17
-0.228877899271
-0.0909752024108
-0.0271973112414
-0.00831205103352
-0.00272786759269
-0.00091565066396
-0.000219551615119
-4.52073155933e-05
-9.03891720741e-06
-1.72793723816e-06
-3.0867125331e-07
-5.0427507609e-08
-7.33941526287e-09
-9.33378284512e-10
-1.0103398533e-10
-9.15960085825e-12
-6.74774883408e-13
-3.91216766609e-14
-1.76833559507e-15
-1.05181366974e-16
-2.58292030518
-7.56731604874
-1.35536691567
-0.19478059618
-0.0313389283033
-0.00519724737758
-0.00102034924088
-0.000192456259293
-3.5895015284e-05
-6.50905713831e-06
-1.11448246799e-06
-1.75693460616e-07
-2.48264468066e-08
-3.06903665833e-09
-3.2250224333e-10
-2.83671694533e-11
-2.03018722182e-12
-1.15466192865e-13
-5.16102236459e-15
-2.73291910678e-16
-26.623666344
-33.5819482085
-11.0934592541
-2.37020974237
-0.406981059717
-0.0533120493152
-0.00583301955564
-0.000795943428576
-0.00013584777214
-2.33767795311e-05
-3.87647884598e-06
-5.97007385362e-07
-8.30581756308e-08
-1.01639011024e-08
-1.05849780376e-09
-9.23876502863e-11
-6.56564692323e-12
-3.75587544133e-13
-1.71661785314e-14
-1.15617095374e-15
-33.4528315195
-4.9038778621
-9.14838055029
-15.1345000038
-2.68897120512
-0.432235103425
-0.0523494286849
-0.00503895642672
-0.000473788319407
-7.73645161992e-05
-1.25424942186e-05
-1.91428162245e-06
-2.66742247418e-07
-3.2962449179e-08
-3.47732220968e-09
-3.07930584894e-10
-2.22175148972e-11
-1.3079882516e-12
-6.3493098787e-14
-6.41796545664e-15
-9.84848900302
-0.796952528581
-2.06095554657
-16.5134798557
-4.30480635029
-0.800126586924
-0.104802569574
-0.0125054024502
-0.00119036480123
-0.000196854878901
-3.37926182388e-05
-5.34854428939e-06
-7.69126727512e-07
-9.82995050232e-08
-1.07447722063e-08
-9.85824985271e-10
-7.37177233093e-11
-4.53916753487e-12
-2.401725302e-13
-3.31532803007e-14
-2.68918833819
-0.580077358684
-2.48018960141
-16.6310426594
-3.42032869564
-0.692195967927
-0.103643524456
-0.0160909018864
-0.00260385093696
-0.000382890345975
-7.50117149852e-05
-1.27507419538e-05
-1.93536957627e-06
-2.60966489395e-07
-3.01386383288e-08
-2.91769871253e-09
-2.30084639021e-10
-1.49931194789e-11
-8.73688357199e-13
-1.43642141502e-13
-0.836142842635
-0.558533923968
-2.4018914579
-16.414145055
-3.12472064393
-0.656945432543
-0.108779699313
-0.0197758186702
-0.00429651736108
-0.000722185683072
-0.000142663477109
-2.64176910059e-05
-4.26596147683e-06
-6.13522782883e-07
-7.58611568378e-08
-7.85894456833e-09
-6.62492541874e-10
-4.61161445389e-11
-2.96071766813e-12
-5.22691716232e-13
-0.320214001158
-0.437613095504
-1.67329678462
-10.8797450955
-3.73369038166
-0.783398172568
-0.134503109332
-0.0249646982125
-0.00605962213532
-0.00131957294663
-0.000232344606799
-4.77292058785e-05
-8.33586966714e-06
-1.2888940471e-06
-1.72038077484e-07
-1.92600667721e-08
-1.75269139872e-09
-1.31283396248e-10
-9.25669907623e-12
-1.65162104217e-12
-0.147963896521
-0.28827996845
-1.08897078614
-6.13714003014
-5.92024712948
-1.13473657529
-0.191589116233
-0.0327885632877
-0.007805319878
-0.00203182906899
-0.00035977917017
-7.91241923328e-05
-1.48597776651e-05
-2.46526190724e-06
-3.55726057389e-07
-4.32569523364e-08
-4.27658135576e-09
-3.46411538438e-10
-2.6723231149e-11
-4.66645563367e-12
-0.0800411399136
-0.192573569375
-0.784510956294
-4.49018644938
-8.61840068172
-1.63637816596
-0.27659291885
-0.0428974433116
-0.00940236208496
-0.00267635618829
-0.000588453742574
-0.000114769037094
-2.42554277089e-05
-4.34629188121e-06
-6.78464281445e-07
-8.98290202722e-08
-9.68390330246e-09
-8.50944289514e-10
-7.16123836332e-11
-1.20521480972e-11
-0.0534645163634
-0.147200279013
-0.627513963431
-3.72334801239
-10.4754449041
-2.01815682862
-0.360509145355
-0.0537097207859
-0.0110126249494
-0.0032147664916
-0.000860033741972
-0.000164730499594
-3.75073133882e-05
-7.20818552849e-06
-1.21065529637e-06
-1.74197301096e-07
-2.04924371946e-08
-1.95611247907e-09
-1.79218425543e-10
-2.88618652989e-11
-0.0437827037596
-0.134731737053
-0.568491298966
-3.13429537952
-11.870064823
-2.25107151048
-0.424831734306
-0.0657443953221
-0.0129719607536
-0.00376038332453
-0.00115210487211
-0.000246283641116
-5.35198493613e-05
-1.13078888496e-05
-2.04030208482e-06
-3.18092945065e-07
-4.07789589546e-08
-4.22820457898e-09
-4.20909362745e-10
-6.47900409423e-11
-0.0395087087832
-0.125422225748
-0.50547673479
-2.36701433798
-10.090175883
-2.84118025743
-0.565101314362
-0.0938357483713
-0.0172461663204
-0.00466792084422
-0.00146701231718
-0.000368985865172
-7.42714068038e-05
-1.69763316591e-05
-3.28217773809e-06
-5.512498044e-07
-7.67191665133e-08
-8.62726713536e-09
-9.31142860443e-10
-1.37634006915e-10
-0.0358286618596
-0.109860021486
-0.397850402627
-1.48102760801
-4.97527257126
-5.10661750373
-1.11358486439
-0.20074191496
-0.0320641507308
-0.00689339120824
-0.00194132154563
-0.00053872938911
-0.00010356644326
-2.47532961567e-05
-5.07642392348e-06
-9.11591784e-07
-1.36979596569e-07
-1.66621033855e-08
-1.94414844748e-09
-2.78235607822e-10
-0.0308560449004
-0.0865972689972
-0.266268604542
-0.805270638091
-2.48431634398
-10.3739724769
-2.68059736786
-0.558292659696
-0.0873299048351
-0.0134545189572
-0.00288200437016
-0.000757029841275
-0.000160920597351
-3.35386040795e-05
-7.52537972573e-06
-1.44140644171e-06
-2.32624352357e-07
-3.05144628013e-08
-3.83534132532e-09
-5.369367064e-10
-0.0249165637176
-0.0627676574898
-0.168654653625
-0.457736903524
-1.27154211186
-4.44067837592
-5.7655505142
-1.37222063509
-0.24825724438
-0.0327825832574
-0.00492643703494
-0.0010560952494
-0.000237893290199
-4.56015091646e-05
-1.07683764538e-05
-2.18490775514e-06
-3.76435685626e-07
-5.30736322414e-08
-7.15992569522e-09
-9.91412631569e-10
-0.0220275838963
-0.0547719189783
-0.146716482621
-0.382453642854
-0.979136952695
-2.99249542865
-8.68686267754
-2.38156170484
-0.510558019816
-0.0731477503686
-0.00861571599473
-0.00142583970791
-0.00032084069784
-6.11097658376e-05
-1.45717575674e-05
-3.1639442431e-06
-5.80988990841e-07
-8.78619939555e-08
-1.26811971909e-08
-1.75604949036e-09
-0.0295812125673
-0.0772034475243
-0.202301850935
-0.502905304948
-1.20203064261
-3.19391120497
-8.86041303207
-2.59315363943
-0.618218128377
-0.101296504341
-0.0117459726524
-0.00169647021582
-0.000375295058103
-8.14489593842e-05
-1.86034525481e-05
-4.39668827471e-06
-8.61156581509e-07
-1.39377705098e-07
-2.14449444819e-08
-3.00117262983e-09
-0.0553800107995
-0.135303610632
-0.328106097843
-0.776386756006
-1.80985124014
-4.69664111506
-5.80721031351
-1.76544317214
-0.437225330829
-0.0743983440191
-0.00933004583065
-0.00152034065731
-0.000380282143973
-0.000100982800105
-2.37598006808e-05
-6.02796621477e-06
-1.25285956891e-06
-2.15518239042e-07
-3.51142754084e-08
-5.01166098258e-09
-0.10058752383
-0.226421510409
-0.52195715846
-1.20703835919
-2.86821938784
-7.77422577151
-2.56830245607
-0.656049858311
-0.150372140292
-0.0268537373039
-0.00485592447399
-0.001219833253
-0.000393243067386
-0.00013171020508
-3.23419715533e-05
-8.61282881845e-06
-1.86072109441e-06
-3.34024199242e-07
-5.68312792112e-08
-8.30826624036e-09
-0.161452465004
-0.354717277214
-0.804188711133
-1.90503823003
-4.82832495627
-4.67582594012
-1.06506586895
-0.19787398459
-0.0400997334995
-0.012490025628
-0.00442018019478
-0.00162520470869
-0.000596954750813
-0.000215149646251
-5.75673709077e-05
-1.37722805704e-05
-3.02390984852e-06
-5.4267847321e-07
-9.35957503732e-08
-1.39942855859e-08
-0.246340876227
-0.541248300974
-1.22279905946
-2.81790070666
-6.77842661333
-3.18683072993
-0.731624272142
-0.187317912296
-0.0800784453681
-0.0364090733357
-0.0149615952478
-0.0053571273333
-0.00174449138622
-0.000542620606916
-0.00014895493551
-2.83627133353e-05
-5.81206216082e-06
-9.75765525433e-07
-1.62351851496e-07
-2.45750359138e-08
-0.326539680734
-0.688100844166
-1.48214841731
-3.20104026088
-6.95419106682
-3.02133848739
-0.938455239882
-0.408080009461
-0.264046880966
-0.158856409476
-0.0731102127846
-0.0264841811247
-0.00800453084279
-0.00210959382771
-0.000505237235497
-8.38800779107e-05
-1.2949439657e-05
-2.00209164298e-06
-3.04514490298e-07
-4.59264779917e-08
-0.340366189101
-0.673917850016
-1.34309448795
-2.61931837283
-4.98606485841
-4.18758893094
-1.75260969231
-1.03894496529
-0.780611984485
-0.541959698839
-0.288179465528
-0.11849407531
-0.0379904960394
-0.00975182209382
-0.0020115617918
-0.000334227696898
-3.4473064601e-05
-4.62876557155e-06
-6.23070714344e-07
-9.19278217466e-08
-0.25843507769
-0.47361712361
-0.864629671107
-1.52600198246
-2.57123355328
-4.14136901707
-4.13949022587
-2.753547248
-2.0715418869
-1.47701912345
-0.86561196998
-0.403763707391
-0.145556897338
-0.0404773246844
-0.00836925339611
-0.00127027971388
-0.0001183322003
-1.04807678172e-05
-1.31120204763e-06
-1.92058317691e-07
-0.13496128602
-0.2255793923
-0.376708161429
-0.612021037901
-0.944481968556
-1.39778967953
-1.99806247993
-2.69874996206
-3.45255386552
-3.49062065216
-2.04613598643
-1.03673193355
-0.419796914427
-0.130290665509
-0.0295861393988
-0.00430284401011
-0.000400551192898
-2.37421669838e-05
-2.58303776595e-06
-3.97058023106e-07
-0.0526950548047
-0.079527738928
-0.121579950899
-0.188416961429
-0.303498538171
-0.481962728907
-0.7283347784
-1.01897756489
-1.35814446147
-1.87683922287
-3.03886372741
-1.94483694174
-0.858024587869
-0.300257906793
-0.0791513644404
-0.0126151827918
-0.00109868551094
-6.23729117421e-05
-4.83298096993e-06
-7.67880471549e-07
-0.0391875688021
-0.0637054817229
-0.10843411641
-0.183443100793
-0.302297075127
-0.48001351811
-0.726575435635
-1.04025136806
-1.42003783818
-1.89281334385
-2.63452197792
-2.55501720597
-1.17231716864
-0.439498093156
-0.126159881594
-0.0224517053184
-0.00193881040005
-0.000113968419356
-8.60236374476e-06
-1.46405607256e-06
-0.235096840145
-0.305100486572
-0.414798864931
-0.578864042211
-0.814272183635
-1.13912522428
-1.56915720455
-2.11181136971
-2.77321898527
-3.59953206136
-3.88449734144
-2.01894978054
-1.03008852899
-0.412321022776
-0.117509007724
-0.0207610772681
-0.0018142240043
-0.000114265033527
-1.04560719941e-05
-2.57220791925e-06
-0.764236975357
-0.912553124144
-1.13992700002
-1.46645014217
-1.91940752599
-2.53971026965
-3.36130092543
-4.42774664798
-5.74279020498
-3.99458969364
-2.11042345525
-1.09012597423
-0.553008888044
-0.229267748706
-0.0638841208871
-0.0104038045374
-0.000935425268921
-7.59959393494e-05
-1.20838271935e-05
-4.61852303986e-06
-1.32289826875
-1.59308575421
-2.01240191104
-2.6281869433
-3.50453489853
-4.74962663715
-6.34400074669
-4.35409257641
-2.60082387023
-1.46320715333
-0.775679314367
-0.396915530986
-0.188376792417
-1.1194843151e-15
-2.70024770641e-15
-7.16103535008e-15
-6.97190949825e-15
-3.05823514047e-14
-1.80807897929e-14
-1.13391849211e-13
-4.64544952478e-14
-3.26740406698e-13
-1.10595060647e-13
-8.35060301626e-13
-2.47732940843e-13
-1.92677036892e-12
-5.15122956943e-13
-4.1365054454e-12
-1.01900824781e-12
-8.40359939326e-12
-1.93791658731e-12
-1.63913447224e-11
-3.57800230055e-12
-3.10655063556e-11
-6.46631640435e-12
-5.75736357078e-11
-1.15282703889e-11
-1.04572295449e-10
-2.04126771961e-11
-1.85702681167e-10
-3.58107887264e-11
-3.23377325217e-10
-6.23065811972e-11
-5.55835666963e-10
-1.09133557757e-10
-9.47495245668e-10
-1.96106345821e-10
-1.6392518819e-09
-3.75965565845e-10
-2.95941772277e-09
-8.01308114733e-10
-5.75148754812e-09
-1.92756191579e-09
-1.22545365382e-08
-5.07389409454e-09
-2.83846536547e-08
-1.38252981544e-08
-6.8203221317e-08
-3.69817349466e-08
-1.62755825922e-07
-9.4435615456e-08
-3.69887795347e-07
-2.26445318762e-07
-7.99695402191e-07
-5.08962208552e-07
-1.62276069975e-06
-1.07349115064e-06
-3.12727776835e-06
-2.13846837569e-06
)
;

boundaryField
{
    inletfuel
    {
        type            calculated;
        value           uniform 0;
    }
    inletair
    {
        type            calculated;
        value           uniform 0;
    }
    outlet
    {
        type            calculated;
        value           nonuniform 0();
    }
    axis
    {
        type            empty;
    }
    leftside
    {
        type            calculated;
        value           uniform 0;
    }
    burnerwall
    {
        type            calculated;
        value           uniform 0;
    }
    front
    {
        type            wedge;
    }
    back
    {
        type            wedge;
    }
    procBoundary0to1
    {
        type            processor;
        value           uniform 0;
    }
}


// ************************************************************************* //
