/*--------------------------------*- C++ -*----------------------------------*\
  =========                 |
  \\      /  F ield         | OpenFOAM: The Open Source CFD Toolbox
   \\    /   O peration     | Website:  https://openfoam.org
    \\  /    A nd           | Version:  7
     \\/     M anipulation  |
\*---------------------------------------------------------------------------*/
FoamFile
{
    version     2.0;
    format      ascii;
    class       volScalarField;
    location    "0.07";
    object      ed::R_H2;
}
// * * * * * * * * * * * * * * * * * * * * * * * * * * * * * * * * * * * * * //

dimensions      [1 -3 -1 0 0 0 0];

internalField   nonuniform List<scalar> 
814
(
-4.10224041936e-08
-4.12490484755e-08
-2.87692265985e-08
-6.07784399091e-06
-8.34573513276e-06
-1.49726678243e-05
-0.000432462219206
-0.00104976223887
-0.0078756715504
-0.0186145499991
-0.102196122334
-3.28746541622
-0.03855541077
-0.167585553778
-1.89607621373
-0.0537338566038
-0.175175480815
-0.933900653625
-0.0586008226267
-0.141916782126
-0.424074080907
-0.053456291583
-0.0975762285434
-0.186866903989
-0.0421927894025
-0.0603451978661
-0.0821194094482
-0.0294375058794
-0.0347242744292
-0.0367894729499
-0.0184159244803
-0.0189566311608
-0.0171314230578
-0.0104851201873
-0.00997375992653
-0.00844385762622
-0.00555202883431
-0.00516911821995
-0.00451180102761
-0.00285952680536
-0.00275020897887
-0.00270187304069
-0.00154823746206
-0.00160757438833
-0.0018567593061
-0.000970799946487
-0.00109408621987
-0.00143599406878
-0.000736775369338
-0.000867443375161
-0.001193714544
-0.000668597207297
-0.000792004757298
-0.00108846219878
-0.000814200973127
-0.000972396761393
-0.00135755734008
-0.00161778516724
-0.00192151216168
-0.00265243017027
-0.00364491474661
-0.0041843016207
-0.00545648293867
-0.00646854526016
-0.00730875941338
-0.00928061698695
-0.00994473085441
-0.0112159920311
-0.0142171387593
-0.0137101472879
-0.0154398592944
-0.0194568435865
-0.0155230599231
-0.017307609805
-0.0214567022388
-0.0131669431488
-0.0145220383907
-0.0175568226298
-0.00807731347094
-0.00871556530624
-0.0101731689133
-0.00376231164163
-0.00398500133852
-0.00446371835693
-0.00286807818043
-0.00300395525035
-0.00332349063456
-0.0218624442717
-0.0224156886539
-0.0236497444364
-0.0807000791788
-0.0816199429299
-0.0841866898549
-0.137028720183
-0.139417755839
-0.144246548861
-0.950862281187
-5.98614776292
-1.96196639303
-0.635211899741
-0.215009346405
-0.0780653624629
-0.0311285064789
-0.013901545216
-0.00714935533999
-0.00435675817138
-0.00312804013276
-0.00251453867844
-0.00211012038396
-0.00176573519426
-0.00158272210453
-0.00201215339704
-0.00387115029038
-0.00750154805018
-0.0124071643885
-0.0189905700115
-0.0257519528808
-0.027822005687
-0.0221257282559
-0.0122820230633
-0.00514339913515
-0.00379222856043
-0.0254712772988
-0.0878194568335
-0.151206837247
-0.000179140844591
-5.88698922267e-05
-3.73507015638e-05
-2.259288279e-05
-1.19243271043e-05
-5.49859794626e-06
-1.87412139285e-06
-4.87033981995e-07
-1.16737321798e-07
-2.57611472767e-08
-5.1416093599e-09
-9.19040718633e-10
-1.43841762216e-10
-1.95173093328e-11
-2.23559065691e-12
-2.13559724197e-13
-1.64391113077e-14
-9.89996465732e-16
-4.5445151701e-17
-3.03266076063e-18
-0.028840419027
-0.0114635924524
-0.00342707555036
-0.00104738393503
-0.000343732814194
-0.000115379199631
-2.76652337262e-05
-5.69647803022e-06
-1.13897480116e-06
-2.1773370937e-07
-3.88950104638e-08
-6.35426336298e-09
-9.24824162878e-10
-1.17613019526e-10
-1.27310783705e-11
-1.15418189224e-12
-8.50269530102e-14
-4.92963956561e-15
-2.22824220708e-16
-1.3253681142e-17
-0.325468313682
-0.953541457916
-0.170786912619
-0.0245438901269
-0.00394895193902
-0.000654894127541
-0.000128572045421
-2.42510053616e-05
-4.52305480376e-06
-8.20192495377e-07
-1.40433573873e-07
-2.21387606258e-08
-3.1283279475e-09
-3.86722805117e-10
-4.06378242042e-11
-3.57448690437e-12
-2.55819589253e-13
-1.45496502559e-14
-6.50329490426e-16
-3.44369344779e-17
-3.35479177257
-4.23159012365
-1.39786329029
-0.298665106459
-0.0512828208214
-0.00671773835018
-0.000735006432309
-0.000100295144595
-1.71178898657e-05
-2.94565844639e-06
-4.88466883974e-07
-7.52276353938e-08
-1.04659846863e-08
-1.2807316376e-09
-1.33379064981e-10
-1.16415720158e-11
-8.27323254244e-13
-4.73269904549e-14
-2.16307377653e-15
-1.45686651612e-16
-4.21532040331
-0.617927256632
-1.15276804501
-1.90706627098
-0.33883156283
-0.0544650293483
-0.00659644056463
-0.000634948220289
-5.97010620306e-05
-9.74853872792e-06
-1.58045311523e-06
-2.41214570315e-07
-3.36116252913e-08
-4.15352836385e-09
-4.38170002165e-10
-3.88016804063e-11
-2.7995819667e-12
-1.64816827569e-13
-8.00063081745e-15
-8.0871422562e-16
-1.2409872274
-0.100422299148
-0.259696640648
-2.08082859966
-0.54243952504
-0.100822255513
-0.0132059496843
-0.0015757792601
-0.000149995345867
-2.48052660965e-05
-4.25813620769e-06
-6.73958730755e-07
-9.69160289263e-08
-1.23865123022e-08
-1.35392597436e-09
-1.24221717139e-10
-9.28901408449e-12
-5.71970881227e-13
-3.02636315337e-14
-4.17757458907e-15
-0.338858923308
-0.0730943186119
-0.312523435417
-2.09564243941
-0.430988370248
-0.0872221469501
-0.0130599008653
-0.00202758044531
-0.000328105738235
-4.82472010381e-05
-9.45206723322e-06
-1.60669397099e-06
-2.43871818684e-07
-3.28838342634e-08
-3.7977059431e-09
-3.67653031297e-10
-2.89924777455e-11
-1.88925121067e-12
-1.10091618286e-13
-1.81000418304e-14
-0.105360587566
-0.0703796760603
-0.302657252289
-2.06831163194
-0.393739426132
-0.0827803016926
-0.013707099374
-0.00249190899982
-0.000541395047076
-9.10010873984e-05
-1.79767224043e-05
-3.32883725674e-06
-5.37544764858e-07
-7.73087056344e-08
-9.55910360086e-09
-9.90288949622e-10
-8.34792811835e-11
-5.81099763957e-12
-3.73073758723e-13
-6.58632754237e-14
-0.0403494876575
-0.0551426987326
-0.210848581618
-1.37093362208
-0.470474412197
-0.0987143434724
-0.0169484517549
-0.00314574871416
-0.000763560143137
-0.000166276590439
-2.92772514957e-05
-6.01425608042e-06
-1.05038527058e-06
-1.62410807326e-07
-2.16781535441e-08
-2.42692019616e-09
-2.2085292868e-10
-1.65427425328e-11
-1.16641703291e-12
-2.08117267249e-13
-0.0186446170212
-0.0363255478737
-0.13721890091
-0.773328008779
-0.745997794028
-0.142985751009
-0.0241417385024
-0.0041316173712
-0.00098353181604
-0.000256026474936
-4.53350107544e-05
-9.97027178824e-06
-1.87244909131e-06
-3.10642428311e-07
-4.48242866026e-08
-5.4507168896e-09
-5.38882953296e-10
-4.36505838099e-11
-3.36733772264e-12
-5.88010184796e-13
-0.0100858144096
-0.0242657873564
-0.0988545629913
-0.56579887845
-1.08598640496
-0.206196544722
-0.034852887522
-0.0054054159193
-0.00118477171993
-0.000337241971294
-7.41498089939e-05
-1.44618031346e-05
-3.05637504116e-06
-5.47667028871e-07
-8.5491846238e-08
-1.13191644702e-08
-1.22024813208e-09
-1.07225686518e-10
-9.02372469376e-12
-1.51866563966e-12
-0.0067369503998
-0.0185483951974
-0.0790717046439
-0.469171192164
-1.3199886118
-0.254303664902
-0.0454269933804
-0.00676784808941
-0.00138767753086
-0.000405085912564
-0.00010837102916
-2.07573411411e-05
-4.72621707094e-06
-9.08288182164e-07
-1.52552108158e-07
-2.19502327353e-08
-2.58220858135e-09
-2.46485587905e-10
-2.25829339857e-11
-3.63682247947e-12
-0.00551696571222
-0.0169772606495
-0.0716343837811
-0.394945918272
-1.49572171216
-0.283652750348
-0.0535321464956
-0.00828431192269
-0.00163456928314
-0.000473837933357
-0.000145174293284
-3.1033679669e-05
-6.74392279359e-06
-1.42488310917e-06
-2.57094141703e-07
-4.00822178744e-08
-5.13847019517e-09
-5.32787098179e-10
-5.30378967678e-11
-8.16405574984e-12
-0.00497840866311
-0.0158041888596
-0.0636940520959
-0.298262460324
-1.27144167894
-0.358011102935
-0.0712072190056
-0.0118240437865
-0.0021731528683
-0.000588194812872
-0.000184855113054
-4.649512688e-05
-9.35878256822e-06
-2.13915157449e-06
-4.13580260869e-07
-6.94618195907e-08
-9.66721958169e-09
-1.08710364799e-09
-1.17331338477e-10
-1.73429695242e-11
-0.00451469374937
-0.0138432284815
-0.0501322860722
-0.186621150149
-0.626923552628
-0.643474049209
-0.140320468745
-0.0252950632725
-0.00404033568015
-0.000868621617011
-0.00024462181373
-6.78841485945e-05
-1.30501880273e-05
-3.11911038913e-06
-6.39669420151e-07
-1.14867748769e-07
-1.72605086634e-08
-2.09955633567e-09
-2.44978025641e-10
-3.50598792779e-11
-0.0038881048248
-0.0109119383411
-0.0335519425562
-0.101470446499
-0.313043437502
-1.30720228629
-0.337776393344
-0.0703492748607
-0.0110042562303
-0.00169537541968
-0.000363155262863
-9.53917259284e-05
-2.02772634337e-05
-4.22612842181e-06
-9.4825715073e-07
-1.81628570953e-07
-2.93125016406e-08
-3.8450627884e-09
-4.83283232179e-10
-6.76582564454e-11
-0.00313968338847
-0.00790921949703
-0.0212518154741
-0.057678457133
-0.160224326741
-0.559560471037
-0.726504801383
-0.172910614086
-0.0312823692336
-0.00413086384025
-0.000620769890193
-0.000133076324198
-2.99764293316e-05
-5.74614952672e-06
-1.35690029556e-06
-2.75315595759e-07
-4.74338629669e-08
-6.68769591998e-09
-9.0220706285e-10
-1.24925804607e-10
-0.00277564916379
-0.00690169343253
-0.0184874330393
-0.0481921730034
-0.123378972328
-0.377078006979
-1.09461315596
-0.300095543191
-0.0643343340532
-0.00921719300218
-0.00108564811324
-0.000179667039817
-4.04284563783e-05
-7.7003120835e-06
-1.8361562892e-06
-3.98681908738e-07
-7.3209191448e-08
-1.10713036527e-08
-1.59793078282e-09
-2.21276074691e-10
-0.00372746590425
-0.00972824280555
-0.0254916274987
-0.0633700316711
-0.151465333816
-0.402457982094
-1.11648186833
-0.326757794443
-0.0779003561694
-0.0127641578347
-0.00148008512074
-0.000213768616572
-4.72901349101e-05
-1.02632107575e-05
-2.34418162935e-06
-5.54017371611e-07
-1.0851251579e-07
-1.75626892368e-08
-2.70223200597e-09
-3.7817140271e-10
-0.00697831779419
-0.0170493212273
-0.0413439540352
-0.0978308497306
-0.228055519159
-0.591813793334
-0.731754264406
-0.222459752624
-0.0550938373277
-0.0093747776577
-0.00117565930199
-0.000191574904176
-4.79185470315e-05
-1.27246286288e-05
-2.99392212973e-06
-7.59571247676e-07
-1.57870179097e-07
-2.71569965547e-08
-4.42467542666e-09
-6.3150877922e-10
-0.0126748207031
-0.0285308946724
-0.0657707153556
-0.152096345569
-0.361418246455
-0.97961371358
-0.323626349496
-0.0826674522816
-0.018948074715
-0.00338378252664
-0.000611884751824
-0.000153708603022
-4.95517255227e-05
-1.65965238091e-05
-4.0753432932e-06
-1.08528430628e-06
-2.34465521687e-07
-4.20896814502e-08
-7.16118905108e-09
-1.04690702127e-09
-0.0203442829496
-0.0446971723507
-0.101334115176
-0.240049830025
-0.608406995088
-0.589190917254
-0.134206692957
-0.0249336814445
-0.00505288243505
-0.00157384165932
-0.000556977538672
-0.000204788601052
-7.5221003026e-05
-2.71105509583e-05
-7.25394240576e-06
-1.73541588713e-06
-3.8103647145e-07
-6.83817643126e-08
-1.17938021474e-08
-1.76339026864e-09
-0.031040891744
-0.0682015513402
-0.154082318009
-0.355077696079
-0.85413517205
-0.40156578644
-0.092190424004
-0.0236035331462
-0.0100905151909
-0.00458783016941
-0.00188527890912
-0.000675040261929
-0.000219819662484
-6.83744727036e-05
-1.8769495744e-05
-3.57392539838e-06
-7.32365635402e-07
-1.22954145924e-07
-2.04576127353e-08
-3.09664819371e-09
-0.0411465731349
-0.0867061290837
-0.186762380953
-0.40335629932
-0.876282878339
-0.380712459684
-0.118252755913
-0.0514212971496
-0.0332719878769
-0.0200171594942
-0.00921246297078
-0.00333721553569
-0.00100863396753
-0.000265825447376
-6.36638732976e-05
-1.05695508508e-05
-1.63173144748e-06
-2.52279324907e-07
-3.8371225566e-08
-5.78709815991e-09
-0.0428888221518
-0.0849189600488
-0.169240490012
-0.330054757049
-0.628283465859
-0.527669206446
-0.220842633029
-0.130915253244
-0.0983632618168
-0.0682911930775
-0.0363128837135
-0.0149311873057
-0.0047871018928
-0.00122880643504
-0.000253472638289
-4.21153237586e-05
-4.34387781173e-06
-5.83260939945e-07
-7.85118202429e-08
-1.1583629996e-08
-0.0325648564392
-0.0596794900111
-0.10895015245
-0.192288275759
-0.323995690843
-0.521845133053
-0.521608390555
-0.346968653138
-0.261030602957
-0.186116049504
-0.109073929849
-0.0508774090733
-0.0183413161553
-0.00510046190004
-0.00105459188351
-0.000160065254647
-1.49107897788e-05
-1.32065934079e-06
-1.65221791196e-07
-2.42008615838e-08
-0.0170061856284
-0.0284247811541
-0.0474681970655
-0.077119473932
-0.119012171221
-0.176132515186
-0.251771618609
-0.340063763268
-0.43504899561
-0.439845710719
-0.257829259281
-0.130636393805
-0.0528977195129
-0.0164176506363
-0.00372808672384
-0.000542192254712
-5.04726069303e-05
-2.99170014494e-06
-3.25483114665e-07
-5.00324400079e-08
-0.0066399921795
-0.0100211218395
-0.0153200319489
-0.0237420219983
-0.0382432075916
-0.0607311020477
-0.091775921869
-0.128399203436
-0.171136905279
-0.236496532895
-0.382920778039
-0.245064781343
-0.108117859909
-0.0378348624994
-0.00997369568794
-0.00158961244828
-0.000138443032793
-7.85947842193e-06
-6.08993689502e-07
-9.67589908536e-08
-0.00493794249468
-0.0080273927411
-0.0136635532048
-0.0231152763607
-0.0380918137796
-0.0604854861262
-0.0915542308157
-0.131079870288
-0.178935958508
-0.238509398026
-0.331970531105
-0.321952303286
-0.147721201933
-0.0553802232919
-0.0158971393095
-0.00282909180536
-0.000244305389597
-1.43609189902e-05
-1.08396562452e-06
-1.84482602934e-07
-0.0296240545867
-0.0384450657146
-0.0522679258882
-0.0729414311745
-0.102604712176
-0.143538755367
-0.197726173836
-0.266104875143
-0.349447447061
-0.453569406576
-0.489477277593
-0.254403583093
-0.129799272475
-0.0519556982496
-0.0148070610269
-0.00261605934768
-0.000228606521903
-1.43982947133e-05
-1.31754747246e-06
-3.24118468634e-07
-0.09629988162
-0.114988885203
-0.143639785429
-0.184784274573
-0.241860474556
-0.320023508679
-0.423550406021
-0.557930971404
-0.723636823055
-0.503349781576
-0.265929986983
-0.137364463712
-0.0696834779927
-0.0288895431281
-0.00804990268359
-0.00131096136101
-0.000117870955693
-9.5760872595e-06
-1.52265745544e-06
-5.81970300233e-07
-0.166695607231
-0.200741359667
-0.253578499934
-0.331172266819
-0.441599015416
-0.59849038668
-0.799394089272
-0.548649977941
-0.327724303971
-0.184375632421
-0.097741706509
-0.0500144848779
-0.0237369603862
-1.41063846027e-16
-3.40252490859e-16
-9.02346888107e-16
-8.78515540332e-16
-3.85361728744e-15
-2.27832200326e-15
-1.42882666081e-14
-5.85363249533e-15
-4.11718661883e-14
-1.39358492084e-14
-1.05224178868e-13
-3.12163028562e-14
-2.4278825079e-13
-6.49095521062e-14
-5.21232284694e-13
-1.28403069726e-13
-1.05891974983e-12
-2.44192762147e-13
-2.06543861035e-12
-4.50856487045e-13
-3.91449861886e-12
-8.14806826071e-13
-7.25473181994e-12
-1.45265291988e-12
-1.31769333298e-11
-2.57215819297e-12
-2.34000012949e-11
-4.51244159374e-12
-4.07480914182e-11
-7.85112025055e-12
-7.00396744134e-11
-1.37516883265e-11
-1.19391867883e-10
-2.47109450294e-11
-2.06558655578e-10
-4.73746241696e-11
-3.72909955363e-10
-1.00971137328e-10
-7.24732756832e-10
-2.42887991934e-10
-1.54416817818e-09
-6.39350641768e-10
-3.57669005153e-09
-1.74209652053e-09
-8.59414337532e-09
-4.65999004536e-09
-2.05085166966e-08
-1.18996317666e-08
-4.66087771898e-08
-2.85338947124e-08
-1.00767922838e-07
-6.41332492579e-08
-2.04480636664e-07
-1.35268344847e-07
-3.94061643962e-07
-2.69463867972e-07
)
;

boundaryField
{
    inletfuel
    {
        type            calculated;
        value           uniform 0;
    }
    inletair
    {
        type            calculated;
        value           uniform 0;
    }
    outlet
    {
        type            calculated;
        value           nonuniform 0();
    }
    axis
    {
        type            empty;
    }
    leftside
    {
        type            calculated;
        value           uniform 0;
    }
    burnerwall
    {
        type            calculated;
        value           uniform 0;
    }
    front
    {
        type            wedge;
    }
    back
    {
        type            wedge;
    }
    procBoundary0to1
    {
        type            processor;
        value           uniform 0;
    }
}


// ************************************************************************* //
