/*--------------------------------*- C++ -*----------------------------------*\
  =========                 |
  \\      /  F ield         | OpenFOAM: The Open Source CFD Toolbox
   \\    /   O peration     | Website:  https://openfoam.org
    \\  /    A nd           | Version:  7
     \\/     M anipulation  |
\*---------------------------------------------------------------------------*/
FoamFile
{
    version     2.0;
    format      ascii;
    class       volScalarField;
    location    "0.07";
    object      epsilon;
}
// * * * * * * * * * * * * * * * * * * * * * * * * * * * * * * * * * * * * * //

dimensions      [0 2 -3 0 0 0 0];

internalField   nonuniform List<scalar> 
814
(
17033.1320242
21240.4439558
54276.0252832
21713.278463
25745.2133718
46884.4618842
23360.3173104
29342.6936802
43944.6282631
28570.8903461
50564.6546748
135289.350905
36621.6746603
78728.5803947
241978.699564
48879.9077872
114551.59169
308356.025593
65344.0902398
151677.242354
339698.291678
85626.0256824
185205.850624
349226.522528
109218.97091
213085.844877
348700.621943
134908.08989
234130.083364
343322.139387
160395.185272
247377.414377
333901.348252
181903.063665
251489.641517
318242.677973
194255.325964
244392.728225
292576.372407
192018.176925
223779.252905
254157.167704
170901.268617
187653.536786
202269.485291
131268.752434
137665.581214
140980.716675
84358.780535
85533.6057491
83917.715693
47484.8705795
47371.999297
45825.1721531
28202.8929351
28369.4561529
28210.9090549
19609.1737361
19794.6824133
19857.7967535
12314.9166579
12286.3315267
12111.5020981
7907.61613503
7911.50395584
7880.75543787
6493.75596679
6478.30958928
6417.02881255
6076.19739348
6027.32542005
5902.21374694
6009.73690155
5937.03351153
5767.53596814
5940.71051226
5860.93097456
5678.72432713
5578.58810453
5514.5965027
5368.04104016
4951.13926729
4919.88198704
4846.02826146
5020.1572163
5028.51324914
5040.6729215
6907.60747061
6887.82879636
6829.23807643
4925.64695272
4882.58183574
4780.16593456
2074.76932111
2063.92044913
2036.25223922
3777.37659447
165302.091917
251599.069781
292506.878095
312426.257202
325472.655003
332328.24618
331142.828891
319471.454398
293736.305866
252111.143603
195736.290739
131769.291324
76189.2968383
41961.3233192
27173.1931019
19329.7585794
11679.8243401
7751.21754714
6263.36858619
5682.47529741
5502.80610397
5402.69204222
5145.88429106
4728.29272586
5045.98664055
6741.83235223
4648.94161812
1998.24149175
0.838585894729
0.796069956206
0.809122034382
0.810112617843
0.73131451683
0.633177426741
0.524717181663
0.433674412433
0.354200769612
0.290660662507
0.236246236596
0.192964847434
0.156546483137
0.129130677105
0.106500644464
0.0912845969379
0.0789160574558
0.0716466308939
0.0689805529926
0.234643114001
2.83598704995
3.079507246
3.36401840219
2.20737881414
1.59470581815
1.12685077263
0.804375364469
0.58179487055
0.428472837203
0.325151023912
0.25213715212
0.19942952411
0.15939607605
0.129973606809
0.107273334721
0.0914826100753
0.0797778398236
0.0723968232708
0.0727148835359
0.244969798688
39.850226685
19.5295494429
11.9103490401
7.07714335572
4.01442021847
2.3844030584
1.35168106212
0.822050776404
0.536345283332
0.376094859322
0.277772618271
0.213069684489
0.167209966845
0.134570348651
0.110270097528
0.0933375613537
0.0811923309669
0.0735441464597
0.0753362112644
0.25433127745
3671.11961216
433.263069587
85.8420499342
27.6091182365
11.3402375065
5.25620324194
2.62533780809
1.3391607009
0.741945793679
0.465512014755
0.321440146386
0.236651735958
0.180866244252
0.143005052251
0.115599814048
0.0968855649717
0.0835268011494
0.0755846845128
0.0782149893479
0.371280665066
17793.8728077
3367.54335504
995.996637334
201.047335641
40.4413671812
14.0390797829
5.47680321894
2.28492140492
1.08566344181
0.598734738876
0.380750053773
0.266438363711
0.197143034368
0.152693094342
0.121516174116
0.100841709665
0.086109785737
0.0779484036807
0.0817192058703
0.453661272268
40833.0572217
8421.2508896
1852.5223399
410.380090995
76.5178498826
21.0846458258
7.57004887995
3.06229117501
1.44566291308
0.765353730553
0.456489909324
0.302861631306
0.215943214669
0.163235809344
0.127722616164
0.104842861831
0.0887499289606
0.0801418107324
0.086368811707
0.568064971437
72045.2735229
15551.6398568
2789.97749788
373.889045067
73.0832959957
21.2587774501
7.87723376165
3.50208684871
1.77073753094
0.959431388539
0.551513144339
0.347493023401
0.237925415688
0.174772726932
0.134193758958
0.108785860858
0.0913292553466
0.0820358061481
0.0915191338378
0.681460066319
115463.022258
27434.5385403
4465.03358285
447.412251893
81.1293269314
23.2982232613
8.63228366807
4.00931680925
2.12237556285
1.1782301467
0.668106219143
0.40285933641
0.264598393654
0.188167522647
0.141373069914
0.112976747375
0.0940248132641
0.0840123960746
0.0966622832041
0.770431407456
163658.583439
44060.0095831
6963.97495485
704.020704237
111.5840123
29.19676702
10.1607798696
4.61641605999
2.49714041809
1.4088147363
0.802964660977
0.470753476398
0.297361665795
0.204305290433
0.149705085407
0.117684777905
0.0969780566125
0.0863197643543
0.101894256777
0.824589922694
204939.251258
64306.9424067
10364.837045
1177.34243232
173.290295067
40.2230271829
12.5369335175
5.30583249279
2.85942196159
1.64076027079
0.949810270257
0.551794676123
0.337328353076
0.223895736571
0.159539389418
0.123056454886
0.100239186582
0.0889667757114
0.107378895975
0.854184266418
230371.872812
84059.9852449
14475.3883963
1704.89515069
257.943704003
55.197477445
15.3965709865
5.99983100487
3.1736236574
1.86690871454
1.09962562148
0.644098676899
0.385359837572
0.247579299511
0.171236764503
0.129229545618
0.10385304803
0.0919125806952
0.113174047656
0.866857964802
236245.491112
95880.9892095
18570.5061328
2148.65473628
336.703214607
71.3686735253
18.5090468626
6.73197103614
3.4774710067
2.08119777359
1.25058207831
0.745382862482
0.442008454417
0.276028743132
0.18522969507
0.13641152939
0.107913463934
0.0951642572437
0.11933511113
0.866801914849
222815.13411
94529.005408
20757.3967245
2558.70380551
418.151734534
94.5279531975
23.250575628
7.82622266286
3.85039580533
2.2974282999
1.40571699685
0.852112056228
0.507101402449
0.309930525473
0.201987925145
0.144871194974
0.112556413829
0.0987626248451
0.125886807957
0.856548911027
190227.97999
80983.4778175
18806.9988842
2580.61344031
525.438384575
148.797564257
35.741185644
10.5165131541
4.53962392045
2.56819492913
1.57390138552
0.963982270392
0.579653971728
0.349727352827
0.221933696551
0.154892943015
0.11793896934
0.102760993961
0.132871979877
0.838896941737
142415.370329
59017.2657138
14211.0190918
2379.3447284
737.754345714
299.05068114
74.4557323544
18.372414225
6.21573265486
3.03414100561
1.78079945449
1.08467097713
0.658191507837
0.39540117753
0.245384033871
0.166737918948
0.124227879462
0.107222043039
0.140184596501
0.816618907585
90837.8563746
37152.8749067
9992.30231978
2402.44065638
1083.12610954
645.965918913
189.170256701
41.7595449258
10.6829593029
4.00923245961
2.07779254433
1.22511346035
0.740112208516
0.445480902694
0.27240566747
0.180610854909
0.131591638782
0.11222086269
0.147620406525
0.792110949764
51745.8420577
23451.2672551
8437.18449205
3014.06649165
1529.28150245
1158.24537568
458.507406116
102.554205624
21.7890418363
6.08020631023
2.55374591325
1.39092972381
0.824143720108
0.498010532458
0.302547221327
0.196611739074
0.140183230741
0.117841667379
0.155017030052
0.766804456221
31265.2739161
17824.9646804
8629.70185512
3789.64719627
1883.99601903
1474.71532032
837.718222541
214.91710743
42.833950677
9.67780296867
3.22989847135
1.56798473885
0.902252204526
0.548730271302
0.334725873947
0.214735763383
0.150146124549
0.124175682376
0.16226906776
0.741361844331
23198.6270919
15420.7352451
8469.26020939
3990.75226406
1925.95186613
1450.8616045
1047.51445738
314.025351859
62.5833591724
12.9553250944
3.81382666266
1.70747314424
0.9693832157
0.595107464372
0.368006060441
0.235019900049
0.161634369357
0.131309119917
0.169295822713
0.716152530102
16724.9148688
11561.357595
6742.49083869
3271.61389411
1592.16925666
1204.600502
918.504474975
296.279553127
59.0404376788
12.2424665023
3.70876454171
1.72770488135
1.01449354356
0.637709362947
0.403245231823
0.257987315981
0.17504487588
0.13939326085
0.176027935682
0.691187651475
10404.9119975
7811.09646386
4715.79247194
2338.6825423
1209.90908836
905.92610202
613.815928921
160.46083163
31.6440015531
8.10893477419
3.20178565585
1.73400763379
1.07789833107
0.694232172258
0.446921077857
0.286108878567
0.191193304001
0.148649388347
0.182390446266
0.666549205867
7244.30780371
5541.94866695
3349.72084892
1688.74568766
919.304545242
619.751483624
329.859719084
69.7605600696
15.8189293683
6.40235718845
3.34998049452
1.98837675721
1.2510788519
0.803149522467
0.512949374212
0.324970836329
0.21199749587
0.159561396079
0.188368378211
0.64212576712
5783.92672122
4337.47078509
2615.67895863
1365.79213343
723.137925895
407.138675134
183.289824995
52.4695686511
19.8993833956
9.74137451713
5.35159790151
2.98317346244
1.73223510428
1.04129626534
0.631690031499
0.385613010285
0.241272592964
0.173088787597
0.194082467853
0.618002167014
5132.87795743
3800.51348327
2307.54563431
1208.27945002
613.456484467
318.88750825
150.254371028
62.727657025
35.5533696414
21.7105233766
12.2666074377
6.19619031883
3.08877343855
1.6117890106
0.874579036285
0.490095704491
0.285715917162
0.190795596506
0.199855229582
0.594906285914
4904.28103411
3611.18785546
2207.64768178
1176.16688457
606.651490361
322.755447471
173.674961392
99.5129156879
71.3119156786
53.442184702
33.3308804072
16.5834186072
7.19230122882
3.09175668567
1.41072520564
0.684147534967
0.357058099967
0.215687690927
0.206328166853
0.574418070742
4800.14874645
3566.50954688
2253.50996584
1270.25076842
702.979021583
413.369457982
266.783016592
190.192416971
154.005809722
129.32709594
93.0567475045
49.973131682
20.1666979159
7.17557613145
2.65749604835
1.07041694883
0.475309037394
0.251080404358
0.214553889183
0.558664825259
4653.03599769
3615.54269373
2459.25244592
1539.35148701
982.484867531
681.776987784
509.603126567
399.970165204
326.102199836
270.450862158
216.136261593
140.813251567
60.1544220688
18.4818828101
5.51019878559
1.81041760837
0.667085873901
0.300373685469
0.225933008439
0.55054522811
4445.73182338
3777.00989982
2944.90667563
2193.59356339
1622.99896162
1233.46998074
960.461805683
745.943203789
568.430358494
433.972273344
346.563669515
275.672925085
148.742479455
45.2208137482
11.5497952155
3.13623033753
0.962472233968
0.364308967943
0.241604229299
0.552880489499
5020.58618777
4775.69866886
4242.71561352
3475.15501107
2669.6504151
1978.06713452
1437.70601161
1023.34921729
709.719549765
488.291495073
364.401372439
324.107686605
235.991904453
80.4216223152
18.7176258663
4.50233466277
1.24397186308
0.424607306363
0.260695175631
0.567229286335
6491.13546574
5851.21511076
4948.48860951
3917.46742608
2920.54163998
2077.16993085
1426.64119242
951.755458729
618.446173939
395.143107611
270.492812205
241.351399812
222.592953505
90.6235451752
20.0998243274
4.65352382049
1.28645248641
0.451735265385
0.283998387019
0.594367122018
4358.11540678
3828.08935088
3191.40541207
2526.79912299
1906.36360232
1375.46444201
947.883896787
625.411079574
398.439186989
250.854884676
166.515314695
140.49898381
131.307453526
58.1919005868
13.334937799
3.40674372587
1.08374474379
0.453951675343
0.318270422483
0.63379121029
1913.22724254
1748.04286703
1538.6857498
1297.75548649
1035.9579277
767.911190325
521.197585063
331.16619678
199.734829608
118.674942934
78.8939838201
67.1926209697
53.6589257037
1.55749395059
3.28072250669
7.73166810345
4.24483608118
8.46956551936
4.76156017102
7.96568924793
4.67148067626
7.11422954272
4.41388407601
6.19589948625
4.11158119106
5.40559977399
3.81261107213
4.73898378127
3.52913826715
4.1900597349
3.26451865667
3.73706805973
3.0196258494
3.36231284482
2.79402399242
3.05032244932
2.58680335208
2.78865450646
2.39776521644
2.56815183833
2.2269414221
2.38250478582
2.0738291755
2.22635323471
1.93853398553
2.0960966678
1.82182885083
1.98915119092
1.72485476399
1.90279865542
1.6489958632
1.83471788336
1.59601891157
1.78340554175
1.56728857045
1.74919739627
1.56388309114
1.73478931827
1.58497206193
1.74331028182
1.62898842136
1.77719057866
1.69288159548
1.83687534116
1.77298901541
1.91630941708
1.86528383538
2.00391010659
1.96834758485
)
;

boundaryField
{
    inletfuel
    {
        type            turbulentMixingLengthDissipationRateInlet;
        mixingLength    0.005;
        phi             phi;
        k               k;
        value           uniform 1630.0935556;
    }
    inletair
    {
        type            turbulentMixingLengthDissipationRateInlet;
        mixingLength    0.005;
        phi             phi;
        k               k;
        value           uniform 0.0603738353925;
    }
    outlet
    {
        type            inletOutlet;
        inletValue      nonuniform 0();
        value           nonuniform 0();
    }
    axis
    {
        type            empty;
    }
    leftside
    {
        type            epsilonWallFunction;
        value           nonuniform List<scalar> 
33
(
1.55749395059
3.28072250669
0.234643114001
0.244969798688
0.25433127745
3.28072250669
4.24483608118
4.76156017102
4.67148067626
4.41388407601
4.11158119106
3.81261107213
3.52913826715
3.26451865667
3.0196258494
2.79402399242
2.58680335208
2.39776521644
2.2269414221
2.0738291755
1.93853398553
1.82182885083
1.72485476399
1.6489958632
1.59601891157
1.56728857045
1.56388309114
1.58497206193
1.62898842136
1.69288159548
1.77298901541
1.86528383538
1.96834758485
)
;
    }
    burnerwall
    {
        type            epsilonWallFunction;
        value           nonuniform List<scalar> 7(54276.0252832 46884.4618842 43944.6282631 0.838585894729 2.83598704995 39.850226685 3777.37659447);
    }
    front
    {
        type            wedge;
    }
    back
    {
        type            wedge;
    }
    procBoundary0to1
    {
        type            processor;
        value           nonuniform List<scalar> 
27
(
1155.23377319
1155.90569479
1155.80377211
1154.87242728
22.0091353663
6.57458895415
2.22618233029
0.914352290747
0.48312026095
0.382449326109
0.68745270551
1151.4244772
1131.44772018
1071.85078515
946.777165279
753.872074388
523.250292967
308.363182084
162.98230847
85.1430248666
49.1703599017
36.4596943308
30.3073347845
22.0091353663
20.997683306
2.08707620336
2.08742885821
)
;
    }
}


// ************************************************************************* //
