/*--------------------------------*- C++ -*----------------------------------*\
  =========                 |
  \\      /  F ield         | OpenFOAM: The Open Source CFD Toolbox
   \\    /   O peration     | Website:  https://openfoam.org
    \\  /    A nd           | Version:  7
     \\/     M anipulation  |
\*---------------------------------------------------------------------------*/
FoamFile
{
    version     2.0;
    format      ascii;
    class       volScalarField;
    location    "0.07";
    object      H2;
}
// * * * * * * * * * * * * * * * * * * * * * * * * * * * * * * * * * * * * * //

dimensions      [0 0 0 0 0 0 0];

internalField   nonuniform List<scalar> 
814
(
0.999999958366
0.999999967507
0.999999987361
0.999995775469
0.999995621555
0.999996560173
0.999780017621
0.999628043103
0.999100528468
0.992942976491
0.978682192566
0.830894217962
0.981216588398
0.952969363318
0.791323448597
0.962888013381
0.920086183605
0.752419201033
0.936741275959
0.880789728411
0.716543062878
0.901931618237
0.836673240013
0.683983359729
0.857801821528
0.789198616596
0.653876207035
0.805170252574
0.740096725767
0.62600895361
0.746882885179
0.691127334381
0.599576462804
0.687046367281
0.643485530045
0.572873670584
0.629159873989
0.597266847369
0.543896109427
0.573723425813
0.550819778576
0.510154894538
0.517447577086
0.500458759481
0.468359689212
0.456268214938
0.442990583824
0.416760373597
0.39226098999
0.381808866452
0.360725736718
0.335834791252
0.327985436544
0.312051156022
0.292310101968
0.286555707414
0.274799778614
0.250833146392
0.246491832273
0.237553250226
0.209805856562
0.206675508155
0.200132474064
0.183370663355
0.180906977779
0.175629136669
0.167313733136
0.164853210425
0.159525938139
0.155031111884
0.152486992934
0.147018149037
0.14754197816
0.145044175788
0.139705758518
0.145531420284
0.143210712538
0.138260572928
0.149886672982
0.147928161431
0.143753663937
0.159212365786
0.157722698878
0.154531078227
0.164415570148
0.163290447577
0.160872261894
0.129662220202
0.128867109333
0.127073666155
0.0709482725455
0.0706467977749
0.0699218004226
0.0331764924004
0.0330150675082
0.0326348169085
0.338608392115
0.438265280504
0.489229700631
0.510951869011
0.519110454853
0.520584086372
0.518996813224
0.51452192512
0.505286823552
0.489607216112
0.465492943143
0.430438615663
0.384197896456
0.334079765815
0.291904393163
0.259813278674
0.225955640895
0.191511944612
0.168500302014
0.152235376603
0.139569203497
0.132470089265
0.131566358153
0.138114692809
0.150213678714
0.157559854865
0.124594991787
0.0688826995195
0.0320944780331
6.90294784892e-06
3.64950445336e-06
1.73919638754e-06
7.50346679944e-07
2.8524343738e-07
9.78121962675e-08
3.10264918617e-08
9.2115386491e-09
2.53128954556e-09
6.36691947472e-10
1.44277526524e-10
2.89883851256e-11
5.06380587163e-12
7.54759643107e-13
9.40586839971e-14
9.56927728658e-15
7.77246479599e-16
4.83808444143e-17
2.18835021248e-18
4.26579087134e-20
0.00158542255917
0.000324747844304
6.43001862683e-05
1.85109568916e-05
5.35013303047e-06
1.44902951133e-06
3.74987930302e-07
9.39961262022e-08
2.25970075923e-08
5.09960601105e-09
1.05679122829e-09
1.96912633088e-10
3.22325975644e-11
4.52947554866e-12
5.3412517477e-13
5.1709560475e-14
4.01066448376e-15
2.40195985454e-16
1.0336053823e-17
1.83580634818e-19
0.0126076753842
0.00101397143809
0.000243447903835
7.82752798927e-05
2.0712289887e-05
4.95315825454e-06
1.34994668905e-06
3.39327077435e-07
8.09496395677e-08
1.80165982655e-08
3.66224458705e-09
6.6761886926e-10
1.06969288908e-10
1.46954975411e-11
1.68809275221e-12
1.59058875828e-13
1.2000878876e-14
7.05073701376e-16
2.94088516849e-17
4.7055284277e-19
0.0864811410513
0.0121426292752
0.00142674420319
0.000295399454759
9.835721864e-05
2.7294175238e-05
5.0907398593e-06
1.07165470055e-06
2.60724710244e-07
5.88829723946e-08
1.20238551009e-08
2.18372762962e-09
3.4835993747e-10
4.77050606683e-11
5.45869293362e-12
5.12217975084e-13
3.84965942213e-14
2.27385988532e-15
9.54409558069e-17
1.749390903e-18
0.15548937384
0.0925869185993
0.0352677033681
0.00292734943587
0.00033385185958
8.61743080149e-05
2.25469170137e-05
4.40806526811e-06
7.11505012405e-07
1.70647937751e-07
3.61375441292e-08
6.69971753797e-09
1.08700604644e-09
1.51600782477e-10
1.76725531542e-11
1.68840398376e-12
1.29238018858e-13
7.84901263334e-15
3.44820888591e-16
8.89396930966e-18
0.215335328288
0.128663726417
0.0486817341589
0.00517490223011
0.000536834888124
0.00011889520139
3.35605044072e-05
8.53308260359e-06
1.4558184774e-06
3.73686853648e-07
8.88100464329e-08
1.7742903048e-08
3.03427737882e-09
4.42663471637e-10
5.38235042065e-11
5.34918048944e-12
4.25571025813e-13
2.70322795209e-14
1.26771135469e-15
4.19186126428e-17
0.257182012094
0.149669962877
0.0573090832613
0.00380404139628
0.000432444408898
0.000108094594357
3.28905240781e-05
9.91526650895e-06
2.72554453756e-06
6.24205560255e-07
1.76770258359e-07
3.96140290457e-08
7.34971819417e-09
1.14859708554e-09
1.48764344358e-10
1.56749640373e-11
1.31877771484e-12
8.87121966191e-14
4.46490629536e-15
1.69846089382e-16
0.29572484081
0.173973395452
0.0713109176507
0.00399364162509
0.000419637324647
0.000106329585492
3.34902271238e-05
1.10091095349e-05
3.89942052045e-06
1.01569024291e-06
2.98057750624e-07
7.58972931343e-08
1.54710282647e-08
2.62948611534e-09
3.68440742658e-10
4.17828870232e-11
3.76908815696e-12
2.70949725169e-13
1.46340976272e-14
5.92782282651e-16
0.330578595717
0.20162587915
0.0878609766572
0.00727817044899
0.000573523760569
0.000125488551294
3.80209716039e-05
1.24100312978e-05
4.8207384979e-06
1.62282942879e-06
4.29848199142e-07
1.25459295348e-07
2.86035105924e-08
5.3504278358e-09
8.20126337176e-10
1.0122075306e-10
9.89169000847e-12
7.64909485936e-13
4.42629346077e-14
1.83476897328e-15
0.361070223082
0.231327337307
0.106288800649
0.0161389555331
0.00110004713982
0.000182013089406
4.83413926616e-05
1.45541737893e-05
5.53365312118e-06
2.22157920992e-06
5.9147418412e-07
1.88844462678e-07
4.77784574699e-08
9.84616680787e-09
1.65890423701e-09
2.24388207042e-10
2.3926384931e-11
1.99906629757e-12
1.23664697324e-13
5.14453579166e-15
0.383952029963
0.258461207667
0.124806772876
0.0259467435169
0.00199617787938
0.000285774443599
6.4394469489e-05
1.73019350003e-05
6.0666933188e-06
2.63636172771e-06
8.69004850872e-07
2.47695664296e-07
7.24029589338e-08
1.65727698251e-08
3.08151121887e-09
4.59025857704e-10
5.3663935235e-11
4.85854940758e-12
3.20661708037e-13
1.33008492709e-14
0.395345336895
0.275632158972
0.139614260977
0.0343062670014
0.00312588713468
0.000433959329919
8.48689446737e-05
2.02695764148e-05
6.57070091176e-06
2.88481726989e-06
1.14945970976e-06
3.21410210461e-07
1.03148080858e-07
2.6022412748e-08
5.32569160584e-09
8.74511755698e-10
1.12345914028e-10
1.1037684177e-11
7.75948980215e-13
3.20830907703e-14
0.395113517748
0.279092069932
0.146507578119
0.0419125282204
0.0047428508776
0.000646926241412
0.000110176644684
2.35992504437e-05
7.16475402455e-06
3.08800478536e-06
1.39986100519e-06
4.35949742852e-07
1.3479512078e-07
3.83260773923e-08
8.63633980323e-09
1.5632563796e-09
2.20800868554e-10
2.35491140663e-11
1.76124470295e-12
7.28894022132e-14
0.382240128659
0.270140956533
0.144237941359
0.0476208993479
0.00771533557854
0.0010937865404
0.000165053516378
3.12242765356e-05
8.54964514776e-06
3.47380089483e-06
1.61698567842e-06
5.9343084063e-07
1.70813498543e-07
5.36164247114e-08
1.32742539525e-08
2.64038691523e-09
4.09360638273e-10
4.73629849966e-11
3.7648985781e-12
1.57279186238e-13
0.355565807217
0.249706525261
0.136739248523
0.0541261627421
0.0152142146879
0.00255025388842
0.000372425379318
6.09363232062e-05
1.33565018034e-05
4.47443366831e-06
1.91258365092e-06
7.85923594917e-07
2.17034406781e-07
7.24209942287e-08
1.94803849532e-08
4.23428260185e-09
7.182815553e-10
9.00369594402e-11
7.60349918044e-12
3.23817770155e-13
0.317774195029
0.223963764499
0.130884358566
0.0644085951478
0.0273382422268
0.00660749669723
0.00109769205332
0.000167762776464
2.92747442888e-05
7.1194794698e-06
2.46153596024e-06
9.9075899356e-07
3.07742547295e-07
9.05638581152e-08
2.72346264084e-08
6.45829959398e-09
1.19482870349e-09
1.62053714008e-10
1.45452891815e-11
6.37542697603e-13
0.279593158656
0.204377313033
0.133376794279
0.0790773776514
0.0416427954276
0.0155780095372
0.00295770053117
0.000461141675353
7.22769452313e-05
1.34758785435e-05
3.50706433078e-06
1.22327920481e-06
4.15027341849e-07
1.13639386488e-07
3.66041815362e-08
9.39501254171e-09
1.88692605857e-09
2.76554083299e-10
2.64212836598e-11
1.20244589205e-12
0.25099605429
0.194187364321
0.139109826665
0.0906978411236
0.0513885116877
0.0224628487418
0.00516226289006
0.000925965303641
0.000146888838912
2.4465712622e-05
5.05892308852e-06
1.46167605658e-06
5.14090116647e-07
1.41313558787e-07
4.6442044155e-08
1.29979492804e-08
2.83086470549e-09
4.48403538541e-10
4.57084584242e-11
2.17781283193e-12
0.228965850616
0.184077430985
0.137327182803
0.0917430941855
0.0516796941138
0.0221652874454
0.00541532973419
0.00108118668622
0.00018487707334
3.12783857808e-05
6.07480139315e-06
1.58592126505e-06
5.59539810565e-07
1.76064876672e-07
5.5635624719e-08
1.71885585209e-08
4.06138924245e-09
6.95277893411e-10
7.57939939013e-11
3.80936929775e-12
0.201579211774
0.164776156785
0.123838639816
0.0809271672214
0.0422278299964
0.0150688114679
0.003270392368
0.000713507766741
0.000133906242474
2.40291421299e-05
4.90791539658e-06
1.3880121777e-06
5.39032164946e-07
2.05403443074e-07
6.65790883153e-08
2.23153373528e-08
5.68923524902e-09
1.04821632984e-09
1.22139702524e-10
6.51712272651e-12
0.173292741141
0.142757386539
0.105072789531
0.0645662534399
0.0293891995994
0.00711694195503
0.00127614644892
0.000253743860864
5.12612568862e-05
1.07046738211e-05
2.89298106352e-06
1.1142368317e-06
5.25547675692e-07
2.48919036828e-07
8.3965483335e-08
2.98809571045e-08
8.07456975333e-09
1.5784538331e-09
1.95169075656e-10
1.10781435445e-11
0.152957282693
0.123283786131
0.0863688092292
0.0476758589487
0.0176463481495
0.00309530578525
0.000495825625804
8.90833812792e-05
1.86107088642e-05
6.31584657838e-06
2.76784979481e-06
1.3721960021e-06
7.04562708804e-07
3.58841394393e-07
1.34031392041e-07
4.38418953859e-08
1.23803707594e-08
2.47804373714e-09
3.1805455676e-10
1.91466093532e-11
0.136468425362
0.106083472465
0.0699540080175
0.0356144169247
0.0115004780271
0.00208884911482
0.000384402984413
0.000104031441942
4.49982124972e-05
1.94513183879e-05
8.44953885696e-06
3.65721566592e-06
1.61159705044e-06
7.22655390483e-07
2.91330180075e-07
7.94908789606e-08
2.19495668408e-08
4.2658964336e-09
5.46211794211e-10
3.45112725493e-11
0.123908423857
0.094533308872
0.0609156687024
0.0304215537922
0.00993891718486
0.00225687921742
0.000632823276358
0.000286930526607
0.000179809281152
9.46665001137e-05
3.95790506472e-05
1.45604163821e-05
5.29940890543e-06
1.98229021916e-06
7.44440224779e-07
1.93164752006e-07
4.34264071052e-08
8.25239040392e-09
1.01204172398e-09
6.6163919937e-11
0.11752337864
0.0900279043737
0.0592532745337
0.0317526984667
0.0127452015299
0.00390190542354
0.0015780176449
0.000956900576446
0.000697793416132
0.000425159701938
0.000188538621901
6.59716158137e-05
2.0191236993e-05
6.24631594728e-06
1.99453308107e-06
5.75827376635e-07
9.70289104052e-08
1.75477566243e-08
2.03263701732e-09
1.35587202654e-10
0.117870578194
0.0929425766826
0.0651586850571
0.0397511039872
0.0207446555924
0.00939788279365
0.00482611821295
0.00327599648802
0.00246185080047
0.0016211674088
0.000801864854033
0.000294317764385
8.27421560234e-05
2.09279490934e-05
5.51732310318e-06
1.49318724358e-06
2.61075631422e-07
3.53308836687e-08
4.14861805653e-09
2.88856479342e-10
0.126463108331
0.104980660725
0.080410115046
0.0568355421475
0.0378947051062
0.0244196741086
0.0157404283439
0.0106945202007
0.00751537558961
0.00494251232451
0.00263994792588
0.00108271006788
0.000316263413853
7.07750643978e-05
1.51176442441e-05
3.41151188781e-06
6.58460779116e-07
6.889933267e-08
7.78226071953e-09
6.05148516297e-10
0.14107134268
0.123815086197
0.103330223643
0.0821731484588
0.0620384512527
0.0453415061548
0.0328933333694
0.0240126203727
0.0172167699132
0.011299312221
0.00589192762682
0.00258187449042
0.000859310055371
0.000198696366163
3.83872192272e-05
7.33843703648e-06
1.32851297901e-06
1.52064323636e-07
1.36093419013e-08
1.17639110152e-09
0.150265280329
0.13615575886
0.118502161147
0.0987499650291
0.0787800659708
0.0604013573029
0.0447994686715
0.0322746887786
0.0224187274621
0.0145234981786
0.00804082624749
0.00359507487729
0.00132086812093
0.000336968349757
6.37785191526e-05
1.13720919047e-05
1.91062224715e-06
2.39399049663e-07
2.22414537621e-08
2.23666676568e-09
0.119130929386
0.109371729302
0.0970904348943
0.0829536408503
0.067935998157
0.0531073258574
0.039425477008
0.0276079052345
0.0180535542777
0.0106987193459
0.00549382564529
0.00267622379291
0.00112343908301
0.000321324371619
6.00127862271e-05
1.04941511162e-05
1.75105675828e-06
2.227387624e-07
2.45579939369e-08
3.89502183239e-09
0.0665382882217
0.0618597172749
0.055607729562
0.0480973629171
0.0397180860327
0.0309757438861
0.0224334439833
0.0148039364283
0.00877535790784
0.00481052541287
0.00255427463808
0.00123878846634
0.000523805830004
0.00016403277374
3.23347666572e-05
6.0164440508e-06
1.04173352671e-06
1.44136303477e-07
2.54462562387e-08
6.92232054923e-09
0.0308961990991
0.0284534489879
0.0251701745706
0.0212075094792
0.0167442652443
0.0121772479994
0.00795968986169
0.0047700998051
0.00276049733308
0.00152848174361
0.000796628812425
0.00036890000331
0.000141153479957
1.12729492757e-18
1.35456221556e-18
2.80186845424e-18
3.46973893062e-18
1.13232301996e-17
8.94504139481e-18
4.27757954447e-17
2.29189582366e-17
1.29203097262e-16
5.45093884776e-17
3.50715844701e-16
1.22071514558e-16
8.604772439e-16
2.53887740328e-16
1.96041678753e-15
5.0253641522e-16
4.20871193671e-15
9.56579703745e-16
8.63441994883e-15
1.7683266569e-15
1.71319499192e-14
3.20091096512e-15
3.30979336431e-14
5.7182699037e-15
6.24324714141e-14
1.01513024095e-14
1.14771415528e-13
1.78673354187e-14
2.06322535503e-13
3.12178559997e-14
3.65296029505e-13
5.49777641514e-14
6.40225956469e-13
9.94837989851e-14
1.1371393663e-12
1.9242510764e-13
2.10516432229e-12
4.14694270912e-13
4.19163674088e-12
1.01116967008e-12
9.14232705587e-12
2.70498704542e-12
2.16545960453e-11
7.50904260723e-12
5.3116169924e-11
2.05104728183e-11
1.29105618698e-10
5.35906093226e-11
2.98182219757e-10
1.31740500222e-10
6.54291280515e-10
3.04147189749e-10
1.34885638293e-09
6.60260235216e-10
2.65180472878e-09
1.35657698741e-09
)
;

boundaryField
{
    inletfuel
    {
        type            fixedValue;
        value           uniform 1;
    }
    inletair
    {
        type            fixedValue;
        value           uniform 0;
    }
    outlet
    {
        type            zeroGradient;
    }
    axis
    {
        type            empty;
    }
    leftside
    {
        type            zeroGradient;
    }
    burnerwall
    {
        type            zeroGradient;
    }
    front
    {
        type            wedge;
    }
    back
    {
        type            wedge;
    }
    procBoundary0to1
    {
        type            processor;
        value           nonuniform List<scalar> 
27
(
0.014748763734
0.0146242371076
0.0143551304637
0.0139820232673
4.58581479574e-05
1.18224877108e-05
2.6887322271e-06
4.8015708325e-07
8.89184133572e-08
3.20739228477e-08
1.25799152568e-08
0.0131713400434
0.0115936995046
0.00958597091094
0.00733876676136
0.00512721073594
0.00344649633063
0.00219354213833
0.00129371353428
0.000723875783422
0.000401484983158
0.000213157964093
0.000102691148594
4.58581479574e-05
4.43575431581e-05
5.04089489372e-09
2.66708983525e-09
)
;
    }
}


// ************************************************************************* //
