/*--------------------------------*- C++ -*----------------------------------*\
  =========                 |
  \\      /  F ield         | OpenFOAM: The Open Source CFD Toolbox
   \\    /   O peration     | Website:  https://openfoam.org
    \\  /    A nd           | Version:  7
     \\/     M anipulation  |
\*---------------------------------------------------------------------------*/
FoamFile
{
    version     2.0;
    format      ascii;
    class       volScalarField;
    location    "0.07";
    object      H2O;
}
// * * * * * * * * * * * * * * * * * * * * * * * * * * * * * * * * * * * * * //

dimensions      [0 0 0 0 0 0 0];

internalField   nonuniform List<scalar> 
814
(
9.27652503328e-09
7.33281789207e-09
3.06282567918e-09
9.14099776891e-07
9.53238658606e-07
7.97228712507e-07
4.58650366351e-05
7.68738491379e-05
0.000188283208466
0.0014210495956
0.0041404808297
0.0304279207631
0.00413979498818
0.0103600992063
0.0457306822196
0.00870488482055
0.0189140639191
0.0590284599965
0.0153981723225
0.0292598511971
0.0700490758158
0.0243639966832
0.0407998192578
0.079287507164
0.0357109519868
0.0531016888275
0.08740427399
0.0491980989223
0.0657308626123
0.0947060000288
0.064090580995
0.0782636049573
0.101525826492
0.0793460632225
0.0904180012
0.108358269094
0.0940817516565
0.102185195152
0.115740847421
0.108177491629
0.113994278602
0.124318592864
0.122473811634
0.12678637674
0.134932405372
0.138005218493
0.141374221507
0.14802815072
0.154246109366
0.156897206149
0.162243576516
0.168557270184
0.170547424768
0.174586367549
0.179589496917
0.18104669074
0.184021962568
0.190083156225
0.191176873283
0.193425280695
0.200407442232
0.201182588227
0.202796446849
0.206958884978
0.207547394601
0.208799532704
0.210834020439
0.211396491964
0.212601146765
0.213737057773
0.214294286554
0.215474455585
0.215536666921
0.216075491947
0.217209905642
0.216157596662
0.216674271989
0.217765139584
0.215311901502
0.215772373659
0.216749621516
0.213173070611
0.213538503246
0.214320515323
0.211910783279
0.212188557575
0.212784739063
0.219757060476
0.219930815074
0.220319297513
0.231378115653
0.231382645031
0.231397991954
0.23538604318
0.235256692052
0.234968043433
0.0841547272284
0.115000588968
0.120445406279
0.120943871915
0.12088453189
0.121220085428
0.121889402522
0.123132804029
0.125522886448
0.129522793032
0.135651770227
0.144551046577
0.156284474695
0.168997447027
0.179690069812
0.187810154972
0.196333209934
0.204906169673
0.210468118118
0.214214065103
0.217034543197
0.218702290898
0.219211169382
0.218058623246
0.215376016442
0.213599175577
0.22085017566
0.231416165153
0.234555549588
1.23377080122e-05
9.95822406829e-06
7.57610892614e-06
4.88310772101e-06
2.80431392408e-06
1.43243119823e-06
6.45473850745e-07
2.57778368619e-07
9.13098081984e-08
2.86314615118e-08
7.87129759278e-09
1.87376313856e-09
3.80023629773e-10
6.47083031955e-11
9.11396169983e-12
1.18157159584e-12
1.30206879048e-12
1.11935819675e-11
9.76888789888e-11
2.59154110081e-10
0.00186760706258
0.000758234696089
0.000305578088801
0.000130268107168
5.46226546888e-05
2.27639211915e-05
8.91163629281e-06
3.16972020985e-06
1.00591931921e-06
2.82394976942e-07
6.99725808608e-08
1.51711351202e-08
2.83138490792e-09
4.46911003822e-10
5.86773141732e-11
7.16836083792e-12
9.95359210479e-12
1.17394657068e-10
1.55346861013e-09
1.22347524596e-08
0.015784507079
0.016883351475
0.00680582375173
0.00199189088798
0.000574061000156
0.000170334059209
5.76431644837e-05
1.86888263999e-05
5.52555583974e-06
1.4386125865e-06
3.29156416231e-07
6.63088210585e-08
1.16427777791e-08
1.7449874884e-09
2.18499772829e-10
2.56286600876e-11
4.20644059809e-11
6.45533767874e-10
1.38342204469e-08
4.11715822369e-07
0.103695395165
0.153772874976
0.0755126604001
0.023382225334
0.00689560895678
0.00182171588969
0.000388396391092
9.72734933984e-05
2.64653976455e-05
6.48805551252e-06
1.40356363209e-06
2.68773337108e-07
4.54372106442e-08
6.63802505569e-09
8.16153244351e-10
9.33923959359e-11
1.53147569898e-10
2.81154848524e-09
1.03530864928e-07
1.20123454554e-05
0.176821919898
0.219292597847
0.221881035828
0.153502834437
0.0395438961173
0.0111110791526
0.00296205738366
0.000604990050042
0.000103231838228
2.5190904595e-05
5.35541106578e-06
1.00374694246e-06
1.67401394859e-07
2.4411489772e-08
3.01946191515e-09
3.39800525085e-10
4.38113829517e-10
7.47860246275e-09
2.06039366603e-07
1.20513738657e-05
0.188963509074
0.219490600906
0.236184121163
0.217125366959
0.0695218872026
0.0193510360811
0.00562898749289
0.00155606386711
0.000279569049611
7.05486855658e-05
1.62664789785e-05
3.19068951777e-06
5.47657900346e-07
8.21069440281e-08
1.04711304991e-08
1.18259110157e-09
1.04395844248e-09
1.56748880266e-08
3.56796590072e-07
1.35209459386e-05
0.185643457084
0.214685459364
0.23278232263
0.193534872785
0.0666602048646
0.02159516349
0.00726910348298
0.00248899905866
0.000707030684621
0.000148513861513
3.9498007974e-05
8.5156287931e-06
1.55785779606e-06
2.46505382136e-07
3.31201112537e-08
3.85096553535e-09
2.24297277501e-09
2.81473535417e-08
5.49621571061e-07
1.60846327275e-05
0.177839911922
0.208627137902
0.229439016674
0.199890333983
0.0691283419453
0.0248432389506
0.00954451527719
0.00372601682142
0.00134067286597
0.000309233158823
8.15427082371e-05
1.96637480971e-05
3.8925852455e-06
6.60313165416e-07
9.48849943624e-08
1.16038621751e-08
4.6165780809e-09
4.60236496012e-08
7.71883766492e-07
1.85571024384e-05
0.169562604791
0.201876791874
0.227238818048
0.225780967892
0.0845498657927
0.0320768144847
0.0131880023193
0.00546798212392
0.00215827878214
0.000646521504106
0.000146528992044
3.98045281734e-05
8.68607367701e-06
1.5968953554e-06
2.47799416418e-07
3.23485052342e-08
9.44112406161e-09
7.12907568748e-08
1.0287222359e-06
2.0789669363e-05
0.162016506803
0.194625294133
0.224115365513
0.233524229448
0.109573857583
0.0439258751982
0.0185927232458
0.00789919845049
0.00320645699664
0.0011488263542
0.000258245309439
7.50292396925e-05
1.78607180678e-05
3.55590652478e-06
5.97460212732e-07
8.39469626556e-08
1.95318714635e-08
1.06854929936e-07
1.33827392543e-06
2.31638150704e-05
0.156285994648
0.187913516738
0.220220262793
0.234500433714
0.1364893322
0.05803608355
0.0250418695004
0.0108358810388
0.00448182490407
0.00176715327085
0.000504220625084
0.000124684765526
3.38662284067e-05
7.36755311577e-06
1.3437584189e-06
2.04201925081e-07
4.10356749578e-08
1.56830874729e-07
1.72250176564e-06
2.59697616816e-05
0.153424347287
0.183633655353
0.216883335721
0.233846403427
0.159069565276
0.0718185095427
0.0319554564285
0.0141920046635
0.00609422788327
0.00251749293248
0.000874550198522
0.000209081303551
6.13244304422e-05
1.44695997864e-05
2.85267876132e-06
4.68821094e-07
8.69695849564e-08
2.27338283283e-07
2.20553770717e-06
2.9332659008e-05
0.153492545705
0.182768875783
0.215279934232
0.23311939955
0.180763101955
0.0861653740032
0.0395706736729
0.0181397398066
0.00812177372968
0.00347026465741
0.001377791185
0.000372872998194
0.000102293985508
2.69254075832e-05
5.74264047173e-06
1.01990277616e-06
1.836108037e-07
3.27854387409e-07
2.81587691481e-06
3.33457977936e-05
0.156760821065
0.185039913178
0.215935274345
0.233187143406
0.204804071946
0.106888166217
0.0500773048795
0.0234711363242
0.0108338945878
0.00478287231734
0.0020096591173
0.000658264331779
0.000166019710094
4.77996084002e-05
1.10262902584e-05
2.10907879317e-06
3.81122736479e-07
4.73556541358e-07
3.59319784279e-06
3.81498710968e-05
0.163527888099
0.190226635806
0.217972651771
0.233615141066
0.221140073626
0.142540845308
0.0683520009771
0.0318790497819
0.0148145684507
0.00666975218038
0.00285026642807
0.00108941646013
0.000268635605992
8.18110324529e-05
2.02388651748e-05
4.14983734478e-06
7.69133443641e-07
6.89074519575e-07
4.58503279661e-06
4.39577597089e-05
0.173114038415
0.196769316684
0.219673567441
0.233244171034
0.230744631314
0.19368701899
0.100672652395
0.0460246059329
0.0209441033452
0.00940499163293
0.00401716145819
0.00163909925063
0.000479910013083
0.000127717648415
3.52102847909e-05
7.75421953038e-06
1.49590406687e-06
1.01489462759e-06
5.85058011278e-06
5.10691709326e-05
0.18279781119
0.201759480005
0.219276319972
0.231171741194
0.234650457553
0.222238692399
0.1446419537
0.0674774204881
0.029898846007
0.0131843568811
0.00563200214485
0.00231465257969
0.000789185907227
0.000199164942584
5.86132018983e-05
1.37819560357e-05
2.78949335051e-06
1.51773733771e-06
7.47457530508e-06
5.9882055483e-05
0.190043399145
0.20433609038
0.21785354123
0.228604779767
0.23406209644
0.228516225171
0.18088098585
0.0917193627515
0.0405110171683
0.0175867318877
0.00749678858204
0.00307901495151
0.00117846711983
0.000306353327858
9.14049932615e-05
2.31940912089e-05
4.97022155993e-06
2.30677197028e-06
9.58460433163e-06
7.09226142575e-05
0.19559225738
0.206784504827
0.217985593792
0.227541900497
0.232286056908
0.226753691066
0.189755527341
0.104408499533
0.0476646439539
0.0209163858255
0.00907507673034
0.00381187886087
0.001560431291
0.00047310125235
0.000133487022862
3.71170988483e-05
8.50125872249e-06
3.56635620292e-06
1.23821096049e-05
8.49258823141e-05
0.202416236242
0.211362877776
0.220602489857
0.228235171808
0.229792611338
0.218555900842
0.16808546773
0.0967145808407
0.0462342168123
0.0211272719696
0.00962432787079
0.00430236075139
0.00188151425357
0.000679364651776
0.000192717755913
5.77487038946e-05
1.41942834162e-05
5.63396098944e-06
1.62126334056e-05
0.000102968809206
0.209315900123
0.216337871875
0.223882358931
0.228716106309
0.224509176646
0.202012411868
0.133179290406
0.0745521858395
0.0375210607891
0.0186874740495
0.0094336941686
0.00466390187184
0.00221045387749
0.000957027509128
0.000279138387813
8.92574025734e-05
2.35619587014e-05
9.15292189994e-06
2.16692842963e-05
0.000126466396855
0.214039837483
0.220301263673
0.226271385779
0.227042139858
0.213197575174
0.166409103786
0.102202128861
0.0581662174228
0.0309341622909
0.0173845213179
0.00990213178696
0.00542122469468
0.00278118641837
0.00133615136363
0.000455518503025
0.000137543271259
3.98220362613e-05
1.53664479379e-05
2.97906484376e-05
0.000157617481927
0.217595047704
0.223222017266
0.227077254474
0.223061774767
0.201376579105
0.143852547678
0.0898284772956
0.0563750499992
0.0355198877076
0.0212351306992
0.0130603507969
0.00759773967139
0.00408217414586
0.00200921790595
0.000825031254308
0.000228210467318
6.98049534597e-05
2.67160095319e-05
4.24378034617e-05
0.000199749319416
0.220176626556
0.224996613692
0.22730925452
0.221309004846
0.198730191849
0.146095269204
0.0998246049602
0.0704354372465
0.0514536813753
0.0344213781632
0.0221221479528
0.0131119414744
0.00711520625909
0.00347531243338
0.00152367785947
0.000443185695395
0.000122663684269
4.77741607371e-05
6.28564019146e-05
0.000258138886812
0.221657913257
0.226153348514
0.228576599137
0.224700297356
0.20919690913
0.173181311915
0.131526776266
0.103924719922
0.0849369740431
0.0644984093
0.0437313218847
0.0262753841404
0.0140176124854
0.00671035539155
0.00283311331533
0.000977133160718
0.000224575857845
8.68597564265e-05
9.65659254814e-05
0.000340611873167
0.222089271031
0.226752274772
0.230472041117
0.230721847892
0.2249180459
0.210817234343
0.185344460739
0.161229301084
0.142876872114
0.119833892134
0.0891546055463
0.0560260805764
0.0294011055369
0.0134868278035
0.00547042519691
0.00193429000535
0.000463947075357
0.000153774166848
0.000152423032929
0.000459357661936
0.220733418583
0.225449055668
0.230311375412
0.233902274051
0.235003453248
0.233040733121
0.227670497768
0.219427059424
0.209431638116
0.19076289218
0.158855750146
0.111723551128
0.0610712207279
0.0267012347848
0.0102749041079
0.00346008590015
0.000943434547985
0.00027040514665
0.000245764740539
0.000631047635686
0.217604760368
0.221762155122
0.226578517892
0.231292875322
0.235214675016
0.237501878692
0.237757386372
0.236175004088
0.23288357732
0.226612866535
0.212486846661
0.171080714683
0.10708306728
0.0481546704868
0.0178095548587
0.00571050875643
0.00162182528499
0.000493263283053
0.000399286153869
0.000870952082964
0.21538616073
0.21878603055
0.222914821083
0.227288218393
0.231250093667
0.23410750049
0.235315000577
0.234596737471
0.231800406925
0.226567204484
0.217273587621
0.190917876455
0.13670171209
0.0677523255397
0.0247360762489
0.00776773450242
0.00225052562826
0.00082051263406
0.000657106161208
0.00121307841108
0.222004870341
0.223958344268
0.226198183564
0.228366428929
0.229957032079
0.230378218353
0.22903926426
0.225430743667
0.219071790423
0.209120734481
0.194503537313
0.168752780434
0.130721684078
0.0712104586373
0.026008981645
0.00823860752422
0.00264608229892
0.00122895344893
0.00105881985814
0.00169792359447
0.231438295769
0.231333971161
0.230845004937
0.229604635898
0.227138324411
0.222835846246
0.216121497017
0.206258398662
0.192791315794
0.172975276041
0.148897914004
0.125128552547
0.0975896126291
0.0564046933123
0.0210073810713
0.00708424785913
0.00290830086006
0.00186091351534
0.00170838442331
0.00238312846361
0.233606614759
0.231451821377
0.227977109043
0.222711239057
0.215063428928
0.20406959529
0.189894408312
0.169679328053
0.1447547376
0.120534927481
0.0994295328981
0.0803711103706
0.0577967627317
0.000451293894201
0.000482230850076
0.000295376449541
0.000364830409418
0.000203458161102
0.000277372990858
0.000159594901704
0.000236678153942
0.000142277939154
0.000220460307196
0.000136715241942
0.000216742646888
0.000139066433566
0.00022130886357
0.000147017119991
0.000231937958939
0.000159628613891
0.000248053201915
0.000176616848753
0.000269831169613
0.000198302568115
0.000298098863926
0.000225401971597
0.000334348095902
0.000259023906652
0.000380825010649
0.000300892573687
0.000440288002133
0.000354054369194
0.0005168426989
0.000422616447336
0.000616562870057
0.00050942640097
0.000745733224821
0.000620494637268
0.000911624563873
0.000761200206314
0.00112138703524
0.000936521988091
0.00138111965488
0.00115128173752
0.00169543220163
0.00140980979911
0.00206734854401
0.0017193682344
0.00250016573526
0.00209016584714
0.00299832603727
0.0025412540799
0.00357070772328
0.00309880169447
0.00423066082237
0.00379687816188
0.0049970608145
0.00466962829485
0.00589215198129
)
;

boundaryField
{
    inletfuel
    {
        type            fixedValue;
        value           uniform 0;
    }
    inletair
    {
        type            fixedValue;
        value           uniform 0;
    }
    outlet
    {
        type            zeroGradient;
    }
    axis
    {
        type            empty;
    }
    leftside
    {
        type            zeroGradient;
    }
    burnerwall
    {
        type            zeroGradient;
    }
    front
    {
        type            wedge;
    }
    back
    {
        type            wedge;
    }
    procBoundary0to1
    {
        type            processor;
        value           nonuniform List<scalar> 
27
(
0.232538372057
0.232240095493
0.23158614058
0.230661890257
0.0323297980762
0.0141378492474
0.00615934886514
0.00371497016429
0.00299077988338
0.00276291645715
0.00334866990484
0.228579593112
0.223951552158
0.216669903588
0.206132197849
0.191403218665
0.170251379221
0.145630570297
0.120602301064
0.0980184161133
0.07931575041
0.0639827911948
0.0497431883742
0.0323297980762
0.0348501735243
0.00574040800166
0.0069361228604
)
;
    }
}


// ************************************************************************* //
