/*--------------------------------*- C++ -*----------------------------------*\
  =========                 |
  \\      /  F ield         | OpenFOAM: The Open Source CFD Toolbox
   \\    /   O peration     | Website:  https://openfoam.org
    \\  /    A nd           | Version:  7
     \\/     M anipulation  |
\*---------------------------------------------------------------------------*/
FoamFile
{
    version     2.0;
    format      ascii;
    class       volScalarField;
    location    "0.07";
    object      HE;
}
// * * * * * * * * * * * * * * * * * * * * * * * * * * * * * * * * * * * * * //

dimensions      [0 0 0 0 0 0 0];

internalField   nonuniform List<scalar> 
814
(
1.27139470702e-20
9.91859777321e-21
3.56783716542e-21
1.54295932501e-18
1.64870902516e-18
1.32477221542e-18
8.90576318363e-17
1.56436787181e-16
3.92611016592e-16
3.0120429455e-15
9.44343480241e-15
7.75759205172e-14
8.99965275373e-15
2.46188304401e-14
1.25406952167e-13
3.44489999297e-14
9.88925768037e-14
4.80135131095e-13
1.93187925947e-13
5.66853789175e-13
2.50903480574e-12
1.02831495442e-12
2.77516139811e-12
1.0308844528e-11
4.62130446043e-12
1.09271187011e-11
3.37412871066e-11
1.76057552487e-11
3.57344205197e-11
9.17965961595e-11
5.91832081342e-11
1.03545771674e-10
2.2444160576e-10
1.78260171582e-10
2.74057443023e-10
5.14116776884e-10
4.81534052468e-10
6.66875801159e-10
1.11028253118e-09
1.17961025804e-09
1.51035619325e-09
2.28746552041e-09
2.68660079435e-09
3.25867057451e-09
4.60068853832e-09
5.88041071614e-09
6.89929738903e-09
9.30187479868e-09
1.2876001446e-08
1.48329292565e-08
1.94569587772e-08
2.96846872417e-08
3.37875502087e-08
4.33718489776e-08
7.49579324275e-08
8.37111826117e-08
1.0363775288e-07
2.00376661238e-07
2.16936613909e-07
2.53666282378e-07
4.59948389034e-07
4.84328114869e-07
5.37662022742e-07
7.87061135969e-07
8.17434772039e-07
8.83939585699e-07
1.12500434497e-06
1.1654108157e-06
1.25439390878e-06
1.50226442571e-06
1.55588380515e-06
1.67307242671e-06
1.89833662673e-06
1.96574019247e-06
2.11227778706e-06
2.30995114168e-06
2.3926207769e-06
2.57273563341e-06
2.7376870151e-06
2.83486666896e-06
3.04784755727e-06
3.52374552572e-06
3.64778782528e-06
3.92190540384e-06
8.0242222803e-06
8.27831168924e-06
8.84407535054e-06
4.07536694773e-05
4.11286335043e-05
4.2014658701e-05
9.20377940322e-05
9.21743199126e-05
9.25384185908e-05
0.000127745580668
0.000127813403224
0.000127991437425
3.13208662544e-13
4.99692902396e-13
2.17470932649e-12
9.97475604235e-12
3.38317369479e-11
9.25793231557e-11
2.13922096692e-10
4.54508907062e-10
9.32772577139e-10
1.84526633858e-09
3.54596982332e-09
6.76680576778e-09
1.32043280597e-08
2.69572227479e-08
5.85459957887e-08
1.33893435853e-07
3.0729018978e-07
6.13141462815e-07
9.76748682049e-07
1.37947378204e-06
1.83698639334e-06
2.31691311402e-06
2.82544662809e-06
3.34909980455e-06
4.31329583125e-06
9.66093927037e-06
4.32579445775e-05
9.30743629359e-05
0.000128250360091
8.90729820107e-17
1.14082985953e-16
1.40557155425e-16
1.43086027281e-16
1.30397491509e-16
1.09570017398e-16
8.81634071494e-17
6.95044105621e-17
5.41821089332e-17
4.14059247797e-17
3.03994236472e-17
2.08755040881e-17
1.30218609765e-17
7.15381120876e-18
3.33887647121e-18
1.27493765283e-18
3.81304085257e-19
8.51268339342e-20
1.32761787739e-20
1.67781476885e-21
3.4145404738e-15
2.17839618092e-15
2.07245046382e-15
1.57027014586e-15
1.13939818032e-15
7.67293857011e-16
4.91151839326e-16
3.13469270043e-16
2.07944113261e-16
1.43048588077e-16
9.93689781911e-17
6.66565772236e-17
4.14634213697e-17
2.30058484626e-17
1.09229419261e-17
4.27140556513e-18
1.30728557801e-18
3.00880426692e-19
5.10467514512e-20
4.79165471768e-20
2.83604674604e-14
3.94594127353e-14
3.67856829402e-14
1.66583050145e-14
8.25832166331e-15
4.17697398605e-15
2.14956347005e-15
1.0768829972e-15
5.69179472356e-16
3.31999975237e-16
2.10977845781e-16
1.36823773299e-16
8.51159778169e-17
4.81570186128e-17
2.35511655477e-17
9.55687900658e-18
3.03336375558e-18
7.31824126154e-19
1.60701216553e-19
1.58378719053e-18
4.42352250593e-13
1.16083329594e-12
1.19418643741e-12
2.43023389468e-13
7.23335209376e-14
2.8571266218e-14
1.04587417578e-14
4.23954418592e-15
1.84030356814e-15
8.79642069135e-16
4.890747013e-16
3.00812757507e-16
1.87951180648e-16
1.10446478479e-16
5.70439505121e-17
2.46538620329e-17
8.32831904007e-18
2.15734248463e-18
7.21361811864e-19
4.67868451768e-17
2.1213635731e-12
1.68471323603e-11
3.07159348854e-11
5.85476053874e-12
6.80280843979e-13
1.59290011267e-13
5.97736919647e-14
1.96111674224e-14
6.15856544477e-15
2.63271400055e-15
1.27437694003e-15
7.33119944176e-16
4.63475862753e-16
2.89029950186e-16
1.61547336006e-16
7.5844685501e-17
2.77165489564e-17
7.75395170306e-18
2.01984962285e-18
4.65715456357e-17
1.13647535357e-11
7.76393295419e-11
1.79917709795e-10
3.86916440142e-11
4.89452993674e-12
7.66908068352e-13
2.26081238734e-13
8.11914184752e-14
2.09042112518e-14
7.99016600209e-15
3.57257839365e-15
1.94929391869e-15
1.26140353664e-15
8.48346883258e-16
5.19180073316e-16
2.65640154777e-16
1.04988761707e-16
3.14549504258e-17
6.77058295993e-18
5.24179096503e-17
4.63504132487e-11
2.37513887872e-10
5.55375010942e-10
1.10930600277e-10
1.44051776479e-11
2.39993331974e-12
6.64306980883e-13
2.42291298747e-13
7.91843052014e-14
2.29921840341e-14
1.03556090228e-14
5.55011924551e-15
3.7152924084e-15
2.70856651378e-15
1.81134360025e-15
1.00200890224e-15
4.24665822554e-16
1.34691685151e-16
2.70822734324e-17
6.48487595069e-17
1.3254105493e-10
5.71323707013e-10
1.32744306956e-09
3.72880357832e-10
4.81508937317e-11
8.09327033847e-12
2.10077782787e-12
7.21439609094e-13
2.61061737208e-13
7.46486758818e-14
3.11886193857e-14
1.68099125411e-14
1.16187133797e-14
9.11407351004e-15
6.59378650667e-15
3.90133713921e-15
1.75670426025e-15
5.84172637165e-16
1.18540594632e-16
8.68643446088e-17
3.07611233287e-10
1.16999266413e-09
2.74896289877e-09
1.36597212516e-09
2.03316405882e-10
3.39653332821e-11
7.92690613473e-12
2.48816922979e-12
8.81228744226e-13
2.91931594428e-13
9.96407308228e-14
5.41086595434e-14
3.80169507132e-14
3.15293286608e-14
2.43656832411e-14
1.52740376214e-14
7.25298501154e-15
2.51075550226e-15
5.27809307965e-16
1.50125853994e-16
6.1006110665e-10
2.14099704744e-09
5.2841706764e-09
4.40044925185e-09
9.63417431224e-10
1.64897917122e-10
3.65648477296e-11
1.05109304387e-11
3.45444124058e-12
1.21242071802e-12
3.6251272139e-13
1.86307232055e-13
1.28767746309e-13
1.10258010252e-13
8.98496618746e-14
5.92305783028e-14
2.9493695201e-14
1.05736416943e-14
2.30837226107e-15
3.90459743877e-16
1.13059950405e-09
3.62997906039e-09
9.56405525668e-09
1.1319553378e-08
3.78275708458e-09
7.40473959098e-10
1.67402142795e-10
4.63274750124e-11
1.45028543338e-11
5.00881114608e-12
1.60910518813e-12
6.55391860962e-13
4.45461784244e-13
3.8550265512e-13
3.27266023153e-13
2.2550183685e-13
1.17218510318e-13
4.3361618917e-14
9.79167536077e-15
1.35399490674e-15
2.09569502036e-09
6.05996477004e-09
1.63052003876e-08
2.42872020625e-08
1.19357203618e-08
3.00243193133e-09
7.1116624602e-10
1.96579773976e-10
6.06681472333e-11
2.02409824402e-11
6.97900747319e-12
2.41836889497e-12
1.55900256009e-12
1.33864789411e-12
1.17042164423e-12
8.38383558276e-13
4.53169871039e-13
1.7252715194e-13
4.01337796246e-14
5.18470850575e-15
3.82561970262e-09
1.03192445273e-08
2.71259623112e-08
4.63423414846e-08
3.17378968575e-08
1.05155835326e-08
2.6994812752e-09
7.72187306238e-10
2.40723035728e-10
7.90928465312e-11
2.81787711235e-11
9.54577476552e-12
5.39226609916e-12
4.593071116e-12
4.09654513078e-12
3.03422860312e-12
1.69921737339e-12
6.64590329724e-13
1.58836724758e-13
2.00728700718e-14
6.89651230308e-09
1.76382979406e-08
4.53924548665e-08
8.34543385732e-08
7.4986966699e-08
3.31310125124e-08
9.50817364852e-09
2.84636367147e-09
9.03896983431e-10
2.97576520266e-10
1.04720127948e-10
3.78527981921e-11
1.84532264354e-11
1.55166745765e-11
1.40114001312e-11
1.06722658206e-11
6.16974368722e-12
2.47599284064e-12
6.07234329329e-13
7.65578810576e-14
1.2546933333e-08
3.08842263957e-08
7.7611800733e-08
1.47391940415e-07
1.62952813062e-07
9.59095677362e-08
3.17252295907e-08
9.75739772746e-09
3.15668359596e-09
1.0508330992e-09
3.63955653635e-10
1.396457982e-10
6.24019404817e-11
5.14949022973e-11
4.6803434866e-11
3.64575594714e-11
2.16786367706e-11
8.91973741242e-12
2.24562947761e-12
2.85883841372e-13
2.36901830745e-08
5.65424103241e-08
1.36311477057e-07
2.56774197266e-07
3.21202110378e-07
2.44924302572e-07
9.69584864249e-08
3.05666438272e-08
9.94446735432e-09
3.35443764112e-09
1.16257413045e-09
4.56697542744e-10
2.15072081101e-10
1.66548133436e-10
1.52524815755e-10
1.20864284937e-10
7.36668537411e-11
3.10706532789e-11
8.04688260816e-12
1.04536335868e-12
4.69760672675e-08
1.07222706033e-07
2.40960395255e-07
4.31471628079e-07
5.67998270249e-07
5.14252075144e-07
2.54166716475e-07
8.45484522715e-08
2.76338870602e-08
9.42844663165e-09
3.35912079451e-09
1.35441395539e-09
6.95810864542e-10
5.28146793906e-10
4.83941878756e-10
3.87826111065e-10
2.41537804298e-10
1.04508317998e-10
2.79377654595e-11
3.74018756879e-12
9.77911957581e-08
2.06440719818e-07
4.15765981525e-07
6.88525147012e-07
9.074284254e-07
8.82939221316e-07
5.29038703667e-07
1.96838967228e-07
6.59468355706e-08
2.30063887813e-08
8.61038632932e-09
3.71075415038e-09
2.11886308492e-09
1.63629293401e-09
1.48902027831e-09
1.19940249646e-09
7.61002909448e-10
3.38141007904e-10
9.36228598053e-11
1.30338927744e-11
2.08951808012e-07
3.95563296313e-07
6.88472476649e-07
1.05163113891e-06
1.34452610661e-06
1.32506875896e-06
8.73667817548e-07
3.66472479574e-07
1.3084287819e-07
4.86734177532e-08
2.0145683745e-08
9.77296369731e-09
6.18657665078e-09
4.95837559843e-09
4.42513329558e-09
3.56394414713e-09
2.29631871522e-09
1.04867204058e-09
3.01775191715e-10
4.41103228123e-11
4.34613473319e-07
7.04159526439e-07
1.08495560243e-06
1.54114361898e-06
1.88210016926e-06
1.8144937294e-06
1.2381892943e-06
5.77775650998e-07
2.27638275488e-07
9.61164605219e-08
4.62921793594e-08
2.59447113679e-08
1.78987555888e-08
1.47031492485e-08
1.27766364552e-08
1.02133117237e-08
6.64856034698e-09
3.11713190466e-09
9.36919218338e-10
1.45665826975e-10
7.84222669753e-07
1.12345925435e-06
1.60856414988e-06
2.15568203492e-06
2.49342606244e-06
2.31855294616e-06
1.61407127545e-06
8.42245716853e-07
3.94713374435e-07
2.04259600701e-07
1.16823360941e-07
7.28424630166e-08
5.19284021188e-08
4.28868710519e-08
3.54379569601e-08
2.80262577387e-08
1.83748234773e-08
8.87598802796e-09
2.79552350598e-09
4.66252901318e-10
1.18648939232e-06
1.63269796491e-06
2.24575371969e-06
2.87310019454e-06
3.13868052823e-06
2.80792489603e-06
2.06077614681e-06
1.33791066181e-06
8.16050606369e-07
5.11018017451e-07
3.23989244866e-07
2.10814995496e-07
1.47933930943e-07
1.17927784459e-07
9.37551164237e-08
7.2687248189e-08
4.82200834618e-08
2.4030253622e-08
7.96733811817e-09
1.44308397607e-09
1.6581003e-06
2.24385227265e-06
2.99357772436e-06
3.66450641336e-06
3.89584034972e-06
3.55233553337e-06
2.90832808918e-06
2.35582077563e-06
1.88399333725e-06
1.33086521873e-06
9.01631840422e-07
5.9315548809e-07
4.03934102945e-07
3.04962870781e-07
2.46214486918e-07
1.79357733352e-07
1.20116049638e-07
6.1717071208e-08
2.16521018609e-08
4.30465721809e-09
2.19191107549e-06
2.91867077562e-06
3.82423413027e-06
4.64513602523e-06
5.04849735926e-06
4.95446571517e-06
4.62671743922e-06
4.34241850348e-06
4.04664177451e-06
3.32584230919e-06
2.3987783311e-06
1.57396406945e-06
1.0368509661e-06
7.40898012878e-07
5.85534942862e-07
4.19498934482e-07
2.80238297076e-07
1.50052966022e-07
5.59861288054e-08
1.23951457754e-08
2.75459951189e-06
3.65476711086e-06
4.81105572907e-06
5.99584652036e-06
6.9153975819e-06
7.4449631802e-06
7.74836370485e-06
8.14573606718e-06
8.44429182608e-06
7.86997251695e-06
6.060148097e-06
4.00794183843e-06
2.50769606557e-06
1.68378469774e-06
1.2696041946e-06
9.79983315312e-07
6.18468679797e-07
3.45543870894e-07
1.37533077071e-07
3.42161247968e-08
3.36547635177e-06
4.49364843259e-06
6.03559336618e-06
7.87505271911e-06
9.77964720264e-06
1.15886002678e-05
1.33663373966e-05
1.53186615087e-05
1.72004049893e-05
1.74896557318e-05
1.46657313834e-05
9.99841936488e-06
5.89865450025e-06
3.60285671832e-06
2.57449781014e-06
2.01771126829e-06
1.31695490273e-06
7.40421748636e-07
3.19293211902e-07
9.00693921618e-08
4.00659758715e-06
5.45264771808e-06
7.59430667031e-06
1.04815988029e-05
1.41200696515e-05
1.83170258969e-05
2.29535509766e-05
2.79611321963e-05
3.24047097042e-05
3.43062410633e-05
3.14335825991e-05
2.34336828747e-05
1.36202052745e-05
7.40078579419e-06
4.89650645942e-06
3.78179294045e-06
2.71327343879e-06
1.49999437017e-06
7.03634304597e-07
2.26478156108e-07
5.1964129978e-06
7.23667815368e-06
1.04873327383e-05
1.54680102322e-05
2.22726125796e-05
3.01824080232e-05
3.84122825575e-05
4.62356609163e-05
5.26970829005e-05
5.61408302857e-05
5.41827940958e-05
4.44875531901e-05
2.80535456684e-05
1.44083361662e-05
8.74401124515e-06
6.6028814719e-06
4.98923323532e-06
2.93227734358e-06
1.45145380587e-06
5.25053913244e-07
1.15740083593e-05
1.61257427328e-05
2.27913402393e-05
3.09806022993e-05
4.03010039346e-05
5.02574724228e-05
6.00108701318e-05
6.86684230966e-05
7.52166077078e-05
7.82325624598e-05
7.56208720107e-05
6.49335643019e-05
4.50789324955e-05
2.4085603102e-05
1.41452241037e-05
1.07369737405e-05
8.25055320586e-06
5.37176813088e-06
2.86574229442e-06
1.14531233675e-06
4.60107249078e-05
5.08494834562e-05
5.69598264173e-05
6.41928215382e-05
7.2139068195e-05
8.02273731754e-05
8.77842375778e-05
9.39578816765e-05
9.75795144248e-05
9.73278849797e-05
9.14670650994e-05
7.86115919368e-05
5.78532689503e-05
3.34710544285e-05
2.05483545563e-05
1.61703002504e-05
1.2903770016e-05
8.95644051748e-06
5.20223486772e-06
2.33924419465e-06
9.42863084033e-05
9.67795099075e-05
0.000100087947949
0.000103966198077
0.000108109537233
0.000112078792882
0.000115281663234
0.00011678065562
0.000115264257016
0.000109659440353
9.91511608447e-05
8.33775868168e-05
6.2475615376e-05
4.00629427694e-05
2.77476341336e-05
2.31443172317e-05
1.92016020755e-05
1.42158752039e-05
9.02216442696e-06
4.51857857783e-06
0.000128815391899
0.000129963516437
0.000131405824547
0.000132922841764
0.00013424932669
0.000134873344716
0.000133978257308
0.000130698197606
0.000124045679731
0.000113469177869
9.91900979515e-05
8.14648949494e-05
6.11872718144e-05
1.78012387574e-15
1.9807967238e-15
1.18770068424e-15
1.62674780109e-15
8.63719014876e-16
1.36627390089e-15
7.618169255e-16
1.38134429495e-15
8.26590698308e-16
1.64887225026e-15
1.0901026896e-15
2.2831091171e-15
1.76746263302e-15
3.65298280439e-15
3.52258380593e-15
6.80150242201e-15
8.42532436451e-15
1.47274568036e-14
2.31340106392e-14
3.6628780846e-14
7.00804963987e-14
1.02758305678e-13
2.28136335641e-13
3.20702518858e-13
7.83258640239e-13
1.09966777289e-12
2.76193068345e-12
3.98010183976e-12
9.91643424598e-12
1.46508392961e-11
3.60696044478e-11
5.38227760783e-11
1.2639565077e-10
1.9184757618e-10
4.27732496515e-10
6.52065491317e-10
1.38455066889e-09
2.08934503479e-09
4.25224703562e-09
6.2684945077e-09
1.23458195898e-08
1.75594302009e-08
3.38142428514e-08
4.59205241647e-08
8.69715491873e-08
1.12266546787e-07
2.10351040089e-07
2.57454049419e-07
4.77477404046e-07
5.5572644546e-07
1.02004170915e-06
1.13333780238e-06
2.05283858821e-06
2.18969160252e-06
3.89912552865e-06
4.01377886103e-06
)
;

boundaryField
{
    inletfuel
    {
        type            fixedValue;
        value           uniform 0;
    }
    inletair
    {
        type            fixedValue;
        value           uniform 0;
    }
    outlet
    {
        type            zeroGradient;
    }
    axis
    {
        type            empty;
    }
    leftside
    {
        type            zeroGradient;
    }
    burnerwall
    {
        type            zeroGradient;
    }
    front
    {
        type            wedge;
    }
    back
    {
        type            wedge;
    }
    procBoundary0to1
    {
        type            processor;
        value           nonuniform List<scalar> 
27
(
0.00014711670823
0.000147171055984
0.00014728706694
0.000147447244516
4.46511206656e-05
3.67658284078e-05
3.25135359712e-05
2.82527525802e-05
2.21164622849e-05
1.5180142397e-05
8.34163913239e-06
0.000147780842739
0.000148329461507
0.000148850573327
0.000149049970116
0.000148514787808
0.000146646778055
0.000142712023433
0.000135890619005
0.000125667111094
0.000112416595715
9.72319010557e-05
8.14015019447e-05
4.46511206656e-05
6.6805916082e-05
7.01788200904e-06
6.98563086259e-06
)
;
    }
}


// ************************************************************************* //
