/*--------------------------------*- C++ -*----------------------------------*\
  =========                 |
  \\      /  F ield         | OpenFOAM: The Open Source CFD Toolbox
   \\    /   O peration     | Website:  https://openfoam.org
    \\  /    A nd           | Version:  7
     \\/     M anipulation  |
\*---------------------------------------------------------------------------*/
FoamFile
{
    version     2.0;
    format      ascii;
    class       volScalarField;
    location    "0.07";
    object      k;
}
// * * * * * * * * * * * * * * * * * * * * * * * * * * * * * * * * * * * * * //

dimensions      [0 2 -2 0 0 0 0];

internalField   nonuniform List<scalar> 
814
(
21.2680825893
18.6654277937
10.7589834405
21.9672274904
18.9106019335
9.28183307666
21.4450714022
19.2073972485
8.69492446241
22.0340939403
24.3660195637
21.3944721745
23.4919341509
29.6586224942
38.4599208864
25.9425624685
36.3066516355
52.6053170125
29.5841587858
43.8342305519
63.6286357671
34.6280096577
51.858963169
72.5017654274
41.3074923259
60.3217060546
80.6628681627
49.7422349451
69.1612470325
88.6938621863
59.7049857456
78.0484903603
96.1864567917
70.2339786795
86.0628777961
101.897167311
79.3345987488
91.555416373
104.000054967
84.1914670877
92.3766137549
100.614333867
81.7371739359
86.1975148842
90.1189925297
70.2346821407
71.8807237427
72.4084942288
52.7251570094
52.8916790739
51.9073455025
36.8511541402
36.7544155772
36.0263522502
27.9834101437
28.1464766575
28.1956034679
23.8296392733
23.9952599245
24.1005236075
18.7977817943
18.7762018016
18.623888409
14.9024538811
14.887939101
14.8122560161
13.5230470075
13.4735082059
13.3325978175
13.1959107852
13.0935533335
12.847953855
13.2912568154
13.1507589667
12.831305705
13.3781092148
13.2261935018
12.8851804014
13.0479509726
12.9227405871
12.6415455319
12.3161688148
12.2483842649
12.0933143349
12.8030996167
12.8067062061
12.8063470756
16.1174925792
16.0749522752
15.9613557924
12.5472729978
12.4716323938
12.2939580363
7.38291451614
7.35835501242
7.29746216455
9.48720700477
34.630363099
50.2095490521
61.1251679932
70.6913871568
80.8480526899
91.0129823476
99.7515365084
105.495227379
106.462462089
101.065564039
88.2543745999
68.967214442
48.6376362733
34.2470510094
27.7367057486
23.774312191
18.2235327152
14.6068385785
13.0531068788
12.4482957474
12.3495755898
12.3814122505
12.2265633337
11.8576132511
12.789308314
15.7944890644
12.0625015285
7.21311747624
0.0155607516147
0.0363003094267
0.0442532266685
0.0472274223145
0.0464016789558
0.0445070945681
0.041886894588
0.0395529965405
0.0370373775031
0.034643070413
0.0319693626344
0.0293518800257
0.0265767529896
0.0240814081248
0.0216083280103
0.0197249569056
0.0179927989746
0.016884232532
0.0160175106775
0.0159160601544
0.0452822064023
0.0532903774802
0.0800508978612
0.0737898711049
0.0682979161979
0.0600038844813
0.0525964478245
0.0463208437187
0.0410215281645
0.0367504356664
0.033060129625
0.0298243768309
0.0268094858145
0.024155847703
0.021719487226
0.0197798467187
0.0181610623806
0.0170248669912
0.0162798882714
0.0163799749343
0.287799349577
0.0546061080734
0.0641657372755
0.101349395104
0.0996690410662
0.0866492918528
0.068427980723
0.0555297146075
0.0463620761898
0.0399066890951
0.0349922418252
0.0310392155208
0.0276203537206
0.0247032763716
0.0221281100844
0.0200643680108
0.0184003521333
0.0172177562938
0.0164596101978
0.0167946769906
4.42555676954
0.524867299118
0.103156371323
0.0668592463595
0.0815570798554
0.0961424157098
0.0863662961019
0.0689054672797
0.0545557250298
0.0449586522715
0.0382357027036
0.0331986059991
0.0290947654907
0.0257440303488
0.0228654231545
0.0206028124447
0.0187846465342
0.0175521272635
0.0166804764113
0.021528608957
7.85861182647
2.39849729003
0.858101643775
0.198085518858
0.0701972633139
0.0716377499377
0.0799885722162
0.0746140287398
0.062242707408
0.0505990565014
0.0420612833947
0.0357585251347
0.0308095581653
0.0269330074143
0.0236853321931
0.0212059608089
0.019210861226
0.0179400628393
0.0170212974074
0.0240963457818
14.5015833704
5.33441869473
1.57386796905
0.387122328801
0.0916589990407
0.0643707844325
0.0742730024689
0.0749715473644
0.0668173815146
0.0555933991822
0.0459724540863
0.0385159274213
0.0326624264287
0.0281847484722
0.0245318897486
0.0218131596942
0.0196456388422
0.0183006503005
0.0174801982338
0.0275245358321
25.1822189525
9.33783624477
2.36441190887
0.37324425382
0.0933521407664
0.0653478988554
0.0725128149836
0.074555040311
0.0689282100804
0.0596131078482
0.0497600407384
0.0413756855725
0.0346354620669
0.0294892550352
0.0253940409571
0.0224062547178
0.020069244337
0.0186095243802
0.017930815599
0.0308695749011
40.4244635051
15.5380021861
3.67600504606
0.462104758496
0.108440018439
0.0697033605075
0.0718142661833
0.0735499219764
0.0698274178123
0.0626663920822
0.0533795520396
0.0443409113499
0.0367801906681
0.0309150281749
0.0263223742803
0.023027325066
0.0205081580725
0.0189240302938
0.0183169518691
0.0334677713179
57.8372960631
23.9012513301
5.54939280425
0.729259022189
0.147172187106
0.0754545460546
0.0698688802142
0.0710036073888
0.069682563753
0.0646547612897
0.0566358794954
0.0473716557415
0.0391036588743
0.0325109007401
0.0273595832035
0.0237117722564
0.0209836395096
0.0192823717405
0.0186799443802
0.0350841645537
74.0406427313
33.9331337083
8.01942913727
1.21429724656
0.225527117542
0.0861901155974
0.0670940653637
0.0671846854501
0.0682782562831
0.0655903815827
0.0592541091051
0.0503479023514
0.041552661498
0.0342771508737
0.0285228873817
0.0244732391044
0.0215017649632
0.0196846407906
0.0190514727821
0.0360638562969
86.246850065
43.7228720844
10.9403843393
1.77859016276
0.348943862496
0.107544433567
0.0662088990814
0.0631842789844
0.0658196084243
0.065604035248
0.060966532319
0.0530489715405
0.0440468533217
0.036182133851
0.0298159220248
0.0253182158657
0.022065729607
0.020121296963
0.0194295691818
0.0366328703683
92.8573524605
50.2428588567
13.7942837302
2.30548006594
0.512785334991
0.148122274326
0.0709884421494
0.0605935437393
0.0630919234912
0.0647046608055
0.0618270561467
0.0553065847905
0.0464972111812
0.0381832391874
0.0312365225158
0.0262561580459
0.0226838613664
0.0205893904977
0.0198097019757
0.0368904296156
93.265377073
51.4264932028
15.5183268847
2.84894631707
0.753171329767
0.229602831674
0.0870581745355
0.0608757631566
0.0605940305701
0.0630783205335
0.0619412048146
0.0569354726367
0.0487927248922
0.0402346956155
0.0327733562224
0.0272971594095
0.0233681264841
0.0210914668456
0.0201962149724
0.0368868015985
86.574637528
47.3710608499
15.0219805107
3.20098475787
1.12443674904
0.407588619329
0.129941273828
0.067455051753
0.0591355500693
0.0609683945013
0.0613694393571
0.0578682545792
0.0507919893092
0.0422746852578
0.034400206234
0.0284449763611
0.0241300758093
0.0216321094607
0.0205979847228
0.0366880755265
72.7370379606
38.9161290828
13.0219878726
3.54512488627
1.74747003663
0.825663389307
0.248461900609
0.0912565410579
0.0609696534928
0.0588994897209
0.0600918701741
0.0580560354904
0.0523307868045
0.0442180671481
0.036077669368
0.0296926574388
0.0249783098772
0.0222170522981
0.0210197963818
0.0363637403341
54.5469548726
29.256443735
11.1964153586
4.26343528455
2.64466764625
1.6986499156
0.569660053385
0.163170729987
0.0725159560422
0.0580812378842
0.0581845709026
0.0575604366092
0.053208938864
0.0459070949746
0.0377529097124
0.0310217930482
0.0259169396249
0.0228529216349
0.021463070767
0.0359749873738
38.4372879341
22.6725345134
11.1966740189
5.67221764484
3.69560363074
2.91630107257
1.26997465508
0.342251196251
0.106621655961
0.0612193420005
0.056232141237
0.0563097255908
0.0533865228734
0.0472226814586
0.039349379487
0.0324026282022
0.026943532446
0.0235458590228
0.0219294455458
0.0355598814848
29.0631511423
20.3101129505
12.5294814042
7.22236164723
4.53580452225
3.72056887356
2.20744726215
0.658834508401
0.172993804391
0.0707163111233
0.0550677299403
0.0545422165847
0.0528620478592
0.0480353745576
0.0407816884085
0.033800588265
0.0280501889788
0.0243004203691
0.0224203283854
0.0351378698729
25.5326389157
19.7848866781
13.2734973988
7.92883907698
4.78681614546
3.80994928633
2.74503601377
0.941476367982
0.23830722063
0.0811442538617
0.05455673093
0.0527225349818
0.0520543031248
0.0483909340347
0.0419991172692
0.0351880699384
0.0292249521319
0.0251163804612
0.0229340976031
0.034719506017
21.9318074089
17.3286483838
12.0212316253
7.24254272503
4.317289697
3.36769485732
2.52423071001
0.93208597919
0.238009788523
0.080393358237
0.0532353687141
0.0512519215657
0.0511710999837
0.0484133233817
0.0430236808492
0.036551044407
0.0304686431192
0.0259944130913
0.0234648939659
0.0343045798953
16.9762919899
14.0016348066
9.85761859603
5.95323961368
3.61371531515
2.71628645715
1.87018822611
0.604447474816
0.164158930837
0.069951489453
0.0525316786354
0.0508998952042
0.0506540164514
0.0484597187292
0.0440101804405
0.0379562056564
0.0317923106263
0.0269298200347
0.0239992454095
0.033888433873
13.8958950326
11.5059776267
8.02282865638
4.81558707001
2.9473424639
2.02645668969
1.18724684079
0.368448952964
0.125042086132
0.0723203455987
0.057033823077
0.0525889407065
0.0508303702633
0.048746489014
0.0449940806757
0.0394817373095
0.0332390680286
0.0279249741485
0.024517569469
0.0334558311195
12.2560485658
9.91229185955
6.79834398836
4.11411452141
2.45602782415
1.51337582842
0.818299267645
0.343355725308
0.173356464745
0.105288199568
0.0746887615477
0.0591903107748
0.0524508250461
0.049131304609
0.0458624225723
0.0410931146581
0.0348519444732
0.0289862721897
0.0249956398529
0.0329928444087
11.4795125313
9.12885807969
6.23081695868
3.76627045042
2.21107721951
1.33467516711
0.781276702665
0.435328941496
0.291188114437
0.198436860932
0.129454547358
0.0832958029505
0.0601042770165
0.0506538317668
0.0464913235879
0.042506515955
0.0365760313714
0.0300953931159
0.0254014842923
0.0325034231734
11.2683677519
8.89970364965
6.10199402697
3.76582560675
2.28525674648
1.45021684055
0.957189221859
0.667060253397
0.530178186719
0.420543692632
0.283965926471
0.163135231088
0.090600987062
0.0588084060493
0.047860857096
0.0434216534716
0.0381845107414
0.0312338272464
0.0257007511836
0.0320215673732
11.2817544046
8.98765910877
6.35025801505
4.1338253337
2.68830519444
1.86953258466
1.41643760034
1.15210989032
1.01256053904
0.891767794258
0.676240427716
0.3999045458
0.18968191541
0.0889419730848
0.0542087886672
0.0445480326488
0.0393945825269
0.0322418233918
0.0258569073213
0.0316033039013
11.3095274706
9.35923774164
7.03936803271
5.00090348966
3.63939902554
2.85655902873
2.39885169562
2.0928966548
1.86360439948
1.65559392884
1.39304170814
0.968854135281
0.468689873862
0.17493662924
0.0740662528843
0.0477918943262
0.0403755322506
0.0329630824979
0.0258404572907
0.0313422103475
11.3060811973
10.029350519
8.3824000725
6.79042350754
5.49679210273
4.58677471133
3.93956154429
3.38875836964
2.86623712076
2.41181323516
2.06920278019
1.7185636288
1.01612030882
0.364243532129
0.119211865465
0.0557932384664
0.0416265945413
0.0332719652544
0.0256173510663
0.031333203187
12.6965379876
12.2143474571
11.2170837186
9.73913370604
8.1012747335
6.60292498231
5.33822151629
4.26181747554
3.33521467759
2.59063863241
2.13254253125
1.96367960801
1.49856912575
0.594020643773
0.171742908504
0.0649559321054
0.0427272895259
0.0329584159516
0.0251086173057
0.0316211637754
15.3447506781
14.2308719999
12.627958584
10.7076470466
8.71351217921
6.865480486
5.2774248305
3.9687318406
2.92392745372
2.12958815266
1.64412347284
1.53515907264
1.42155236732
0.659058132711
0.182038090055
0.0660365686769
0.0425974087051
0.0319810016414
0.0244416170089
0.0322213306846
11.5478119088
10.5730745393
9.33979363236
7.95402085917
6.5307256336
5.16517260256
3.92063164326
2.86355864635
2.03565377262
1.44452864133
1.08552596711
0.976825853002
0.916950766493
0.460325880358
0.134072801619
0.0575714422642
0.0409696493495
0.030458063592
0.0239206649648
0.033101108103
7.02169662643
6.62419467675
6.07330512967
5.36894296557
4.51791684675
3.55600230478
2.58706906817
1.77791435479
1.18349950139
0.797536231457
0.59955084918
0.535647889271
0.436560811739
0.058378833319
0.0611840341493
0.113829446964
0.0791685386093
0.118779674977
0.0888106452385
0.114104932981
0.0871333280024
0.106967054973
0.0823283433973
0.098994817401
0.0766888264669
0.0918364977027
0.0711115495507
0.0854079911733
0.0658231629132
0.0797476987576
0.0608863369812
0.0747430025254
0.0563173985205
0.0703208110781
0.0521082172099
0.0664072006343
0.0482417634557
0.0629380332387
0.0447142427906
0.0598701542847
0.0415261702343
0.0571809617446
0.0386680847626
0.0548462842883
0.0361418755425
0.0528561596525
0.0339619126825
0.0512058475018
0.0321494061415
0.0498758410742
0.0307300841505
0.0488448711874
0.0297367111276
0.0480964333248
0.0291944166168
0.0476489902406
0.0291227821401
0.0475513198193
0.0295056890889
0.0478673476537
0.0303131895702
0.0486321219823
0.0314877191919
0.0498463240279
0.0329602710952
0.0513851075394
0.0346548192736
0.0530385569607
0.0365435332639
)
;

boundaryField
{
    inletfuel
    {
        type            turbulentIntensityKineticEnergyInlet;
        intensity       0.05;
        value           uniform 13.5;
    }
    inletair
    {
        type            turbulentIntensityKineticEnergyInlet;
        intensity       0.05;
        value           uniform 0.015;
    }
    outlet
    {
        type            inletOutlet;
        inletValue      nonuniform 0();
        value           nonuniform 0();
    }
    axis
    {
        type            empty;
    }
    leftside
    {
        type            kqRWallFunction;
        value           nonuniform List<scalar> 
33
(
0.058378833319
0.0611840341493
0.0159160601544
0.0163799749343
0.0167946769906
0.0611840341493
0.0791685386093
0.0888106452385
0.0871333280024
0.0823283433973
0.0766888264669
0.0711115495507
0.0658231629132
0.0608863369812
0.0563173985205
0.0521082172099
0.0482417634557
0.0447142427906
0.0415261702343
0.0386680847626
0.0361418755425
0.0339619126825
0.0321494061415
0.0307300841505
0.0297367111276
0.0291944166168
0.0291227821401
0.0295056890889
0.0303131895702
0.0314877191919
0.0329602710952
0.0346548192736
0.0365435332639
)
;
    }
    burnerwall
    {
        type            kqRWallFunction;
        value           nonuniform List<scalar> 7(10.7589834405 9.28183307666 8.69492446241 0.0155607516147 0.0452822064023 0.287799349577 9.48720700477);
    }
    front
    {
        type            wedge;
    }
    back
    {
        type            wedge;
    }
    procBoundary0to1
    {
        type            processor;
        value           nonuniform List<scalar> 
27
(
5.64306260611
5.64192937999
5.63476161895
5.62180198745
0.207417683889
0.0825449341353
0.0502718488254
0.0393095027236
0.0289739656753
0.024203312722
0.0342594593749
5.58652605889
5.45931412337
5.16530057158
4.61266000412
3.7832706551
2.77096479077
1.77464504938
1.04430459258
0.623958718699
0.415651362466
0.331529142945
0.280257866085
0.207417683889
0.203233622351
0.0546126841712
0.0387222283791
)
;
    }
}


// ************************************************************************* //
