/*--------------------------------*- C++ -*----------------------------------*\
  =========                 |
  \\      /  F ield         | OpenFOAM: The Open Source CFD Toolbox
   \\    /   O peration     | Website:  https://openfoam.org
    \\  /    A nd           | Version:  7
     \\/     M anipulation  |
\*---------------------------------------------------------------------------*/
FoamFile
{
    version     2.0;
    format      ascii;
    class       volScalarField;
    location    "0.07";
    object      N2;
}
// * * * * * * * * * * * * * * * * * * * * * * * * * * * * * * * * * * * * * //

dimensions      [0 0 0 0 0 0 0];

internalField   nonuniform List<scalar> 
814
(
3.11763855843e-08
2.43236140118e-08
9.4429399855e-09
3.1658072055e-06
3.28065339905e-06
2.57322186137e-06
0.000165002076224
0.000279052367316
0.000674604894431
0.00529759551431
0.0160160560986
0.127257009112
0.014069636798
0.0352286513824
0.156331487962
0.0277532668842
0.0597471355361
0.185065886024
0.0472580250862
0.0890366197266
0.21167002452
0.0732202418498
0.121924927207
0.235880248268
0.106135383056
0.157326649834
0.258303465225
0.14539580166
0.193950010978
0.279076675077
0.188879102478
0.230480003763
0.29878949969
0.233521010864
0.266023000794
0.31870887077
0.276709969543
0.300506329349
0.340328049917
0.318072341716
0.335161578387
0.365503291818
0.360062854471
0.372739089097
0.396690075843
0.40571556507
0.415623062775
0.435195696141
0.453483188729
0.461282592406
0.47701496708
0.495597012521
0.501454165616
0.513344275265
0.528083361688
0.53237719533
0.541149379322
0.559041912855
0.562281701241
0.568952574751
0.58966700883
0.592004124616
0.596889684109
0.609405981574
0.611247161225
0.615192179039
0.62140327368
0.623244276055
0.627231354928
0.630584854402
0.63249046828
0.636588289463
0.636179334421
0.638050913172
0.642052404472
0.637667100299
0.639404533932
0.643111484953
0.634391383794
0.635855462058
0.638976440629
0.627408086446
0.628520240982
0.6309031014
0.623508180079
0.62434771132
0.626152116739
0.649455085577
0.650049955017
0.651391951199
0.693438847704
0.693669705777
0.694224429554
0.722031009242
0.722165901769
0.722482249919
0.500712220477
0.421523933115
0.381913719326
0.365186520696
0.358924353709
0.357762531515
0.358922918013
0.362251657464
0.36913775125
0.380835083791
0.398827793367
0.42498570776
0.459493819991
0.496898589409
0.528377832411
0.552332516853
0.577608665883
0.603327879193
0.620522710874
0.632690877062
0.642173861399
0.647479870494
0.648126981776
0.643193223751
0.634126626465
0.628623883087
0.653247174795
0.695019789239
0.722931980333
0.767993635682
0.767996340388
0.767998012836
0.767999003926
0.767999539869
0.767999801753
0.76799992069
0.767999970768
0.767999990207
0.76799999705
0.767999999213
0.767999999817
0.767999999963
0.767999999994
0.767999999999
0.768
0.768
0.767999999999
0.767999999989
0.767999999971
0.766621120656
0.767685260913
0.767924328656
0.767974582024
0.767991195274
0.767996930491
0.767998946094
0.767999655401
0.767999896195
0.767999971813
0.767999993174
0.767999998545
0.767999999732
0.767999999958
0.767999999995
0.767999999999
0.767999999999
0.767999999987
0.767999999826
0.76799999863
0.756957260137
0.765769859935
0.767228098368
0.7677686945
0.767934758831
0.767981558681
0.767994009902
0.767998133491
0.767999463031
0.767999862542
0.7679999689
0.767999993788
0.767999998917
0.767999999839
0.76799999998
0.767999999998
0.767999999995
0.767999999928
0.767999998451
0.767999953909
0.692665562676
0.745455331397
0.760413716392
0.765763704823
0.767331933665
0.767822516513
0.767962720383
0.767990819422
0.767997525876
0.76799939731
0.767999870158
0.767999975224
0.767999995827
0.767999999393
0.767999999926
0.767999999991
0.767999999983
0.767999999685
0.76799998841
0.767998655218
0.633378520524
0.67803053265
0.721832935186
0.752557096538
0.764345253946
0.766979113352
0.767728205596
0.767944640914
0.767990584771
0.767997704643
0.767999512089
0.767999908596
0.767999984777
0.767999997785
0.767999999727
0.767999999969
0.767999999952
0.767999999163
0.767999976933
0.767998650834
0.586370358658
0.65029986182
0.710296542896
0.745361095279
0.761612903198
0.766245944395
0.767490608731
0.767859765725
0.767974863732
0.767993651714
0.767998534124
0.767999712181
0.767999950598
0.767999992602
0.767999999058
0.767999999892
0.767999999885
0.767999998245
0.767999960055
0.767998486266
0.554515357839
0.634577790587
0.703960020775
0.748442217111
0.76193907785
0.766061374622
0.767350181303
0.767778539229
0.767937163947
0.767986760251
0.76799647029
0.767999237762
0.767999860455
0.767999977927
0.767999997038
0.767999999653
0.767999999756
0.767999996849
0.767999938467
0.767998199237
0.525583760108
0.616432438738
0.693491450005
0.747750271555
0.761736688532
0.765783537129
0.767154168903
0.767671401961
0.767881817008
0.767972649565
0.767992763923
0.767998251752
0.767999653529
0.767999941216
0.767999991559
0.767999998961
0.767999999508
0.767999994849
0.767999913584
0.767997922434
0.499526352084
0.595774904209
0.680968904944
0.743001234523
0.760292912866
0.765147113773
0.766837572302
0.767520634104
0.767810850278
0.767943201398
0.767987077067
0.76799648241
0.767999231369
0.767999858607
0.767999978064
0.767999997124
0.76799999902
0.767999992025
0.767999884828
0.767997672476
0.47675631293
0.573587091522
0.667084146362
0.735527931043
0.757737524181
0.764085331666
0.766365173458
0.767310058946
0.767720224654
0.767899572504
0.767977350203
0.767993405611
0.767998427896
0.767999686732
0.767999947356
0.76799999258
0.767999998034
0.767999988056
0.767999850172
0.767997406654
0.45967458065
0.553325240516
0.653196861929
0.727909058467
0.754735485678
0.76279290044
0.765798593258
0.767055563367
0.767610199226
0.767846105473
0.767955994053
0.76798909131
0.767997032925
0.767999353865
0.767999882099
0.767999982037
0.767999995996
0.767999982497
0.767999807156
0.76799709249
0.451169686676
0.540506506107
0.642112071266
0.721543776405
0.751926756906
0.761494507479
0.765188668085
0.766764823337
0.767471213786
0.767781410976
0.767923944579
0.76798177877
0.767994648611
0.767998736033
0.767999750647
0.767999958929
0.76799999175
0.767999974697
0.767999753083
0.767996715981
0.451341663213
0.537925276817
0.636957560447
0.715763946613
0.748819923976
0.760097826722
0.764514694734
0.766422931244
0.767296464412
0.767699346624
0.767880489878
0.767967609983
0.767991102088
0.767997655773
0.767999499648
0.767999910956
0.767999982979
0.767999963672
0.767999684769
0.767996266683
0.460948334888
0.544607378699
0.638647009363
0.711373945543
0.744469754103
0.757973443823
0.763569498178
0.765958811643
0.767062264989
0.767586213076
0.767826002179
0.767942956619
0.76798559608
0.767995849563
0.767999041846
0.767999816373
0.76799996528
0.767999947887
0.767999597784
0.767995728836
0.480855209758
0.559859540883
0.644234025288
0.706340996666
0.737304408269
0.753790055553
0.761839552324
0.765213343842
0.766716422412
0.767423254375
0.767753517799
0.767905746342
0.767976739708
0.767992911444
0.76799824506
0.767999639477
0.767999930802
0.7679999249
0.767999486836
0.767995078602
0.50906040172
0.579072950807
0.648587453877
0.698476103403
0.727165437655
0.746276643995
0.758504494849
0.763915562481
0.76617739175
0.767186133238
0.767652800016
0.767858341824
0.76795850971
0.767988951337
0.767996951886
0.767999327407
0.767999866536
0.767999890747
0.767999345352
0.767994282421
0.53755792627
0.593691520015
0.646710900176
0.687390304821
0.715843498626
0.736931447586
0.753296356843
0.761846451335
0.765374780142
0.766856444412
0.767513209645
0.767800100228
0.7679318452
0.767982791695
0.767994932159
0.767998805765
0.767999752334
0.767999838883
0.767999163936
0.767993295739
0.558904150232
0.601301135961
0.642435549912
0.67869066867
0.708411634598
0.731104355652
0.748487904717
0.75940581317
0.764405431502
0.766469661755
0.767351754616
0.767734223357
0.767898310117
0.767973555242
0.76799210333
0.767997990806
0.767999559453
0.76799975844
0.767998928442
0.767992059642
0.575352446052
0.608861632335
0.643799823665
0.677984653193
0.708344053982
0.731485746202
0.747530652766
0.758195805676
0.763761387177
0.766178257391
0.76721532558
0.767671136709
0.76786544009
0.767959189787
0.767988471545
0.767996782718
0.767999245221
0.767999630612
0.767998616477
0.767990491819
0.595804901045
0.623297283584
0.65393921316
0.686235577065
0.715819532844
0.737641040878
0.751040131692
0.759139051661
0.763923271346
0.766165609978
0.767168968997
0.767629103742
0.767837835757
0.767941418819
0.7679833508
0.767994984525
0.767998732978
0.767999420126
0.767998189462
0.767988471636
0.616938960191
0.639782681657
0.668071611626
0.698760526211
0.726133504415
0.745168954377
0.75557077264
0.761396174136
0.764735141269
0.766385267022
0.76718674319
0.767598141072
0.767809501995
0.767917459821
0.7679758534
0.767992218235
0.767997876813
0.767999058212
0.76799758077
0.767985840477
0.632150615982
0.654397771448
0.68223043093
0.71187472622
0.736122084658
0.751315701523
0.758831121421
0.762929717729
0.76532534649
0.766499943623
0.767146138931
0.767532565071
0.767760109007
0.76788462722
0.767960517389
0.767987932851
0.767996365447
0.767998410439
0.767996672892
0.76798235161
0.644507121159
0.667354761022
0.694765150228
0.721476915747
0.741855287753
0.754025327362
0.759978311896
0.76307002084
0.764908772708
0.766157228133
0.766869156439
0.767342962516
0.767647064196
0.76782609617
0.767928292203
0.767979829227
0.767993539497
0.767997211464
0.767995253776
0.76797763106
0.65392885754
0.676069800678
0.701683191232
0.725612098217
0.743278786647
0.753700549727
0.758924928496
0.761717101514
0.763431418609
0.764962117212
0.766063380697
0.766858666398
0.76738225168
0.767698197806
0.76786714578
0.767960665235
0.767988477623
0.76799496294
0.767992951239
0.767971084454
0.658702251057
0.679427102266
0.702847161657
0.724294209618
0.74021952798
0.750104051459
0.755467999378
0.758316599124
0.760146954819
0.762114079009
0.764084305721
0.76568287686
0.766774570525
0.767414914889
0.767752141058
0.767913162647
0.767978676634
0.767990760429
0.767989130427
0.767961827914
0.658395090987
0.677133353845
0.698144580139
0.717628648388
0.732717922942
0.742639372046
0.748336191819
0.751595643887
0.753794549483
0.756419995811
0.759691692883
0.762938285914
0.765397443317
0.766817260877
0.767519953572
0.767827812403
0.767956077484
0.767983458549
0.767982769611
0.76794848213
0.651908691148
0.66799574963
0.686439940588
0.704227200323
0.718669186575
0.729177147005
0.736295285832
0.740869757022
0.744161820477
0.747738353186
0.752254768561
0.757518008167
0.762480265111
0.765635415689
0.767094714786
0.767691163782
0.767911006348
0.767970679635
0.767972103485
0.767929158277
0.640953057407
0.65384152539
0.669150024382
0.684980244192
0.700090699666
0.71270076285
0.722223035486
0.729164592207
0.734653958102
0.739730020012
0.745100305922
0.751220886896
0.758078475971
0.763678759766
0.766421106123
0.767488299477
0.767846459983
0.767946785034
0.767954585718
0.767902135739
0.634067548919
0.644600221805
0.657787573057
0.672562778382
0.6875389873
0.701387901698
0.713247432686
0.7229115266
0.730707675524
0.737213100037
0.742993748827
0.748694195034
0.755142014222
0.761867722703
0.765794636345
0.767298877975
0.767783506255
0.767911056907
0.767925385406
0.767863639098
0.657338204706
0.664654604642
0.67388065864
0.684535794149
0.695916151322
0.707252322487
0.717860791407
0.72723478053
0.73511021976
0.741610982774
0.746872984507
0.751274707389
0.755779317794
0.761561970893
0.765673783277
0.76724620062
0.767737501896
0.767864865458
0.767880316689
0.767809301402
0.696815895415
0.700412902746
0.705249784911
0.711116766078
0.71775630344
0.724833223801
0.731965975168
0.738670259288
0.744458097281
0.749212688944
0.753031965044
0.756115822059
0.759075616129
0.762939658679
0.766107927528
0.767331656358
0.767698682805
0.767794478599
0.767808823571
0.767733134122
0.723932291101
0.725990518383
0.728807023606
0.732299187312
0.736381185493
0.740832216664
0.745292450155
0.749485756037
0.753182210835
0.756227224095
0.758629440947
0.760632023194
0.762789886745
0.767949475219
0.767946011338
0.767966930928
0.767959154904
0.76797722155
0.767968946294
0.767982132271
0.767973502312
0.767984071009
0.767975317977
0.767984693772
0.767975734158
0.767984430517
0.7679752229
0.767983540354
0.767974032848
0.76798212837
0.767972228563
0.767980226355
0.767969790251
0.76797779838
0.76796662531
0.767974764244
0.767962566685
0.767970999771
0.767957362846
0.76796631189
0.767950704962
0.767960359484
0.767942133244
0.767952682652
0.767930967647
0.767942962516
0.767916504429
0.767930525923
0.767897929328
0.767914770175
0.767874441238
0.767895136604
0.767845355863
0.76787108251
0.76781015394
0.767842117195
0.767768491082
0.767807417666
0.767719989475
0.767765828246
0.767664143086
0.767715211114
0.767599959768
0.767652667461
0.767525982523
0.76757451115
0.767440221694
0.767477250155
0.767340481027
)
;

boundaryField
{
    inletfuel
    {
        type            fixedValue;
        value           uniform 0;
    }
    inletair
    {
        type            fixedValue;
        value           uniform 0.768;
    }
    outlet
    {
        type            zeroGradient;
    }
    axis
    {
        type            empty;
    }
    leftside
    {
        type            zeroGradient;
    }
    burnerwall
    {
        type            zeroGradient;
    }
    front
    {
        type            wedge;
    }
    back
    {
        type            wedge;
    }
    procBoundary0to1
    {
        type            processor;
        value           nonuniform List<scalar> 
27
(
0.736387585047
0.736508561712
0.736770805865
0.737135910899
0.765085329642
0.766691178661
0.767389891056
0.767605556022
0.767674034279
0.76769559595
0.767627275891
0.737935612631
0.73954162696
0.741705472103
0.744333391464
0.747295611457
0.750405198808
0.75348914068
0.756343395297
0.758741784418
0.760623567248
0.762118018834
0.763461160107
0.765085329642
0.764818316701
0.767359007013
0.767225124064
)
;
    }
}


// ************************************************************************* //
