/*--------------------------------*- C++ -*----------------------------------*\
  =========                 |
  \\      /  F ield         | OpenFOAM: The Open Source CFD Toolbox
   \\    /   O peration     | Website:  https://openfoam.org
    \\  /    A nd           | Version:  7
     \\/     M anipulation  |
\*---------------------------------------------------------------------------*/
FoamFile
{
    version     2.0;
    format      ascii;
    class       volScalarField;
    location    "0.07";
    object      nut;
}
// * * * * * * * * * * * * * * * * * * * * * * * * * * * * * * * * * * * * * //

dimensions      [0 2 -1 0 0 0 0];

internalField   nonuniform List<scalar> 
814
(
0.00239003726821
0.00147623268092
0.000191945065361
0.00200017319352
0.00125013443971
0.000165379274115
0.00177181659479
0.00113156515818
0.000154834715767
0.00152935789155
0.00105673146959
0.000304496320595
0.00135625658231
0.00100556938212
0.000550151300724
0.00123918992508
0.00103565183179
0.000807698644904
0.00120546510491
0.00114011552718
0.00107264094342
0.00126035179021
0.00130687926257
0.00135466669508
0.00140605429371
0.00153686294887
0.00167933410545
0.00165065041348
0.00183870018757
0.00206218599336
0.00200019519611
0.00221621289743
0.00249374585239
0.00244060242615
0.00265066067965
0.00293635331846
0.00291604910942
0.00308689824582
0.00332713479551
0.00332228069213
0.0034319959479
0.00358475814152
0.00351832908638
0.00356348754706
0.0036136392608
0.00338208403413
0.0033778629053
0.00334704713107
0.00296584178628
0.00294361113585
0.00288965833422
0.00257388677783
0.0025664915478
0.00254905370985
0.00249890718859
0.00251327247715
0.00253622755664
0.00260626247685
0.00261785078508
0.00263247590268
0.00258240432462
0.00258247287237
0.00257742016634
0.00252762419291
0.00252146315947
0.00250563079916
0.00253451963965
0.00252198322393
0.0024930906932
0.00257922587362
0.00255995842689
0.00251707126858
0.00264556934127
0.00262164959921
0.00256917627049
0.00271140001207
0.00268624516779
0.00263131432294
0.0027466469876
0.00272544875733
0.00267933506871
0.00275732928275
0.00274438748219
0.00271610934443
0.0029387012689
0.00293547106574
0.0029282255599
0.00338461922352
0.00337644399215
0.00335745200698
0.00287658971651
0.00286707848061
0.00284565987124
0.00236444040204
0.00236108177815
0.00235371913733
0.00214451445468
0.000652947479981
0.000901791463851
0.00114959947878
0.00143955410042
0.00180745348986
0.00224327204983
0.0027043714527
0.00313527814827
0.00347278495945
0.00364633759529
0.00358132421225
0.00324873038177
0.00279443148104
0.002515589045
0.00254807139745
0.00263167346892
0.00255900620984
0.00247733673793
0.00244828700661
0.00245428361786
0.00249437855759
0.00255371639375
0.0026145159558
0.00267628719601
0.00291736338049
0.00333024146248
0.00281684649045
0.0023433682839
2.59869970509e-05
0.000148974497628
0.000217830338147
0.000247791039469
0.000264975490617
0.000281562994022
0.000300935589607
0.000324666510504
0.000348556724037
0.000371611378561
0.00038935482985
0.000401824262426
0.000406071990111
0.000404181877805
0.000394577758262
0.000383598705785
0.000369210960154
0.000358104176252
0.000334738666849
9.71641016294e-05
6.5071890756e-05
8.29963268344e-05
0.000171441738244
0.000222003153175
0.000263255126651
0.000287564211364
0.00030952560227
0.000331913979356
0.000353462125054
0.000373837072656
0.000390134871228
0.000401417047746
0.000405827855179
0.000404047016404
0.000395776372506
0.000384901679462
0.000372085492374
0.000360321730533
0.000328036399587
9.85726494678e-05
0.000187064479318
1.37414554436e-05
3.11117469656e-05
0.00013062516095
0.000222710266633
0.000283395450989
0.000311771009399
0.000337594022609
0.000360681441207
0.000381097857509
0.000396731433074
0.000406951186983
0.000410618791833
0.000408133502403
0.000399644092274
0.000388183462318
0.000375301040303
0.000362783486459
0.000323651650362
9.98127561197e-05
0.000480153176975
5.722553592e-05
1.11566688556e-05
1.45717907646e-05
5.2789031479e-05
0.00015827066241
0.000255708936634
0.00031909292709
0.00036103640495
0.00039078526762
0.000409336568537
0.000419152934687
0.000421225554947
0.000417103857069
0.00040704634545
0.000394308783438
0.000380209281933
0.000366832852599
0.000320161731228
0.000112349751147
0.000312365961339
0.000153747399198
6.65368298551e-05
1.75650601837e-05
1.09662222328e-05
3.28993820531e-05
0.000105140796309
0.000219286665419
0.000321162068157
0.000384851240013
0.000418184157545
0.000431921624122
0.000433343226987
0.000427555812104
0.000415496512016
0.000401345333981
0.000385730224849
0.000371606415954
0.000319083018626
0.000115189575125
0.000463512509477
0.00030411658393
0.000120341563369
3.28664403244e-05
9.88166147666e-06
1.76869847871e-05
6.55851908608e-05
0.000165191986447
0.000277942125295
0.000363435012901
0.000416683883345
0.000440837947302
0.000444631099736
0.000437981129675
0.000424069181669
0.00040845178659
0.000391387370145
0.000376111318828
0.000318403821736
0.000120028535428
0.000792182065977
0.000504613454807
0.000180338347214
3.35340517095e-05
1.07318093146e-05
1.8078711748e-05
6.00756261189e-05
0.00014284650405
0.00024148064045
0.000333358946017
0.000404062081155
0.000443390950948
0.000453778217098
0.000447812745166
0.000432487761743
0.000415344624632
0.00039691236949
0.000379935265498
0.000316177307528
0.000125852948911
0.00127376150039
0.000792018281708
0.000272376714824
4.29551775191e-05
1.30449915456e-05
1.87683952136e-05
5.37697800858e-05
0.000121432956089
0.000206762720384
0.00029997272068
0.000383837007482
0.000439236382896
0.000460132870125
0.000457127275869
0.000441088709014
0.000422416064199
0.000402581063054
0.000383642230626
0.00031238622055
0.000130846501782
0.00183958425586
0.00116691493828
0.000397993741017
6.79861893861e-05
1.74699645497e-05
1.75500584184e-05
4.32397358918e-05
9.82875238506e-05
0.000175003924105
0.000267048196242
0.000359525232166
0.000429028460157
0.000462798901782
0.000465608500995
0.000450012844874
0.000429981972345
0.000408630393518
0.000387661940979
0.00030820803819
0.000134346626329
0.00240745248564
0.00161150844396
0.000558427682633
0.000112717080966
2.64159240161e-05
1.66219772411e-05
3.23161340902e-05
7.65648702374e-05
0.000146733441559
0.000235981356294
0.000332692180766
0.000413454540754
0.000460667268447
0.000472287137311
0.000458945967388
0.000438047308885
0.00041510044232
0.000391985178694
0.00030421504215
0.000137036188083
0.00290602630859
0.00204677717224
0.000744179054773
0.000166992361331
4.24843233448e-05
1.88581528614e-05
2.5624254188e-05
5.98854833875e-05
0.000122856368263
0.000207482051295
0.000304215015669
0.000393227642626
0.000453112283259
0.000475900905826
0.000467242118183
0.000446423336397
0.000421948887483
0.000396441846774
0.000300207821289
0.000139327377877
0.00328481998909
0.00236951078437
0.000922182928358
0.000222637654166
7.02856134237e-05
2.76678637291e-05
2.45038172985e-05
4.90854724546e-05
0.000103021181828
0.000181050732649
0.000275098007901
0.000369331873274
0.000440215919724
0.000475372153084
0.000474086136491
0.000454834906239
0.000429141826198
0.000400918067362
0.00029595804603
0.000141302574039
0.00351349002202
0.00251797400443
0.00104414163899
0.00028549008252
0.000122094518477
5.0192258138e-05
2.93378249521e-05
4.26166342255e-05
8.58216415591e-05
0.000155869372261
0.000245642727251
0.000342382579686
0.000422530285228
0.000470088467705
0.00047858484094
0.000462908738184
0.000436636514188
0.000405381060859
0.000291609895624
0.000142965860231
0.00354608774016
0.00249386136514
0.00107988472733
0.000357344224208
0.00021656624939
0.000100482581884
4.25175072005e-05
3.89403364622e-05
6.93297949113e-05
0.000130263889914
0.000215362112867
0.000312646974099
0.000400556827596
0.000459910870362
0.000479889618656
0.000470134402505
0.000444326846031
0.000409837748268
0.000287381340693
0.000144405508828
0.0033434656745
0.00230952514662
0.00107391982484
0.000475388004028
0.000372520526919
0.000205165233819
7.46215001747e-05
4.0794751117e-05
5.38242065433e-05
0.000102903421254
0.000182498347398
0.000279665723075
0.000374459423052
0.000445045137972
0.000477389822739
0.000475889659776
0.000452011553544
0.000414315619201
0.000283660734392
0.000145733761357
0.00294792651892
0.0020734480224
0.0011291066021
0.000680940540175
0.000581173347014
0.000402013528292
0.000154390718643
5.73814165235e-05
4.43014651509e-05
7.57273918468e-05
0.000146641197184
0.000243396515742
0.000344281857292
0.000425768022971
0.000470898415768
0.000479548408078
0.000459390117156
0.000418844066299
0.000280853491624
0.000147047549998
0.00256964142524
0.00197276946317
0.00133728210261
0.000960716951324
0.000803758991153
0.000660855714342
0.000316582031766
0.000102796655252
4.69564464774e-05
5.54755361804e-05
0.000111438194478
0.00020516541042
0.000311245317955
0.000403000207609
0.000460601255334
0.000480610815721
0.000466074681791
0.000423421308022
0.000279201919689
0.0001484152374
0.00243145184311
0.00208275654911
0.00163724212267
0.0012388028372
0.000982813668961
0.000844798266954
0.000523510287307
0.000181770833967
6.28804261485e-05
4.65055654426e-05
8.44983028697e-05
0.000170752175365
0.000278742072435
0.000378447772358
0.000447181295206
0.000478835837196
0.000471628417781
0.000427989906667
0.000278798675966
0.000149886714265
0.00252913279167
0.00228457049019
0.00187226695078
0.00141777380438
0.0010707561436
0.000900440274071
0.000647408768196
0.000254036806773
8.16691512569e-05
4.57414298606e-05
7.02389866594e-05
0.000146514698275
0.00025157083256
0.000354140113047
0.000431387804958
0.00047416420446
0.000475572149325
0.000432376144996
0.000279614429934
0.000151490030776
0.0025883764551
0.00233756154595
0.0019289460219
0.00144298759387
0.0010535997492
0.000847354103697
0.000624337362078
0.000263908135776
8.63540236045e-05
4.75131611972e-05
6.87723365891e-05
0.000136833758084
0.000232296532702
0.000330787818925
0.000413131581221
0.000466062045705
0.000477308683259
0.000436275439039
0.000281512773544
0.000153232451326
0.00249281340212
0.00225885316292
0.00185452138674
0.0013638856549
0.000971398979814
0.000732994765328
0.000512831852784
0.000204922953154
7.66443494052e-05
5.43091036204e-05
7.75698251284e-05
0.000134469961561
0.000214236016313
0.00030443848468
0.000390047923568
0.000453186283326
0.000475788583819
0.000439082658629
0.000284207540919
0.000155064824357
0.00239893601417
0.00214994357025
0.00172937400749
0.00123588122821
0.000850441225381
0.000596347752499
0.000384587593291
0.000175140749621
8.89565320519e-05
7.35230636187e-05
8.73906962171e-05
0.000125179345772
0.000185867891818
0.000266276466866
0.000355204754673
0.000431708530749
0.000469039539826
0.000439845589423
0.000287203243208
0.000156879450084
0.00233733344695
0.0020387036893
0.00159024610985
0.00111534867517
0.000750737198434
0.000506283456753
0.000328797478147
0.000202219765513
0.000135919877236
0.000102419267978
9.38144098972e-05
0.000105697628393
0.000142935571338
0.000208633859128
0.000299676349061
0.0003941204328
0.000453094243642
0.000436876119134
0.000289724165564
0.000158522907564
0.00231061965907
0.00197348187779
0.00151419635893
0.00105656963668
0.000717243412528
0.000502754727001
0.00036561595763
0.000271905833348
0.000214639194428
0.000163236364155
0.000122956831585
0.000100777597022
0.000105260931848
0.000143271209209
0.000222426878687
0.000331797135512
0.000421406506069
0.000427242259805
0.000290566258908
0.000159827739041
0.00233017846688
0.00197398350348
0.00151794592367
0.00108516048342
0.000774770792173
0.000586455166285
0.000474789272551
0.000402432629702
0.000354751399256
0.000297838306123
0.000217734970605
0.000144432181489
0.00010271656784
0.000100673697069
0.000146137282408
0.000248030710403
0.000367517548159
0.000407068555576
0.000288121471405
0.000160656975527
0.00238638821945
0.00203841357143
0.00161051868961
0.00121075783483
0.000925246150585
0.000760974671899
0.000676829414096
0.000628112044877
0.000599166331686
0.00055342216864
0.000442279593373
0.000288017333178
0.000160568211342
9.92200067029e-05
9.95197525705e-05
0.00016685782989
0.000293859301914
0.000372622332061
0.000280452474151
0.000160900041508
0.00247397334783
0.00218046928697
0.00181345482217
0.00146218276538
0.00121332176549
0.00107717577268
0.0010162889986
0.000985622206324
0.000958509088114
0.000912140605435
0.000808059077033
0.000599950993607
0.000328659425651
0.000149024545324
8.96016464524e-05
0.000113546103255
0.00021993648816
0.000325563913982
0.000265988716675
0.000160586394973
0.00258775673851
0.00239684531019
0.00214737425812
0.00189182111778
0.00167549405278
0.00153507197767
0.00145431401462
0.00138553644654
0.00130073695022
0.00120633485011
0.0011118996219
0.000964227753157
0.000624737759651
0.000264051010433
0.000110740681911
8.93300750005e-05
0.00016203023638
0.000273482508633
0.000244459217375
0.000159816212824
0.00288973963913
0.00281155208344
0.00266906106256
0.00245645597212
0.00221255887073
0.00198369184772
0.00178387986516
0.00159738035649
0.00141059820804
0.00123702086403
0.00112320210416
0.00107076567019
0.00085644398984
0.000394886926629
0.000141823883802
8.43417046607e-05
0.000132081696698
0.000230243674375
0.000217648215136
0.000158649812402
0.00326468669702
0.00311501017547
0.00290025532085
0.00263405724987
0.00233972918284
0.00204226623173
0.00175700040702
0.00148943187562
0.00124415299235
0.0010329501012
0.000899405708684
0.000878819034043
0.000817065406196
0.000431368977353
0.00014837980234
8.43392171986e-05
0.000126944859822
0.000203771122143
0.000189315644871
0.000157208011911
0.00275386841994
0.002628227961
0.00245999992005
0.00225343607757
0.00201353716178
0.0017456726964
0.00145948436099
0.00118001927852
0.000936026820548
0.000748638679488
0.000636896350759
0.000611228529271
0.000576295417383
0.000327725890703
0.000121320134854
8.75623207371e-05
0.000139392689995
0.000183923602301
0.000161805293469
0.000155589886049
0.00231931681589
0.00225921001989
0.00215746013652
0.00199906638661
0.00177327813027
0.00148202517372
0.00115572940086
0.000859049484921
0.000631138777997
0.000482374477952
0.000410063078339
0.000384308263952
0.000319661278832
0.000196936839502
0.000102694983329
0.000150826814348
0.000132888329422
0.000149922095057
0.00014908133851
0.000147105188175
0.000146270436237
0.000144748713866
0.000138203913126
0.000142351832927
0.000128735351399
0.000140420090214
0.000119371400477
0.000138533338869
0.000110492125928
0.000136602489548
0.000102202859863
0.000134540359006
9.45310638095e-05
0.000132364685531
8.74630882678e-05
0.000130114921698
8.09702432734e-05
0.000127842169652
7.50460113931e-05
0.000125615307807
6.96911251229e-05
0.000123512706667
6.48895635757e-05
0.000121602599623
6.06443662959e-05
0.000119956120847
5.69795763898e-05
0.000118635272538
5.39306788691e-05
0.000117660350673
5.15407153938e-05
0.000117033758522
4.98643709074e-05
0.000116739583901
4.89432884218e-05
0.000116818356133
4.8809453849e-05
0.000117306187759
4.94347590454e-05
0.000118289595132
5.07677344345e-05
0.000119771902081
5.2710645346e-05
0.00012173882283
5.51465076833e-05
0.000124008488815
5.7946186446e-05
0.0001263419783
6.10607013883e-05
)
;

boundaryField
{
    inletfuel
    {
        type            calculated;
        value           uniform 0.0100623058987;
    }
    inletair
    {
        type            calculated;
        value           uniform 0.000335410196625;
    }
    outlet
    {
        type            calculated;
        value           nonuniform 0();
    }
    axis
    {
        type            empty;
    }
    leftside
    {
        type            nutkWallFunction;
        Cmu             0.09;
        kappa           0.41;
        E               9.8;
        value           nonuniform List<scalar> 
33
(
0
0
4.30849226444e-06
4.53161435942e-06
4.72801743226e-06
0
0
0
0
0
0
0
0
0
0
0
0
0
0
0
0
0
0
0
0
0
0
0
0
0
0
0
0
)
;
    }
    burnerwall
    {
        type            nutkWallFunction;
        Cmu             0.09;
        kappa           0.41;
        E               9.8;
        value           uniform 0;
    }
    front
    {
        type            wedge;
    }
    back
    {
        type            wedge;
    }
    procBoundary0to1
    {
        type            processor;
        value           nonuniform List<scalar> 
27
(
0.00248086064343
0.00247842281122
0.0024723474124
0.00246297263279
0.000175926429578
9.32727441825e-05
0.000102171905461
0.000152098192132
0.000156387897451
0.000137853638654
0.000153659952536
0.00243944319598
0.00237074140939
0.00224026490701
0.00202254234518
0.00170875452247
0.00132067222463
0.000919185139746
0.000602221727675
0.000411533457879
0.000316225974182
0.000271314439617
0.000233243948553
0.000175926429578
0.000177036267224
0.000128614889137
6.4647466584e-05
)
;
    }
}


// ************************************************************************* //
