/*--------------------------------*- C++ -*----------------------------------*\
  =========                 |
  \\      /  F ield         | OpenFOAM: The Open Source CFD Toolbox
   \\    /   O peration     | Website:  https://openfoam.org
    \\  /    A nd           | Version:  7
     \\/     M anipulation  |
\*---------------------------------------------------------------------------*/
FoamFile
{
    version     2.0;
    format      ascii;
    class       volScalarField;
    location    "0.07";
    object      O2;
}
// * * * * * * * * * * * * * * * * * * * * * * * * * * * * * * * * * * * * * //

dimensions      [0 0 0 0 0 0 0];

internalField   nonuniform List<scalar> 
814
(
1.1808564737e-09
8.36631982883e-10
1.32961365545e-10
1.44623872773e-07
1.44552665199e-07
6.93766130633e-08
9.11526605649e-06
1.60306804079e-05
3.65834293313e-05
0.000338378399496
0.00116127050544
0.0114208521629
0.000573979815747
0.0014418860935
0.00661438122175
0.000653834913801
0.00125261693987
0.00348645294682
0.000602526632375
0.000913800665067
0.00173783678356
0.000484143228969
0.000602013519904
0.000848884828355
0.000351843425125
0.000373044732379
0.000416053716935
0.000235846826287
0.000222400607001
0.000208371192206
0.000147431289007
0.000129056794934
0.000108210789551
8.65584543384e-05
7.34676864824e-05
5.91890376038e-05
4.84043301519e-05
4.16274634519e-05
3.49921244544e-05
2.67396616627e-05
2.4362924248e-05
2.32184931479e-05
1.5754122773e-05
1.57714232707e-05
1.78249722529e-05
1.09956193525e-05
1.21249938362e-05
1.57702399825e-05
9.69903910973e-06
1.13201599543e-05
1.57002285644e-05
1.08963587009e-05
1.29392843048e-05
1.81577924072e-05
1.69644693559e-05
2.03228047426e-05
2.87758583593e-05
4.1584151473e-05
4.93762658307e-05
6.86406612294e-05
0.000119232427122
0.000137294673489
0.000180857315785
0.000263683031839
0.000297648959974
0.000378267649467
0.000447847741107
0.000504856144795
0.000640305774973
0.000645473676491
0.000726696347938
0.000917432842698
0.000740122161608
0.000827453352654
0.00102981909031
0.000641572803478
0.000708088919851
0.000860229800184
0.000407304034254
0.000441167984965
0.00051722606971
0.000202953411746
0.00021490910605
0.000241383144142
0.000157442271692
0.000165005216005
0.00018203822891
0.00108488007493
0.00111099194286
0.00117307047454
0.00414272630298
0.00420867709737
0.0043632396504
0.00927870959673
0.00943452526716
0.00978689830295
0.0765246601793
0.0252101974119
0.00841117376314
0.00291773836755
0.00108065951454
0.000433296593272
0.000190866027463
9.36129316862e-05
5.25378176178e-05
3.49052191814e-05
2.74897170991e-05
2.46232325308e-05
2.37956529258e-05
2.41707919785e-05
2.76460679579e-05
4.39156079758e-05
0.000102175997981
0.00025339338029
0.000507892244554
0.000858301757548
0.00122055492008
0.00134543243038
0.0010926652427
0.000630111092887
0.000279365083685
0.000207425531294
0.00126439981369
0.00458827172566
0.0102897416857
0.231987123663
0.231990051883
0.231992671858
0.23199536262
0.231997370574
0.231998668003
0.23199940281
0.231999762242
0.231999915952
0.231999973682
0.231999992772
0.231999998281
0.231999999651
0.231999999941
0.231999999992
0.231999999999
0.231999999999
0.23199999999
0.231999999913
0.23199999977
0.229925849722
0.231231756547
0.231705793069
0.231876638912
0.231948831939
0.231978856559
0.231991767282
0.231997080883
0.231999075289
0.231999740693
0.231999935797
0.231999986087
0.231999997405
0.23199999959
0.231999999946
0.231999999993
0.231999999991
0.231999999896
0.23199999862
0.231999989135
0.2146505574
0.216332817152
0.225722629977
0.230161139332
0.231470467879
0.231843154101
0.231946996987
0.231982838356
0.231994930463
0.231998680829
0.231999698281
0.231999939236
0.231999989333
0.231999998402
0.2319999998
0.231999999977
0.231999999963
0.231999999427
0.231999987715
0.231999634375
0.117157901107
0.0886291643516
0.162646879004
0.210558670388
0.225674100159
0.230328473423
0.231643792486
0.23191083543
0.231975748002
0.231994055752
0.231998714255
0.231999753819
0.231999958388
0.231999993922
0.231999999253
0.231999999915
0.231999999864
0.231999997503
0.231999908059
0.231989332436
0.0343101857363
0.0100899508866
0.0210183255877
0.091012719584
0.195776998076
0.221823633187
0.229287190103
0.23144596097
0.231905471885
0.231976933804
0.231995096362
0.231999080957
0.231999846735
0.231999977652
0.231999997236
0.23199999969
0.23199999961
0.231999993359
0.231999817027
0.231989297792
0.00933080396907
0.00154581077965
0.00483760160267
0.0323386354931
0.168328374707
0.214284124322
0.226846843272
0.230575637325
0.2317441114
0.231935425913
0.231985110587
0.231997079387
0.231999498709
0.231999924849
0.231999990417
0.23199999892
0.23199999907
0.23199998608
0.231999683149
0.231987992788
0.00265917293643
0.00106678693488
0.00594857277847
0.0542188685966
0.170968272862
0.212235367291
0.225347824689
0.229722546446
0.231353079824
0.231864101682
0.231963854932
0.231992206995
0.231998574338
0.231999774419
0.231999969693
0.231999996481
0.231999997999
0.231999975003
0.231999511911
0.23198571613
0.000851487028315
0.000967027336598
0.00575861434343
0.0483657524636
0.16871533215
0.209266894327
0.22326782559
0.228591572107
0.230773610705
0.231717101586
0.231925395311
0.231982008602
0.231996438415
0.231999395842
0.231999913188
0.231999989393
0.231999995871
0.231999959127
0.231999314533
0.231983520463
0.000332447100522
0.000722423595885
0.00393129760127
0.0239396257691
0.154583697378
0.202650583157
0.219936404399
0.226998973739
0.2300260502
0.231408654268
0.231865964093
0.231963587602
0.231992053954
0.231998539148
0.231999773317
0.231999970426
0.231999991529
0.231999936684
0.231999086449
0.231981537855
0.00015695657507
0.000460274897962
0.00251168219244
0.0148088795755
0.131588570133
0.191806779882
0.214993761867
0.224776188419
0.229067784693
0.230949379561
0.231763813013
0.231931376305
0.231983663608
0.231996747516
0.231999453525
0.231999923249
0.23199998241
0.231999905087
0.231998811554
0.231979429531
8.73936083541e-05
0.00030003144919
0.00177609283798
0.0116437529825
0.106779000459
0.178885240826
0.209095142605
0.222091253613
0.227901909162
0.23038410489
0.231538916315
0.231885976228
0.231969028443
0.231993262009
0.231998771061
0.231999813302
0.231999962915
0.231999860667
0.231998470342
0.231976937749
6.06270466299e-05
0.000227673507627
0.0013903157305
0.0103035288795
0.0858777787472
0.166253020646
0.20277100583
0.219022902226
0.226427987569
0.229698211255
0.231200355756
0.231808818514
0.231943923809
0.231986768343
0.231997391348
0.231999571375
0.231999921168
0.231999797954
0.231998041378
0.23197395136
5.22695078582e-05
0.000213767148936
0.00125490007714
0.00920407927449
0.0656740914535
0.153089862518
0.195804452249
0.215413728927
0.224574596863
0.228827300635
0.230740319047
0.23165908106
0.231906469126
0.231975380489
0.231994749071
0.231999067575
0.231999833188
0.231999708449
0.231997499353
0.23197038752
5.07084913386e-05
0.000211733952464
0.00117972954035
0.00781792824857
0.0430107633854
0.134044570289
0.186188133918
0.21053882491
0.222095289874
0.227627440508
0.230162721613
0.231398185581
0.231848213378
0.231956297197
0.231989918575
0.231998071897
0.231999653182
0.231999578507
0.231996809014
0.231966121293
5.10823784456e-05
0.000207267165012
0.001053996806
0.00591755213381
0.0263411404637
0.101118749341
0.169435989595
0.202846660296
0.218455649478
0.22590251796
0.229394302826
0.231004051135
0.231754407589
0.231925205051
0.231981496548
0.231996206415
0.231999299324
0.231999385927
0.231995928121
0.231960963638
5.13411457361e-05
0.000193911468603
0.000854483804405
0.00387087364089
0.0147513676016
0.0534285953944
0.139725063744
0.189892038243
0.212849220216
0.223401752295
0.228327575828
0.230501567709
0.231561272319
0.231883240284
0.231967810442
0.231992911794
0.231998636292
0.231999094166
0.231994804046
0.231954648406
5.10569074869e-05
0.000171579723481
0.000635744612045
0.00236014486123
0.00786268039549
0.0252513362263
0.0991037347587
0.170214901954
0.204654069271
0.2199457134
0.226851277787
0.229884022559
0.23127855317
0.231817929195
0.231946417551
0.231987402496
0.231997456044
0.231998642999
0.231993361434
0.2319468222
5.62985422889e-05
0.000175202897285
0.000600666426907
0.00200602191468
0.00613684984641
0.0179156874962
0.0654683175043
0.147948661935
0.194936596544
0.215919117638
0.225146389268
0.229185296304
0.230922706554
0.231719948481
0.231916443746
0.231978800905
0.231995466734
0.231997934002
0.231991486814
0.231937017728
8.92370001216e-05
0.000276036288584
0.00088671126782
0.00272930049305
0.0076888504706
0.0195939502182
0.0572976164908
0.136314141632
0.188388960953
0.212874029724
0.223703502743
0.228515388736
0.230573562893
0.231567527938
0.231877981372
0.23196607943
0.231992247162
0.231996801288
0.231989001036
0.23192458225
0.000199216325423
0.000562977695148
0.00161857221124
0.0046005427621
0.0121581437218
0.0287324323182
0.0776027700206
0.143432281956
0.189708377961
0.212682992794
0.223201748924
0.22806712155
0.230280093059
0.231378996423
0.231823852088
0.231947234242
0.2319870604
0.231994941747
0.231985596845
0.231908559403
0.000451614321847
0.00112093647037
0.00297163134799
0.00795495835859
0.0199656259136
0.0456993732464
0.109972176434
0.163797053918
0.197692141972
0.214916349995
0.223376552837
0.227736769977
0.229979466652
0.231125220864
0.231744888809
0.231918466455
0.231978534779
0.231991778412
0.231980746955
0.231887692649
0.000851077353076
0.00201554604966
0.00512712830858
0.0134044018727
0.0330308533382
0.0791770809802
0.138468863316
0.178813643556
0.203721064459
0.216108708194
0.222948637443
0.227044627224
0.229457852078
0.230778744647
0.231583736321
0.231874407349
0.231963751916
0.231986196605
0.231973528174
0.231860029446
0.00142774767504
0.00333750539598
0.00820059370347
0.0198432280555
0.0452637592751
0.10002972351
0.149805899496
0.180448541898
0.199524457379
0.212586858984
0.220061141593
0.225055047442
0.228268746127
0.230163658306
0.231246138998
0.231791701457
0.231936513484
0.231976006543
0.231962286222
0.231822615281
0.00198390013587
0.00439735808695
0.0100880613113
0.0226526980093
0.0480470558221
0.0979423473862
0.14061301655
0.167556188294
0.184931044093
0.200518512282
0.211772493522
0.220013257747
0.225496205801
0.228823766572
0.230607846385
0.231595536406
0.231888535028
0.231957104594
0.231944135361
0.231770764198
0.00211370244639
0.00438799007935
0.00931815361675
0.0192467987125
0.0378314459628
0.0728052862393
0.111419458347
0.136793634641
0.15420983343
0.172954482016
0.191989773625
0.207971759442
0.219185118056
0.225866799619
0.22941148149
0.231108148382
0.231796032011
0.231922016723
0.231914164082
0.231697525861
0.00164169431226
0.00316730105186
0.00621865809305
0.0118905246803
0.0216095959186
0.0371339222174
0.0614798628915
0.0838837398796
0.100849527198
0.122107454991
0.150337170985
0.180731317326
0.205112810335
0.219671380513
0.22700152941
0.230234386693
0.23157839741
0.231861991532
0.231864483915
0.23159206985
0.000890775341134
0.00156908132933
0.00283097464699
0.00502450187996
0.00841853500086
0.0133441287401
0.0202708345049
0.0289807022214
0.0388587611073
0.0565219360692
0.0862180997841
0.129652296954
0.176118630542
0.207585173676
0.222610366956
0.228841557014
0.23114218737
0.231757346324
0.231781420358
0.231439567004
0.000365643132666
0.000573996612216
0.000930746750334
0.00153826401673
0.00263390145236
0.00442566989494
0.00708783248947
0.0106015476714
0.0151929975821
0.0223016604023
0.0364667369966
0.0750720363776
0.133951093147
0.187953465045
0.215722207788
0.226787250448
0.230525396986
0.231556867342
0.231644663065
0.231226385948
0.000269436014266
0.000441863042582
0.000772653372841
0.00136805759378
0.00239055205816
0.00405298303706
0.00657808719537
0.0101483787273
0.0149979734818
0.0216179647385
0.0316162164316
0.0567279200689
0.106790326635
0.170018897804
0.209391363662
0.224911278457
0.229955806941
0.231262819291
0.231414620449
0.230922134941
0.00147998484168
0.00196447230429
0.00277376307506
0.00407994325059
0.00611867937432
0.00918190593013
0.0135866830875
0.0196326126868
0.0276668560244
0.0384722355144
0.0530381854688
0.0772176767925
0.112317705776
0.166872775044
0.208236673937
0.224488527405
0.229601760978
0.230897001914
0.23105563666
0.230490431865
0.00511323428577
0.00629662930878
0.00819739264244
0.0110772689087
0.0152791765796
0.0212431072742
0.0293638021684
0.0401506249659
0.05385996476
0.0728918501622
0.0954166951533
0.117433459341
0.142748489796
0.180451552292
0.212824609
0.225554935022
0.229372772999
0.230330247874
0.230473744395
0.229879211914
0.0114360796492
0.0139742477356
0.0179142869553
0.0236491413097
0.0316768710077
0.0427860667018
0.0567194734148
0.0759341179075
0.0991785085522
0.121595897502
0.141045207244
0.158546501537
0.179211009772
0.231599230887
0.231571757812
0.231737692622
0.231676014687
0.231819320289
0.231753680715
0.231858272827
0.231789819534
0.231873651052
0.231804221716
0.231878590986
0.231807523195
0.23187650305
0.231803468236
0.231869442526
0.231794029193
0.231858243016
0.231779718235
0.231843156797
0.231760378579
0.231823899052
0.231735275826
0.231799833784
0.231703085219
0.231769976321
0.231661812143
0.231732795533
0.231609007032
0.231685586137
0.231541024043
0.231624700864
0.231452469429
0.231547610956
0.231337762155
0.231448979011
0.231190445455
0.231324028232
0.231004169637
0.231168337151
0.230773518213
0.230977623397
0.230494396296
0.23074803917
0.230164114446
0.230473127075
0.229779732503
0.230143795427
0.229337273369
0.22974305703
0.228828776651
0.229247510149
0.228242223012
0.2286265565
0.22756052714
0.227849219773
0.226763351857
)
;

boundaryField
{
    inletfuel
    {
        type            fixedValue;
        value           uniform 0;
    }
    inletair
    {
        type            fixedValue;
        value           uniform 0.232;
    }
    outlet
    {
        type            zeroGradient;
    }
    axis
    {
        type            empty;
    }
    leftside
    {
        type            zeroGradient;
    }
    burnerwall
    {
        type            zeroGradient;
    }
    front
    {
        type            wedge;
    }
    back
    {
        type            wedge;
    }
    procBoundary0to1
    {
        type            processor;
        value           nonuniform List<scalar> 
27
(
0.0161781624543
0.0164799346311
0.0171406360243
0.0180727283316
0.202494363013
0.219122383775
0.226415557811
0.228650740904
0.229312980457
0.229526275377
0.229015699985
0.0201656733705
0.0247647919159
0.0318898028252
0.0420465939558
0.0560254443543
0.075750278863
0.0985440348615
0.121624699486
0.142390256574
0.159546780763
0.173588800106
0.186611558868
0.202494363013
0.200220346315
0.226893562063
0.225831764777
)
;
    }
}


// ************************************************************************* //
