/*--------------------------------*- C++ -*----------------------------------*\
  =========                 |
  \\      /  F ield         | OpenFOAM: The Open Source CFD Toolbox
   \\    /   O peration     | Website:  https://openfoam.org
    \\  /    A nd           | Version:  7
     \\/     M anipulation  |
\*---------------------------------------------------------------------------*/
FoamFile
{
    version     2.0;
    format      ascii;
    class       volScalarField;
    location    "0.07";
    object      one_over_tauStar;
}
// * * * * * * * * * * * * * * * * * * * * * * * * * * * * * * * * * * * * * //

dimensions      [0 0 -1 0 0 0 0];

internalField   nonuniform List<scalar> 
814
(
800.917553433
1138.02850518
5045.19234847
988.497030276
1361.51971769
5051.71289244
1089.37958517
1527.81293466
5054.58427749
1296.75048627
2075.12180339
6320.0524367
1558.94462343
2654.08173636
6288.50636413
1884.24899321
3154.65817846
5859.70823629
2208.90699874
3459.85507898
5337.48756726
2472.9718162
3571.11718531
4815.91933853
2644.39972235
3532.48554348
4322.43355018
2712.654022
3385.52465381
3870.88615557
2687.15877728
3170.09542399
3472.07244375
2590.83765374
2923.02099272
3124.3395681
2449.5406928
2670.34735498
2814.52262197
2281.59937866
2423.31884747
2527.02174155
2091.21660492
2177.2727956
2244.60581848
1868.29705517
1914.30287594
1945.79466468
1597.81535474
1614.77709923
1613.95590345
1285.58388436
1285.84355496
1268.9478075
1006.07407007
1006.28448459
999.203689771
822.594977963
824.719342719
823.856619079
655.263198549
654.529506322
650.552524201
531.217403454
532.027507515
532.728476896
480.780845542
481.409420904
481.90907404
460.984120618
460.857896512
459.929225683
452.649948017
451.956184532
449.991265527
444.52360569
443.594940378
441.185580324
427.964101345
427.157315185
425.059648628
402.351687859
402.02814439
401.078112148
392.342901521
392.887789312
393.853405975
428.666109545
428.573061142
427.958717691
392.984741148
391.91389827
389.242772418
281.561915754
281.021970107
279.56113197
398.22375972
4770.57005166
5009.17326477
4784.12771766
4418.84438396
4025.62343419
3652.04205856
3321.0589335
3030.07155702
2760.73052279
2495.60772782
2217.82011822
1908.98544534
1563.43355786
1222.41679379
978.724818916
813.053630676
641.25374747
531.354812694
480.445748644
457.026292169
446.08564345
436.821055812
421.300289496
399.117854569
394.795740679
426.952387687
385.826631424
277.541231067
53.8940154862
21.9356867843
18.2865433253
17.1555115529
15.7627401486
14.2284993512
12.5289077735
10.9660629537
9.56479972352
8.39141005759
7.39084412996
6.57508595627
5.89109483996
5.36284311008
4.92914069783
4.62819223679
4.38619598321
4.24352088825
4.30671308595
14.742381856
62.6398567818
57.836726484
42.0308562906
29.9124561901
23.3486826059
18.779208556
15.2928215221
12.5595242572
10.4444852915
8.84695899806
7.62611116187
6.68634906728
5.94515459333
5.38033688303
4.93883464987
4.62487830548
4.3927072326
4.25234562561
4.46667550518
14.9551513483
138.433604339
358.999562749
186.053762264
69.8806133129
40.2794062766
27.5158354327
19.7513837309
14.8024568133
11.5679360564
9.4239371529
7.93783973226
6.86432810197
6.05372213451
5.44735859651
4.98318621522
4.65184529225
4.4125092084
4.271382423
4.57719199349
15.1432641619
829.984650581
827.667174902
835.45918488
414.326800306
139.12039072
54.658925722
30.3878848426
19.4295087016
13.5974746132
10.3533200981
8.40643038236
7.12819303383
6.21637103088
5.5548433162
5.05564466208
4.70253424744
4.44654393886
4.30629927035
4.68909805332
17.2458052051
2264.1132707
1406.77909453
1164.04964439
1018.21305618
578.101575259
196.235053054
68.4582870123
30.6093291967
17.4364840977
11.8307685809
9.05148023762
7.45070930819
6.39860196343
5.66928526032
5.13039789826
4.75532620826
4.48233608278
4.34493048346
4.80097976727
18.8261642803
2816.4078288
1580.95677959
1179.6977825
1062.53681238
836.305830744
327.497369475
101.820113433
40.8094793397
21.6251156658
13.7633231679
9.92825295863
7.86268897697
6.61107714713
5.7914800905
5.20630301182
4.80634934615
4.51750321624
4.37914757377
4.94089015911
20.6383772623
2862.19357438
1667.58017885
1182.04318948
1003.90252549
783.754117319
324.92737275
108.459667948
46.9245365169
25.6762504978
16.0896081963
11.0813727028
8.39755081234
6.86897014753
5.92641893768
5.28432413587
4.85507032987
4.55065272169
4.40822163825
5.10392199319
22.0755631397
2858.22424027
1767.89523687
1216.37992301
970.048972625
748.993631024
333.940805918
120.031668196
54.4617226348
30.3798027832
18.7958677131
12.5132346968
9.08413203073
7.19340968893
6.08627953175
5.37065889166
4.90609840901
4.58468767761
4.43940852617
5.27709905969
23.0199991921
2832.07459026
1845.62807672
1256.44591493
966.786521463
759.055324952
386.751455955
145.248888555
64.9591823305
35.8181913629
21.7822738897
14.1738295639
9.93555929968
7.6035708823
6.28378375161
5.47154458805
4.96301529735
4.6215333964
4.47657461537
5.45464774184
23.502967295
2770.52287577
1897.33586016
1293.90757121
970.919131189
769.333198179
466.555881555
186.609701757
78.8925761769
41.8546418584
25.0053953666
16.0245473288
10.9571506874
8.11691924989
6.53136964647
5.59311200544
5.02806229375
4.66182826426
4.51956630856
5.63618306489
23.685135391
2673.45646092
1924.86337984
1324.4880971
959.773178688
740.173604415
513.231021191
232.227186088
94.8398845353
48.1838896065
28.4446807051
18.0305625629
12.1384878367
8.74733425409
6.84186772163
5.74279265589
5.10404288756
4.70644540535
4.56788881397
5.8248027251
23.6632894066
2546.27527915
1909.89408945
1347.71055727
932.826234879
657.272060787
481.817301014
260.38674035
110.945195859
55.074341888
32.1491026303
20.2198381871
13.47354608
9.50419956862
7.22813697111
5.92948060923
5.19520691735
4.75718172524
4.62196835228
6.0240864649
23.4966300382
2390.48033798
1838.81542757
1338.00992878
898.264088364
555.30623465
411.694197883
266.788810178
128.380722384
63.4893422984
36.4027888185
22.6854959403
14.9618549912
10.3906105253
7.70190560331
6.16263808376
5.30694103149
4.81655132133
4.68255010917
6.23324730458
23.2210273069
2197.63279556
1709.02730725
1251.10658673
804.99537102
466.95900652
365.073786086
274.88866951
155.701608198
76.6879400246
42.0975510554
25.6352820925
16.6528568707
11.4094833358
8.27130013723
6.4508515948
5.44504874912
4.88750089339
4.75035305829
6.45083309582
22.865701451
1956.82271421
1514.58507852
1089.302541
669.386335921
421.876738909
362.252914495
299.597168464
201.099315668
101.812290269
51.4711945572
29.6193309668
18.6763582332
12.5741068101
8.94032388913
6.80072080707
5.61508658684
4.97327160086
4.82607196574
6.66931306411
22.457030916
1662.66450783
1267.12244813
890.407891858
562.325422762
409.436975057
380.415447842
332.083765269
255.72091528
147.077228781
68.9391960325
35.6850753294
21.2745809343
13.905375265
9.7018757879
7.21448087082
5.82161074667
5.07724714807
4.91052037313
6.87804461507
22.0184921001
1343.11153623
1032.25706234
752.458881343
530.794871281
413.742742195
397.343137709
361.112442996
299.53241696
204.07116357
99.1445326367
45.3664799748
24.6872428334
15.431897829
10.5435182937
7.68754549813
6.06722918637
5.20262573313
5.00471431727
7.06907564836
21.5639009388
1073.97415128
876.903325008
688.36152714
524.432455568
415.330372038
396.609035948
379.654842412
326.184523228
247.374753407
136.601108742
58.5681848437
28.7266240883
17.0610854156
11.4206434105
8.20638604851
6.35238864374
5.35249987254
5.10995242051
7.23776790277
21.0988366533
908.298834021
779.325131066
637.978976897
503.243095917
402.395396048
381.093034705
381.855222391
333.597248198
262.471558651
159.419279993
69.7998280964
32.358812414
18.6144273427
12.2948237218
8.76076045415
6.67825797259
5.53038812227
5.22794339132
7.3820204778
20.627012903
762.645307785
667.443793898
561.059576912
451.835891239
368.95208351
358.023527141
364.195103095
317.974100174
247.959560466
152.095463127
69.5807772111
33.6867305566
19.8182158712
13.1692765425
9.37116641252
7.05751673241
5.74472970647
5.36232949161
7.5019351591
20.1487795973
613.522649757
558.379663945
478.724202044
393.078376758
335.050173549
333.878877545
328.526342871
265.597700474
192.717724072
115.837783736
60.9105588124
34.0537979186
21.2744621903
14.3234641328
10.1535523543
7.53705055877
6.01341043199
5.51975232701
7.60001346845
19.6691756619
521.989352358
482.17771128
417.894556102
350.970909712
312.182003977
306.184862104
278.11822367
189.40698059
126.483275888
88.5149555145
58.7292618589
37.8053477507
24.6099283302
16.4739581465
11.398974772
8.22998159712
6.37744835194
5.71375963206
7.68316162979
19.1935087478
472.50915822
438.063602591
385.111018715
332.270758076
294.723618799
269.325586816
224.190917652
152.868438486
114.804873895
92.5337006036
71.6592140629
50.4017211438
33.0248243098
21.1920984724
13.7718195759
9.38262637528
6.92206408532
5.97114841787
7.76481133895
18.7317036286
447.654201745
416.762203045
370.702413616
321.117497544
277.723402006
239.162257253
192.464580156
144.14378683
122.118614467
109.415957976
94.7603090026
74.3900909512
51.3875844151
31.8153378586
18.8080211956
11.5276593558
7.81036201645
6.33926024877
7.86800119932
18.3032363255
435.706261004
406.184329497
362.139063607
312.611422977
265.698183176
222.735790314
181.546865479
149.221707215
134.523024965
127.087048304
117.378701993
101.651961273
79.3766486996
52.5610449339
29.4660177536
15.7507357026
9.34853000683
6.90477388588
8.02820753996
17.9389034062
425.931317977
397.225604474
355.20480275
307.55513353
261.708570883
221.254105633
188.424241479
165.106111843
152.100937724
145.02320374
137.608473163
124.956146625
106.309065128
80.6553675959
48.9992084792
24.0147689626
12.0601285408
7.78580724598
8.29775656886
17.6779245989
411.836839933
386.674477877
349.667757818
308.066854784
270.13510914
238.765132282
212.465554339
191.098723587
174.963306519
163.342609701
155.149531946
145.329583693
128.332789126
105.623248867
74.3581565037
37.8517264831
16.51051337
9.10932357499
8.74321552444
17.5661795757
393.577019953
376.92833683
351.598380924
323.243301355
295.373188107
268.951754004
243.782419337
220.084790705
198.278629168
179.907660842
167.475255706
160.402454906
146.368651868
124.122088319
96.8447482125
56.1623696151
23.0984243485
10.9435700649
9.43082120089
17.6457634354
395.672034108
391.194071563
378.377669124
356.905177926
329.574912799
299.583214612
269.309861413
240.093901732
212.764561432
188.456518072
170.867019396
165.060884023
157.47600201
135.36217651
108.952109271
69.2629695761
29.0843485265
12.8753898877
10.3821299085
17.9387687169
423.139777544
411.299941712
392.01316778
365.993251535
335.286654498
302.635317952
270.38042207
239.836790329
211.515593555
185.54475735
164.524672397
157.244714416
156.603368809
137.493753431
110.384079344
70.4189815292
30.1720664679
14.1182804654
11.6192827283
18.4467555968
377.81925301
362.466229542
342.073643336
318.001610848
292.174485162
266.502783519
241.920871687
218.50772072
195.798753563
173.699800388
153.427935922
143.873813151
143.236024815
126.415655259
99.4397675952
59.1433274779
26.4378548516
14.9011569149
13.3058564244
19.1473545391
272.955348825
264.31425583
253.713483917
242.010654462
229.539649718
216.141930316
201.621239528
186.390530001
168.86672237
148.879375458
131.644581959
125.485227085
122.94935379
26.6811244183
53.6246556812
67.9241931027
53.6218102606
71.3056512332
53.6188521356
69.8106790463
53.6171417972
66.5093138864
53.6173236709
62.5890227292
53.6180076187
58.8621343626
53.6187405957
55.4874460158
53.6197247308
52.542420654
53.6209354299
49.9997954157
53.6223716011
47.814721294
53.6240593614
45.9343376494
53.6260973598
44.3085837049
53.6286418023
42.8959279471
53.6318730898
41.6665413361
53.6360125426
40.5930172109
53.6412960642
39.6569697798
53.6479003071
38.846447959
53.6559785962
38.1509151256
53.6656025148
37.5622898356
53.6768574445
37.0798941664
53.6899131519
36.7101432378
53.7051505796
36.4825385335
53.7230782396
36.419631202
53.7442467107
36.5434724637
53.7690198149
36.8504493371
53.7976881644
37.2924258956
53.8308722372
37.7810539268
53.8695358029
)
;

boundaryField
{
    inletfuel
    {
        type            calculated;
        value           uniform 120.747670785;
    }
    inletair
    {
        type            calculated;
        value           uniform 4.0249223595;
    }
    outlet
    {
        type            calculated;
        value           nonuniform 0();
    }
    axis
    {
        type            empty;
    }
    leftside
    {
        type            calculated;
        value           nonuniform List<scalar> 
33
(
26.6811244183
53.6246556812
14.742381856
14.9551513483
15.1432641619
53.6246556812
53.6218102606
53.6188521356
53.6171417972
53.6173236709
53.6180076187
53.6187405957
53.6197247308
53.6209354299
53.6223716011
53.6240593614
53.6260973598
53.6286418023
53.6318730898
53.6360125426
53.6412960642
53.6479003071
53.6559785962
53.6656025148
53.6768574445
53.6899131519
53.7051505796
53.7230782396
53.7442467107
53.7690198149
53.7976881644
53.8308722372
53.8695358029
)
;
    }
    burnerwall
    {
        type            calculated;
        value           nonuniform List<scalar> 7(5045.19234847 5051.71289244 5054.58427749 53.8940154862 62.6398567818 138.433604339 398.22375972);
    }
    front
    {
        type            wedge;
    }
    back
    {
        type            wedge;
    }
    procBoundary0to1
    {
        type            processor;
        value           nonuniform List<scalar> 
27
(
204.923347136
205.079799671
205.313873158
205.611281966
106.118822462
79.635734729
44.2704304153
23.2559477645
16.6746751533
15.8028493062
20.0662456487
206.273396476
207.392869705
207.633420519
205.372186928
199.3774725
188.948743174
173.878284913
156.17802007
136.545827668
118.356972418
110.014104051
108.175606434
106.118822462
103.349514666
38.2145018147
53.9144510786
)
;
    }
}


// ************************************************************************* //
