/*--------------------------------*- C++ -*----------------------------------*\
  =========                 |
  \\      /  F ield         | OpenFOAM: The Open Source CFD Toolbox
   \\    /   O peration     | Website:  https://openfoam.org
    \\  /    A nd           | Version:  7
     \\/     M anipulation  |
\*---------------------------------------------------------------------------*/
FoamFile
{
    version     2.0;
    format      ascii;
    class       volScalarField;
    location    "0.07";
    object      p;
}
// * * * * * * * * * * * * * * * * * * * * * * * * * * * * * * * * * * * * * //

dimensions      [1 -1 -2 0 0 0 0];

internalField   nonuniform List<scalar> 
814
(
102837.897246
102828.798157
102845.70224
102821.003041
102816.330011
102819.808189
102806.683008
102804.484253
102807.283745
102802.66581
102800.878414
102805.337032
102808.242596
102806.895403
102805.355747
102801.411966
102801.023551
102801.663434
102801.113501
102801.177234
102801.264538
102801.787059
102801.625965
102801.50126
102801.279767
102801.133267
102800.945555
102800.442816
102800.318302
102800.064652
102799.44436
102799.273139
102798.996084
102798.63149
102798.390882
102798.14617
102798.108962
102797.828746
102797.638043
102797.938383
102797.674653
102797.521013
102797.973697
102797.776298
102797.666863
102797.97403
102797.826095
102797.778026
102797.282424
102797.179617
102797.146536
102795.873178
102795.792279
102795.752017
102794.017334
102793.953051
102793.902412
102791.797814
102791.72741
102791.686091
102788.447585
102788.391767
102788.367392
102784.695211
102784.671495
102784.659009
102780.345301
102780.344018
102780.338102
102776.197291
102776.202421
102776.192638
102771.558052
102771.568203
102771.554129
102768.012941
102768.018429
102767.999674
102763.917734
102763.929869
102763.915296
102761.296017
102761.292434
102761.279652
102758.03549
102757.995799
102757.967018
102756.23204
102756.15551
102756.127798
102749.855824
102749.780067
102749.742956
102743.869084
102743.851354
102743.845933
102792.499449
102806.120296
102802.035383
102801.238169
102801.238875
102800.654697
102799.775398
102798.717611
102797.909955
102797.457801
102797.365807
102797.544487
102797.697308
102797.063495
102795.655661
102793.805032
102791.612785
102788.339553
102784.615194
102780.330184
102776.178544
102771.533442
102767.970748
102763.896768
102761.261704
102757.92582
102756.081924
102749.688012
102743.83808
102809.845371
102809.947688
102810.707103
102811.512214
102812.601767
102813.812573
102815.325605
102816.997947
102818.893427
102820.900843
102822.991503
102825.026527
102826.996052
102829.013098
102831.175066
102833.481682
102835.609732
102837.627654
102838.95088
102840.112854
102809.580416
102809.193335
102809.889194
102809.260641
102810.659175
102811.797419
102813.706979
102815.604232
102817.762992
102819.898846
102822.100552
102824.331689
102826.528383
102828.648017
102830.798466
102833.108738
102835.268173
102837.282562
102838.589265
102839.786992
102804.058492
102803.575401
102805.61579
102806.971764
102808.89289
102810.117135
102812.125322
102814.246114
102816.722934
102819.121643
102821.433511
102823.798151
102826.163944
102828.397705
102830.556986
102832.844445
102834.990134
102836.998565
102838.252704
102839.558821
102805.087585
102802.022866
102803.323472
102802.256771
102804.879465
102806.770311
102810.670292
102812.894668
102815.569713
102818.321559
102820.782644
102823.258888
102825.762793
102828.107624
102830.292026
102832.555495
102834.67199
102836.668167
102837.847343
102839.273796
102804.027475
102801.670623
102803.937978
102802.430919
102804.616246
102804.870898
102808.942183
102811.277569
102814.029689
102817.199221
102819.959182
102822.575925
102825.225278
102827.701262
102829.937044
102832.179125
102834.249692
102836.214537
102837.396215
102838.634816
102801.968109
102801.228437
102801.965743
102800.617469
102802.375407
102802.674903
102806.989621
102809.38817
102812.711351
102815.89873
102819.003757
102821.785544
102824.580793
102827.19658
102829.511097
102831.748664
102833.766967
102835.689704
102836.927844
102838.153485
102801.47288
102801.284367
102801.521261
102801.546042
102801.916793
102803.13446
102805.651601
102808.454775
102811.404712
102814.883235
102817.944633
102820.871338
102823.806007
102826.560193
102828.978064
102831.244131
102833.223785
102835.099309
102836.386565
102837.621712
102800.869721
102800.677307
102800.767248
102800.909725
102801.344981
102802.486862
102804.658886
102807.22933
102810.34199
102813.719647
102816.725074
102819.827717
102822.887095
102825.763548
102828.297258
102830.634086
102832.614201
102834.450026
102835.76906
102836.967065
102800.079425
102799.976121
102800.031332
102800.163369
102800.640192
102801.590558
102803.12667
102806.012731
102809.015081
102812.218224
102815.40441
102818.653532
102821.813953
102824.781156
102827.424245
102829.869394
102831.910151
102833.737821
102835.070897
102836.205618
102799.188356
102799.21933
102799.487794
102799.772718
102800.264453
102800.948652
102802.575649
102804.661814
102807.693181
102810.682584
102814.017731
102817.358662
102820.574005
102823.594586
102826.320525
102828.890879
102831.05841
102832.937465
102834.293421
102835.35845
102798.185788
102798.307678
102798.753263
102799.080746
102799.906256
102800.179639
102801.643246
102803.570936
102806.348095
102809.246634
102812.5766
102815.954822
102819.161916
102822.201387
102824.970722
102827.651113
102829.994216
102832.00292
102833.428895
102834.443638
102797.499328
102797.544684
102798.026635
102798.523914
102799.318667
102799.655241
102800.995406
102802.497428
102805.133027
102807.903727
102811.101232
102814.449349
102817.583561
102820.621492
102823.398772
102826.139704
102828.669354
102830.881767
102832.455953
102833.477874
102797.172983
102797.316748
102797.614824
102798.119211
102798.921827
102799.258092
102800.113313
102801.79055
102803.972058
102806.547345
102809.595233
102812.825943
102815.86382
102818.8827
102821.672728
102824.404695
102827.081844
102829.538282
102831.341213
102832.454406
102797.151132
102797.269864
102797.433399
102797.938069
102798.173196
102798.968813
102799.371217
102800.661357
102802.757796
102805.062521
102807.956747
102810.998701
102814.027465
102817.017759
102819.867645
102822.550343
102825.292348
102827.974006
102830.048628
102831.333729
102797.390388
102797.424704
102797.405252
102797.731839
102797.834734
102798.309636
102798.76639
102799.894213
102801.273454
102803.469146
102806.123453
102809.104493
102812.07295
102815.043237
102817.998283
102820.684149
102823.404953
102826.227738
102828.545425
102830.036618
102797.569808
102797.441222
102797.262522
102797.350736
102797.435453
102797.788922
102797.865378
102798.643382
102799.511483
102801.621472
102804.11634
102807.15116
102809.962457
102812.976415
102815.990651
102818.814889
102821.501284
102824.346558
102826.799385
102828.449812
102796.869623
102796.580417
102796.30225
102796.202721
102796.261623
102796.331045
102796.652855
102797.156127
102798.250719
102799.92901
102802.250084
102805.06634
102807.75525
102810.863867
102813.831299
102816.840364
102819.559688
102822.334889
102824.76327
102826.446521
102795.428815
102795.138604
102794.848657
102794.695012
102794.683546
102794.72604
102794.884802
102795.269761
102796.184281
102797.676617
102800.072316
102802.844081
102805.559322
102808.682639
102811.590434
102814.695826
102817.463276
102820.122235
102822.367792
102823.924349
102793.623295
102793.406212
102793.098842
102792.898678
102792.823682
102792.700361
102792.607754
102792.952534
102793.836467
102795.365901
102797.833989
102800.676944
102803.457584
102806.4283
102809.300821
102812.348805
102815.092253
102817.596414
102819.548181
102820.853859
102791.468792
102791.234048
102790.935888
102790.728696
102790.564516
102790.315388
102790.459663
102790.492555
102791.43674
102792.836166
102795.356677
102798.170978
102801.198041
102803.999479
102807.098167
102809.798484
102812.383496
102814.673463
102816.300429
102817.325192
102788.245579
102788.058341
102787.881584
102787.767133
102787.460471
102787.412685
102787.203718
102787.418366
102788.557184
102790.135922
102792.703388
102795.217859
102798.273213
102800.320453
102805.509202
102806.898843
102809.381967
102811.362303
102812.72329
102813.570278
102784.536518
102784.461057
102784.433342
102784.2777
102784.229891
102784.34091
102784.382729
102784.918202
102786.37379
102788.021627
102789.403109
102791.78606
102794.652395
102797.732536
102801.04092
102803.852084
102806.073724
102807.773406
102809.028452
102809.914738
102780.312111
102780.262498
102780.143013
102779.959665
102779.846574
102779.387232
102779.116668
102778.558548
102779.226329
102779.046722
102784.448264
102785.323599
102789.041596
102792.443921
102796.180349
102799.759946
102802.24949
102804.064394
102805.468295
102806.629595
102776.143124
102776.089403
102776.011052
102775.908348
102775.755082
102775.367956
102775.035297
102774.592808
102774.477078
102774.552745
102774.109331
102780.174368
102783.979261
102785.881446
102790.726132
102794.752128
102797.881759
102800.282362
102802.160275
102803.741502
102771.482545
102771.389502
102771.200484
102770.97642
102770.588929
102770.25359
102769.766505
102769.484764
102769.347301
102769.213685
102770.643408
102770.49898
102776.019597
102778.985337
102783.799011
102788.704795
102792.925323
102796.298717
102798.842331
102800.822407
102767.907403
102767.82421
102767.712906
102767.61438
102767.385701
102767.189925
102767.046914
102766.82725
102766.859901
102766.675505
102766.990264
102766.951924
102768.940187
102772.438776
102776.907782
102782.116907
102786.925719
102791.874181
102794.879522
102797.0872
102763.85539
102763.763034
102763.614259
102763.466643
102763.300775
102763.277936
102763.295305
102763.371149
102763.428599
102763.759128
102763.76352
102764.842232
102765.904719
102767.008113
102770.374171
102774.723596
102779.807964
102786.156285
102789.739987
102791.996959
102761.222863
102761.179577
102761.129129
102761.049244
102761.093311
102761.160904
102761.277138
102761.33325
102761.388821
102761.427103
102761.581111
102762.092251
102762.43832
102763.580629
102765.597924
102769.32386
102773.647153
102778.996547
102782.969848
102785.549743
102757.843193
102757.659173
102757.42844
102757.256241
102757.123142
102757.055758
102757.043891
102757.084404
102757.163153
102757.26902
102757.416991
102757.587725
102757.948572
102758.331356
102759.957162
102762.618272
102766.876481
102771.340899
102775.677708
102778.329342
102755.967689
102755.735121
102755.442884
102755.102378
102754.759622
102754.431453
102754.149225
102753.999449
102753.953809
102753.982694
102753.848913
102753.856617
102753.849326
102754.314302
102755.971303
102757.840175
102761.092184
102764.607382
102768.270735
102770.610277
102749.580488
102749.370624
102749.097972
102748.784218
102748.473087
102748.237607
102748.125985
102747.907792
102747.639895
102747.309976
102747.404486
102747.060681
102747.207751
102746.678906
102748.615669
102750.13784
102753.96742
102756.876944
102759.819002
102762.067101
102743.810268
102743.740313
102743.676852
102743.62641
102743.625836
102743.438258
102743.20224
102743.111057
102743.254248
102743.197905
102743.5999
102742.963371
102744.511231
102837.436741
102837.77253
102837.139226
102837.445929
102837.430902
102837.595563
102837.27079
102837.404547
102836.950488
102837.05577
102836.340732
102836.426764
102835.560678
102835.634265
102834.66254
102834.724407
102833.698299
102833.751936
102832.681824
102832.731837
102831.582358
102831.633371
102830.317055
102830.371776
102828.757352
102828.815451
102826.759582
102826.817654
102824.213232
102824.264575
102821.095514
102821.136479
102817.519486
102817.551025
102813.741388
102813.766868
102810.110192
102810.138443
102806.893116
102806.930471
102804.080611
102804.127421
102801.220404
102801.26851
102797.511273
102797.560583
102792.445403
102792.495966
102786.042676
102786.099244
102778.808873
102778.862291
102771.109794
102771.16974
102762.610943
102762.682474
)
;

boundaryField
{
    inletfuel
    {
        type            zeroGradient;
    }
    inletair
    {
        type            zeroGradient;
    }
    outlet
    {
        type            fixedValue;
        value           nonuniform 0();
    }
    axis
    {
        type            empty;
    }
    leftside
    {
        type            zeroGradient;
    }
    burnerwall
    {
        type            zeroGradient;
    }
    front
    {
        type            wedge;
    }
    back
    {
        type            wedge;
    }
    procBoundary0to1
    {
        type            processor;
        value           nonuniform List<scalar> 
27
(
102735.938432
102735.948363
102735.947491
102735.949757
102744.365244
102745.408248
102745.766669
102747.188268
102749.219385
102751.209725
102753.156943
102735.971138
102735.88098
102735.761825
102735.564108
102735.269173
102735.18543
102734.793693
102735.012854
102734.977825
102734.828461
102734.97688
102734.804441
102744.365244
102735.048369
102753.552113
102753.591554
)
;
    }
}


// ************************************************************************* //
