/*--------------------------------*- C++ -*----------------------------------*\
  =========                 |
  \\      /  F ield         | OpenFOAM: The Open Source CFD Toolbox
   \\    /   O peration     | Website:  https://openfoam.org
    \\  /    A nd           | Version:  7
     \\/     M anipulation  |
\*---------------------------------------------------------------------------*/
FoamFile
{
    version     2.0;
    format      ascii;
    class       volScalarField;
    location    "0.07";
    object      PaSR<psiReactionThermo>:kappa;
}
// * * * * * * * * * * * * * * * * * * * * * * * * * * * * * * * * * * * * * //

dimensions      [0 0 0 0 0 0 0];

internalField   nonuniform List<scalar> 
814
(
5.68147680108e-12
7.87627711447e-12
2.56709939311e-11
6.95105093168e-12
9.30473497211e-12
2.46724448312e-11
7.62298639269e-12
1.03708300219e-11
2.4203389542e-11
8.9831156845e-12
1.3986587441e-11
3.56878589813e-11
1.07229971886e-11
1.78428681312e-11
3.91489421143e-11
1.28817030771e-11
2.12515216368e-11
3.8160213064e-11
1.50665264423e-11
2.34707896836e-11
3.56559188616e-11
1.69170778489e-11
2.44423692461e-11
3.27246442115e-11
1.82136987251e-11
2.44008039997e-11
2.97604812529e-11
1.88468064186e-11
2.35905706814e-11
2.69404355379e-11
1.88307284645e-11
2.22610256013e-11
2.43738802948e-11
1.82876264933e-11
2.06549736964e-11
2.20734111125e-11
1.73797595377e-11
1.89530440154e-11
1.99666875072e-11
1.62334687213e-11
1.72381435056e-11
1.79577716204e-11
1.48763195109e-11
1.54786770394e-11
1.59297166469e-11
1.32316548987e-11
1.35426513769e-11
1.37286894611e-11
1.12031040763e-11
1.13053820149e-11
1.1260280458e-11
8.90005131518e-12
8.88997596719e-12
8.74666101499e-12
6.9192599512e-12
6.91580243873e-12
6.85549269071e-12
5.6389441785e-12
5.6500167573e-12
5.63482355922e-12
4.45328191937e-12
4.4447210525e-12
4.40948916005e-12
3.58277994922e-12
3.58527785712e-12
3.58296907529e-12
3.23271272658e-12
3.23338127397e-12
3.22876260925e-12
3.09553133924e-12
3.09084290001e-12
3.07576611316e-12
3.0428385249e-12
3.03356429649e-12
3.01100517503e-12
2.99217355489e-12
2.98218628946e-12
2.95711186936e-12
2.88731493726e-12
2.8781583037e-12
2.85704578508e-12
2.71939441937e-12
2.71545521208e-12
2.70459371336e-12
2.67011347548e-12
2.67254469093e-12
2.67731566577e-12
2.9336446814e-12
2.93234357254e-12
2.92604611434e-12
2.63118362562e-12
2.62261599602e-12
2.60289350083e-12
1.83568508738e-12
1.83235678132e-12
1.82261563265e-12
2.80581067319e-12
2.93633671274e-11
3.20400799097e-11
3.14292916553e-11
2.96490536733e-11
2.74968540659e-11
2.5303192689e-11
2.32519663558e-11
2.13649282533e-11
1.95463511867e-11
1.76922094477e-11
1.56890277587e-11
1.34092835667e-11
1.08498371207e-11
8.38953910992e-12
6.69664379351e-12
5.54607762024e-12
4.33431515675e-12
3.56352901365e-12
3.20766193013e-12
3.04370573702e-12
2.97150391548e-12
2.91545789582e-12
2.82164188199e-12
2.68535136642e-12
2.68084396768e-12
2.91632173164e-12
2.57713147152e-12
1.80926588431e-12
3.17057338921e-13
1.546889871e-13
1.30878101694e-13
1.23268611687e-13
1.13473392063e-13
1.02592182231e-13
9.04862747059e-14
7.93380171026e-14
6.93058709705e-14
6.08821605812e-14
5.3670593598e-14
4.77744575458e-14
4.28126914475e-14
3.89704012967e-14
3.58030555761e-14
3.35993292123e-14
3.18189706256e-14
3.07651639259e-14
3.11791959763e-14
1.01498087887e-13
4.11401118785e-13
3.91995119588e-13
2.97996183754e-13
2.14185817089e-13
1.6805473579e-13
1.35482747877e-13
1.10527438938e-13
9.09156642288e-14
7.57057001284e-14
6.41977629485e-14
5.53835371788e-14
4.85840330198e-14
4.32068846781e-14
3.90989220011e-14
3.58770243241e-14
3.35789396231e-14
3.1872560689e-14
3.08345146061e-14
3.23247568967e-14
1.03080147609e-13
9.32490222768e-13
1.35034124694e-12
1.03633566735e-12
4.85995858058e-13
2.88189668639e-13
1.98408016328e-13
1.42774292189e-13
1.07194674386e-13
8.38869308561e-14
6.841286001e-14
5.76676937899e-14
4.98915678661e-14
4.40068599622e-14
3.95946740799e-14
3.62070925912e-14
3.37815062484e-14
3.20229346139e-14
3.09781217768e-14
3.31162789462e-14
1.04477929788e-13
4.99960739496e-12
2.05804533969e-12
1.54168208436e-12
1.44560976411e-12
8.53970490825e-13
3.84287823083e-13
2.18420667931e-13
1.40515067695e-13
9.86057707036e-14
7.51960738499e-14
6.11073585172e-14
5.18371881034e-14
4.52101072587e-14
4.03920700416e-14
3.67463233583e-14
3.41601107308e-14
3.2278551699e-14
3.12388036767e-14
3.39184310139e-14
1.1986049037e-13
1.08871554013e-11
4.37960447809e-12
2.40228563198e-12
1.49948960434e-12
1.41961352043e-12
1.03852206395e-12
4.66562168405e-13
2.1883338319e-13
1.26115970667e-13
8.58999700827e-14
6.58205587927e-14
5.42101815982e-14
4.65577747973e-14
4.1241700575e-14
3.73031007592e-14
3.45546589069e-14
3.25471666126e-14
3.15269430508e-14
3.47249974424e-14
1.31034380308e-13
1.47256556668e-11
6.40763446081e-12
3.15155929718e-12
1.72698959326e-12
1.48863695802e-12
1.27944366746e-12
6.49966087178e-13
2.87656789668e-13
1.5581126464e-13
9.98136721474e-14
7.21903549184e-14
5.72266714535e-14
4.81239733121e-14
4.2147398291e-14
3.78681333126e-14
3.49361631131e-14
3.28111914334e-14
3.1782393895e-14
3.57349147339e-14
1.43980286762e-13
1.67805031444e-11
8.05913037761e-12
3.73688309352e-12
1.81376876768e-12
1.50687456203e-12
1.24793552711e-12
6.75197393099e-13
3.27155815028e-13
1.84086510319e-13
1.1645930172e-13
8.0528411931e-14
6.11248061239e-14
5.00175542082e-14
4.31450040212e-14
3.84483192874e-14
3.53005934442e-14
3.30603626843e-14
3.19994799842e-14
3.69079837292e-14
1.54402503015e-13
1.81393709367e-11
9.7346291317e-12
4.53842062956e-12
1.93246930414e-12
1.55847801437e-12
1.24917900954e-12
7.19450949035e-13
3.73786868223e-13
2.16305484026e-13
1.35678305033e-13
9.08424032373e-14
6.61112703499e-14
5.23915186847e-14
4.43234803563e-14
3.90893031435e-14
3.56820598724e-14
3.33161990554e-14
3.22318041371e-14
3.81497397663e-14
1.61336059085e-13
1.8829883935e-11
1.11083536521e-11
5.42138481749e-12
2.18057724138e-12
1.62491174652e-12
1.28948111446e-12
8.04302851569e-13
4.34269189508e-13
2.52634587397e-13
1.56653004981e-13
1.02756314112e-13
7.22775242745e-14
5.53836783775e-14
4.57751093501e-14
3.98366516438e-14
3.61069853001e-14
3.35929503402e-14
3.25080440439e-14
3.94210457073e-14
1.64941939622e-13
1.89255749881e-11
1.21124094276e-11
6.28144518263e-12
2.62958385569e-12
1.72414309311e-12
1.33758303816e-12
9.03911943148e-13
5.05373479917e-13
2.91438634887e-13
1.78958523629e-13
1.15962755936e-13
7.96547879382e-14
5.91180169458e-14
4.75891644785e-14
4.07345914471e-14
3.65916306153e-14
3.38952518115e-14
3.28270280372e-14
4.07205764523e-14
1.66383856726e-13
1.85503799071e-11
1.27301033029e-11
7.02557877304e-12
3.01592265269e-12
1.81574357939e-12
1.37013913418e-12
9.71380928766e-13
5.73039841727e-13
3.2989039151e-13
2.02324689955e-13
1.30152690597e-13
8.81568602479e-14
6.36915967425e-14
4.98572020498e-14
4.18364878912e-14
3.71561597687e-14
3.42293789282e-14
3.31849094123e-14
4.20700585042e-14
1.66364272001e-13
1.78220924599e-11
1.28636245542e-11
7.5818590977e-12
3.26590289943e-12
1.84350551211e-12
1.37425230034e-12
9.95161050686e-13
6.27060253935e-13
3.68725468863e-13
2.26872922108e-13
1.45469941742e-13
9.77234051499e-14
6.91676854864e-14
5.26707028143e-14
4.32061927803e-14
3.78312134757e-14
3.46083676626e-14
3.35846433087e-14
4.34944428958e-14
1.65303348142e-13
1.68029061337e-11
1.24716755627e-11
7.76498644216e-12
3.45217307829e-12
1.82240616056e-12
1.37855791445e-12
1.0120905493e-12
6.76679254401e-13
4.12228626953e-13
2.54143237377e-13
1.62483100837e-13
1.08320605811e-13
7.556234158e-14
5.6112594946e-14
4.49115126871e-14
3.86556389599e-14
3.50504736041e-14
3.4031626183e-14
4.4988313733e-14
1.63453713217e-13
1.54530340988e-11
1.1582080731e-11
7.32093639872e-12
3.36056404907e-12
1.78213226929e-12
1.43908952962e-12
1.09239660144e-12
7.59917908283e-13
4.75056011577e-13
2.89119802032e-13
1.82492006206e-13
1.20255261872e-13
8.2886113307e-14
6.02388659234e-14
4.70136420644e-14
3.96711797482e-14
3.5577039197e-14
3.45311218977e-14
4.65418571884e-14
1.6102635394e-13
1.37012838283e-11
1.01764056718e-11
6.36508395282e-12
3.08339377302e-12
1.85647107058e-12
1.60109259679e-12
1.27886414724e-12
9.16794684358e-13
5.83777249729e-13
3.43611049727e-13
2.08898027053e-13
1.34370497113e-13
9.12169722393e-14
6.50741920655e-14
4.95590757051e-14
4.09176359657e-14
3.62114600744e-14
3.50882493573e-14
4.81023682691e-14
1.58213265358e-13
1.15261189025e-11
8.39670816566e-12
5.25322258814e-12
2.8881349327e-12
2.01892092501e-12
1.81784828231e-12
1.53568370805e-12
1.15171913291e-12
7.60670626587e-13
4.36979351579e-13
2.47770572227e-13
1.52244206914e-13
1.0066709501e-13
7.05608413058e-14
5.2562372393e-14
4.24274191926e-14
3.69780814709e-14
3.57089969269e-14
4.95952367482e-14
1.55184792743e-13
9.19033207967e-12
6.78464569864e-12
4.586652209e-12
2.98108667074e-12
2.21221176037e-12
2.05587245025e-12
1.79743657141e-12
1.41156917173e-12
9.83863651244e-13
5.79792205496e-13
3.06673072909e-13
1.75273770666e-13
1.11400839568e-13
7.66003468724e-14
5.59881074447e-14
4.42186987035e-14
3.78998108373e-14
3.64007817294e-14
5.09648791405e-14
1.5204134635e-13
7.29267133086e-12
5.79047768888e-12
4.34292217741e-12
3.11591525657e-12
2.33305445606e-12
2.15902870434e-12
1.99924316591e-12
1.63008518906e-12
1.18918766754e-12
7.38200649432e-13
3.81231511627e-13
2.01817543467e-13
1.22717021639e-13
8.28621647613e-14
5.97360903741e-14
4.62939333954e-14
3.89987181421e-14
3.71729975026e-14
5.21789514158e-14
1.48824057467e-13
6.16844296983e-12
5.18822011877e-12
4.10153057293e-12
3.06824861663e-12
2.31059030215e-12
2.11612963823e-12
2.0892248808e-12
1.75154753973e-12
1.29741891317e-12
8.31296000989e-13
4.39088958043e-13
2.24864648421e-13
1.33375832577e-13
8.90625637074e-14
6.37300772801e-14
4.86607410189e-14
4.02998654476e-14
3.80378508693e-14
5.32226289445e-14
1.45559554164e-13
5.16422832743e-12
4.43717110021e-12
3.61200754238e-12
2.76117514034e-12
2.12010236036e-12
1.98922440169e-12
2.05576627586e-12
1.73310973638e-12
1.26194611397e-12
8.01068497502e-13
4.34823071086e-13
2.32659329026e-13
1.41522952214e-13
9.52228404807e-14
6.81141705209e-14
5.14092772865e-14
4.18638804659e-14
3.90214169988e-14
5.4096158045e-14
1.42249614664e-13
4.11729451005e-12
3.68229698029e-12
3.05560201139e-12
2.3777267744e-12
1.90761340848e-12
1.84564022719e-12
1.90594388804e-12
1.47860327161e-12
1.01096969819e-12
6.4483234338e-13
3.87647282561e-13
2.34579419785e-13
1.51350489333e-13
1.03312036278e-13
7.37146296022e-14
5.48759477509e-14
4.38193011883e-14
4.01711142329e-14
5.48160958082e-14
1.38926737389e-13
3.47556288106e-12
3.1502284904e-12
2.63459526762e-12
2.0903795314e-12
1.7564395757e-12
1.71705459824e-12
1.6337694799e-12
1.08602059242e-12
7.16384840943e-13
5.28050239281e-13
3.78123953561e-13
2.58224285129e-13
1.73763999348e-13
1.18301356511e-13
8.25807661114e-14
5.98694453927e-14
4.64609611358e-14
4.15839561888e-14
5.54296087109e-14
1.35623266041e-13
3.12740960401e-12
2.83572920394e-12
2.39614900797e-12
1.9529993528e-12
1.64569814555e-12
1.52328888367e-12
1.31489515081e-12
9.02365960969e-13
6.84095972247e-13
5.66745948944e-13
4.5561699647e-13
3.35503566111e-13
2.28868964252e-13
1.50684043953e-13
9.93169036493e-14
6.81356439249e-14
5.03992469111e-14
4.34517381825e-14
5.60296021959e-14
1.32402884248e-13
2.95216857574e-12
2.68273368876e-12
2.29030719348e-12
1.87546977018e-12
1.54523431545e-12
1.34599516678e-12
1.11953171236e-12
8.52864204264e-13
7.32856328691e-13
6.70259201211e-13
5.91089386096e-13
4.76270584944e-13
3.42614793809e-13
2.21021519213e-13
1.34216565934e-13
8.3390690919e-14
5.67942053902e-14
4.61119403091e-14
5.6776215427e-14
1.29396504528e-13
2.87257620822e-12
2.61320664263e-12
2.23791397716e-12
1.83114721433e-12
1.48403582845e-12
1.23698449734e-12
1.03777994765e-12
8.69519472414e-13
7.95610137176e-13
7.67449174079e-13
7.21191794851e-13
6.33644004783e-13
5.06000634265e-13
3.49617173671e-13
2.05444169695e-13
1.1295104089e-13
6.77963564617e-14
5.01804758143e-14
5.79165194365e-14
1.26815712573e-13
2.81509011346e-12
2.56619911913e-12
2.21340120213e-12
1.82849591423e-12
1.489175864e-12
1.23219752483e-12
1.06117792285e-12
9.46048914877e-13
8.84000025444e-13
8.60021292035e-13
8.32351289545e-13
7.68227269527e-13
6.62332792627e-13
5.13290328715e-13
3.27894305932e-13
1.6914565785e-13
8.69868676273e-14
5.6484222766e-14
5.98137178134e-14
1.24930484148e-13
2.73627694098e-12
2.52275162196e-12
2.21829678707e-12
1.88632811191e-12
1.60150785227e-12
1.38963841371e-12
1.23218123274e-12
1.11151101732e-12
1.02057269209e-12
9.60890027272e-13
9.26052301047e-13
8.84298664263e-13
7.93453021911e-13
6.59408557869e-13
4.77027613412e-13
2.58883220768e-13
1.17945613501e-13
6.58861246024e-14
6.29244430024e-14
1.2405904599e-13
2.63437064656e-12
2.49415809311e-12
2.288062078e-12
2.06134192021e-12
1.84548678949e-12
1.65612986956e-12
1.49000835495e-12
1.33724350489e-12
1.19491745202e-12
1.07455696249e-12
9.96550267452e-13
9.7105700282e-13
9.03720987593e-13
7.72491027831e-13
6.0847278741e-13
3.71298380267e-13
1.62635579676e-13
7.87788620928e-14
6.76867455896e-14
1.24492529785e-13
2.6805962766e-12
2.63659886115e-12
2.52946401479e-12
2.35754917652e-12
2.14480258473e-12
1.91944956319e-12
1.70020282425e-12
1.49345209895e-12
1.30158835767e-12
1.13262413587e-12
1.01604776462e-12
9.96090074079e-13
9.75964652724e-13
8.45649713414e-13
6.82078713854e-13
4.48743837698e-13
2.02054477864e-13
9.21419805225e-14
7.41916217184e-14
1.2636639839e-13
2.88331868751e-12
2.78786822681e-12
2.63610016942e-12
2.4344257175e-12
2.19949494435e-12
1.95303492883e-12
1.71289147444e-12
1.48836790297e-12
1.28311325997e-12
1.10010996905e-12
9.64110376797e-13
9.42135497987e-13
9.71821475755e-13
8.63486999353e-13
6.91591053896e-13
4.54831030321e-13
2.08723844644e-13
1.00490727432e-13
8.25124117345e-14
1.29663137178e-13
2.51792865169e-12
2.40431154035e-12
2.2539892017e-12
2.07686876179e-12
1.88633699486e-12
1.69518782062e-12
1.50927936238e-12
1.33104803203e-12
1.16231100957e-12
1.01234606971e-12
8.94834169949e-13
8.6129418847e-13
8.88948360428e-13
7.93288800492e-13
6.22187803306e-13
3.867377284e-13
1.83700978061e-13
1.05410989657e-13
9.36357790544e-14
1.34177868805e-13
1.7786994436e-12
1.72012768752e-12
1.64683433422e-12
1.56324115783e-12
1.46995499095e-12
1.36451301e-12
1.24424532006e-12
1.12037372359e-12
9.9310888862e-13
8.65789739761e-13
7.72672328917e-13
7.57987390111e-13
7.65131287351e-13
1.89946693206e-13
3.69241747905e-13
4.78590181541e-13
3.75294375772e-13
5.02551113558e-13
3.77641982968e-13
4.91708595002e-13
3.77377972353e-13
4.68149760914e-13
3.76368838641e-13
4.40221672417e-13
3.75001701304e-13
4.13732811066e-13
3.7343371253e-13
3.897399305e-13
3.71709442689e-13
3.68774015897e-13
3.6984117818e-13
3.50628950767e-13
3.6783381395e-13
3.34988241436e-13
3.65686452097e-13
3.21481179326e-13
3.6339520517e-13
3.09757893328e-13
3.60964864915e-13
2.99530136746e-13
3.58408641584e-13
2.90591571519e-13
3.55735621856e-13
2.82750834695e-13
3.52964937765e-13
2.75883007943e-13
3.50139766953e-13
2.69902759569e-13
3.47326145042e-13
2.64730916828e-13
3.4461704941e-13
2.60304370616e-13
3.42138841311e-13
2.56609955069e-13
3.40023054799e-13
2.53693123676e-13
3.3839109099e-13
2.5175429301e-13
3.37277500117e-13
2.50949246984e-13
3.36654244737e-13
2.51405108679e-13
3.36405668162e-13
2.53061089793e-13
3.36380131922e-13
2.55516400996e-13
3.36418210628e-13
2.58090882699e-13
3.3644912756e-13
)
;

boundaryField
{
    inletfuel
    {
        type            calculated;
        value           uniform 0;
    }
    inletair
    {
        type            calculated;
        value           uniform 0;
    }
    outlet
    {
        type            calculated;
        value           nonuniform 0();
    }
    axis
    {
        type            empty;
    }
    leftside
    {
        type            calculated;
        value           uniform 0;
    }
    burnerwall
    {
        type            calculated;
        value           uniform 0;
    }
    front
    {
        type            wedge;
    }
    back
    {
        type            wedge;
    }
    procBoundary0to1
    {
        type            processor;
        value           uniform 0;
    }
}


// ************************************************************************* //
