/*--------------------------------*- C++ -*----------------------------------*\
  =========                 |
  \\      /  F ield         | OpenFOAM: The Open Source CFD Toolbox
   \\    /   O peration     | Website:  https://openfoam.org
    \\  /    A nd           | Version:  7
     \\/     M anipulation  |
\*---------------------------------------------------------------------------*/
FoamFile
{
    version     2.0;
    format      ascii;
    class       surfaceScalarField;
    location    "0.07";
    object      phi;
}
// * * * * * * * * * * * * * * * * * * * * * * * * * * * * * * * * * * * * * //

dimensions      [1 0 -1 0 0 0 0];

internalField   nonuniform List<scalar> 
1567
(
-3.68608038088e-09
9.00900672798e-08
-1.42384851125e-08
2.69743596556e-07
4.17823232724e-07
9.67549433497e-10
8.89827561477e-08
-3.0423223328e-09
2.73332658366e-07
4.14075736977e-07
-1.24255429561e-09
9.01330760481e-08
-8.10256498094e-09
2.79917602255e-07
4.05516627241e-07
-3.34282818042e-09
9.33757467001e-08
5.27880510818e-10
2.75753538434e-07
3.76818638893e-07
2.87892323589e-08
1.58751999776e-09
9.16828166209e-08
1.86303612354e-08
2.58393038234e-07
3.56314809274e-07
3.86326311332e-08
1.25884571021e-09
9.03141752042e-08
7.67331042334e-09
2.51636507282e-07
3.39727767989e-07
2.369254791e-08
1.88314229635e-10
9.00127095069e-08
5.4061244563e-09
2.46050899842e-07
3.29791539003e-07
1.47112205075e-08
1.22378209658e-09
8.86705504901e-08
6.51979037084e-09
2.40353334132e-07
3.20811845975e-07
1.47717668613e-08
2.1004968295e-09
8.64404098636e-08
8.78982401224e-09
2.33211829137e-07
3.11692001103e-07
1.70890135587e-08
2.98423454861e-09
8.33077331097e-08
1.21816554651e-08
2.23510426387e-07
3.0198639123e-07
2.10603559998e-08
4.31330556693e-09
7.88279610008e-08
1.59735376791e-08
2.11336395269e-07
2.90191841323e-07
2.70678663048e-08
5.80012951609e-09
7.2863974552e-08
1.98507694105e-08
1.968482578e-07
2.74897488329e-07
3.46943560944e-08
7.18618029875e-09
6.55589110245e-08
2.41448103236e-08
1.79634467227e-07
2.5480144902e-07
4.41286471828e-08
8.47423921465e-09
5.7055683342e-08
2.95820570746e-08
1.58537041266e-07
2.28020705364e-07
5.66222422348e-08
9.44384341522e-09
4.76847921558e-08
3.45698625102e-08
1.33679950318e-07
1.94671562427e-07
6.84538312308e-08
9.66089807651e-09
3.81462472511e-08
3.59841986962e-08
1.07711996752e-07
1.58417132241e-07
7.27435361399e-08
8.77845311656e-09
2.94553324071e-08
3.311787697e-08
8.35832168262e-08
1.2390845485e-07
6.77894182346e-08
7.42437833428e-09
2.20601643107e-08
2.83197227623e-08
6.27161579936e-08
9.28757897633e-08
5.92061115803e-08
7.19801661168e-09
1.48571088454e-08
2.82536806648e-08
4.15890308552e-08
6.00464298143e-08
6.07662807063e-08
7.67180686066e-09
7.08960218346e-09
2.97514987377e-08
1.91641045622e-08
2.54949884346e-08
6.35480650663e-08
5.83171683338e-09
1.08649181945e-09
2.21726027312e-08
2.28026479984e-09
2.02745067448e-10
4.6444476947e-08
2.35460094106e-09
-1.44745671126e-09
8.77767853652e-09
-4.71979285035e-09
-9.97323776511e-09
1.78769439098e-08
-1.93109857817e-10
-1.50024858797e-09
-9.56635403014e-10
-4.73116210499e-09
-9.41512144956e-09
-2.94776587644e-09
-1.63147948478e-09
-1.81803987668e-10
-6.63999977079e-09
-7.07138554912e-10
-2.41283630186e-09
-1.54174095367e-08
-2.62176996681e-09
2.0774512233e-09
-1.03849925241e-08
5.93084706422e-09
8.61777670592e-09
-2.34311352294e-08
-3.18517654246e-09
4.88347783265e-09
-1.2940820839e-08
1.45116900069e-08
2.27894331335e-08
-2.91746565311e-08
-2.74641076398e-09
7.27272376657e-09
-1.07222121596e-08
2.13941825556e-08
3.40879104646e-08
-2.39322842197e-08
-1.09285889962e-09
8.03562623209e-09
-4.55818988661e-09
2.38494656091e-08
3.80631849538e-08
-1.02615537461e-08
4.62159841492e-09
3.08050837224e-09
1.83653291101e-08
9.09973822429e-09
1.33872128883e-08
4.13257146059e-08
1.0381546984e-08
-7.89026448466e-09
4.10230214446e-08
-2.33315883426e-08
-3.98298939383e-08
9.11977520083e-08
1.04118243857e-08
-1.95202608929e-08
4.08346482479e-08
-5.74169421467e-08
-9.55147420989e-08
9.03577257524e-08
5.2281082383e-09
2.1229263233e-08
4.7477122273e-08
2.29396822673e-07
-2.04667281035e-07
2.44770932162e-07
2.29083696523e-08
2.52045473718e-07
1.62418960606e-08
2.64111861063e-07
2.18125628738e-09
2.71777445909e-07
6.36930188214e-09
2.75102457103e-07
1.29665475913e-08
2.74915461643e-07
2.05960688545e-08
2.70703943717e-07
3.08590437388e-08
2.61471898441e-07
4.37930884538e-08
2.4580600897e-07
5.99803543138e-08
2.2235762701e-07
8.05438599814e-08
1.91487422939e-07
9.9915427277e-08
1.57243597527e-07
1.07354430633e-07
1.23959279659e-07
1.00970502176e-07
9.25475868774e-08
9.01652662567e-08
5.74944312983e-08
9.51439939397e-08
2.05521273407e-08
9.93489526556e-08
-5.71239822791e-09
7.13600690498e-08
-1.54123621436e-08
2.60796437362e-08
-1.38511843795e-08
-6.42529595827e-09
-5.11541186983e-09
-2.64870869833e-08
8.06038668985e-09
-3.92099634286e-08
2.5025693891e-08
-4.87678430029e-08
3.8215516954e-08
-3.95246161795e-08
4.28523921643e-08
-1.7045638665e-08
1.30356159596e-08
6.90410316078e-08
-4.96989100543e-08
1.50175976141e-07
-1.14780784983e-07
1.47981044446e-07
7.86729189658e-08
2.08760935046e-07
6.61050326682e-07
3.84430563423e-07
1.21368258318e-06
6.12292542017e-07
1.80886271732e-06
9.05234317099e-07
2.54568423022e-06
1.26165457696e-06
3.47048320844e-06
1.58400581321e-06
4.71721645907e-06
1.89799514208e-06
6.20799413338e-06
2.15721737618e-06
8.06885480825e-06
2.3902039013e-06
1.02890294408e-05
2.58371161858e-06
1.2986386338e-05
2.74864572328e-06
1.62244539863e-05
2.85822771496e-06
2.01479840645e-05
2.90863437012e-06
2.48653541544e-05
2.89656927828e-06
3.05374273858e-05
2.78531505903e-06
3.73767019444e-05
2.62063312956e-06
4.55062420393e-05
2.25121367266e-06
5.53774180682e-05
1.80953251242e-06
6.70041716425e-05
8.30486465683e-07
8.1334815788e-05
9.76555277156e-05
3.48171262032e-07
2.49709151137e-07
7.20662394577e-07
7.97799744244e-07
1.46442877927e-06
1.01433178553e-06
1.78706085754e-06
2.14105753625e-06
2.18536332732e-06
2.95767152177e-06
2.42036434823e-06
4.32851968112e-06
2.70990527522e-06
5.72000794867e-06
2.94630766979e-06
7.58085990139e-06
3.16761416658e-06
9.75325412563e-06
3.34884044209e-06
1.24149490454e-05
3.49107156297e-06
1.56032266273e-05
3.57509451348e-06
1.94766853969e-05
3.59310253173e-06
2.41266379377e-05
3.53231912721e-06
2.97187572678e-05
3.37085487223e-06
3.64758606848e-05
3.1235106683e-06
4.44735702438e-05
2.68554053343e-06
5.4269686623e-05
2.13313014119e-06
6.56856186581e-05
7.9166345221e-07
8.04094527841e-05
9.57121041876e-05
-1.90684141521e-07
4.37252040887e-07
-2.26979586447e-08
5.63521685745e-07
1.76958118568e-07
6.64431527137e-07
7.73441262608e-07
1.4425837761e-06
1.43137405663e-06
2.2715550565e-06
1.7641308118e-06
3.91229610324e-06
2.04203946755e-06
5.32040580324e-06
2.19668016791e-06
7.26729594517e-06
2.33506236776e-06
9.4185073975e-06
2.43897957111e-06
1.20661477785e-05
2.51139794406e-06
1.52305685815e-05
2.54743377628e-06
1.90744503403e-05
2.54192708327e-06
2.3683875887e-05
2.48486441479e-06
2.92271997696e-05
2.36668835579e-06
3.59298982383e-05
2.19070155463e-06
4.38497785851e-05
1.903430216e-06
5.35927321415e-05
1.52996454711e-06
6.48931764461e-05
4.82202541981e-07
8.00478926192e-05
9.44924275883e-05
-1.94376498076e-07
3.63759516238e-07
6.49630372564e-08
9.94783991125e-08
4.18078199273e-07
1.6604822501e-07
1.24747725683e-06
5.62537694923e-07
1.72676858955e-06
1.98622556616e-06
2.32374780663e-06
3.36285184811e-06
2.57345790446e-06
5.05375633438e-06
2.67831918596e-06
6.99050266456e-06
2.75321895035e-06
9.12722309275e-06
2.80631758091e-06
1.17404959236e-05
2.83532883627e-06
1.48643263958e-05
2.83614788824e-06
1.86629222502e-05
2.80182015629e-06
2.32164094757e-05
2.71991338006e-06
2.86939040308e-05
2.58529596511e-06
3.53177533896e-05
2.39493017863e-06
4.31400090547e-05
2.12146911037e-06
5.27818934721e-05
1.74730359333e-06
6.39579184227e-05
1.12040159412e-06
7.90948509947e-05
9.50617128549e-05
-1.36450239974e-06
-9.58700000198e-10
3.76817473393e-07
2.81820895424e-09
6.35589294578e-08
7.26552136834e-08
3.16331403599e-08
3.47672152649e-07
1.56782664507e-07
1.22996547205e-06
9.01074619543e-07
2.31744538657e-06
2.35421764999e-06
2.885658675e-06
4.59358738407e-06
3.13053371726e-06
6.75909803449e-06
3.16455059341e-06
8.87456471925e-06
3.14005326111e-06
1.14799651913e-05
3.11509931136e-06
1.45286352508e-05
3.07484587439e-06
1.82622306403e-05
3.00911307601e-06
2.27437618749e-05
2.90284823181e-06
2.81392868564e-05
2.75474246488e-06
3.46613173453e-05
2.55553485395e-06
4.2367689823e-05
2.32024118955e-06
5.18472234588e-05
2.0343563466e-06
6.28334656441e-05
1.92577201837e-06
7.75044660893e-05
9.23215716752e-05
2.63789029288e-06
-1.09667136432e-08
3.98649555295e-07
-1.42752345787e-08
5.67590181817e-08
1.09946233035e-07
-8.21860471729e-08
3.56301679366e-07
5.99977106692e-08
1.02153521703e-06
7.26919271068e-07
2.2562903038e-06
1.95052672936e-06
3.15752305862e-06
4.28270353357e-06
3.58135577215e-06
6.44278775479e-06
3.65756941968e-06
8.71121274484e-06
3.59511111854e-06
1.12398572594e-05
3.5163463894e-06
1.42314784949e-05
3.44035244902e-06
1.78751289785e-05
3.34313466795e-06
2.22753820945e-05
3.20900078343e-06
2.75789645176e-05
3.03988743563e-06
3.39832045716e-05
2.82129660808e-06
4.15608899463e-05
2.60783352821e-06
5.08253844297e-05
2.3707096864e-06
6.15841023891e-05
2.66405985706e-06
7.54239467277e-05
8.85024566452e-05
4.34419474079e-06
-3.07478160815e-08
4.27452702212e-07
-6.08455155415e-08
7.91148451158e-08
2.50498069793e-08
-1.51333585585e-07
3.35014849338e-07
-2.95191667402e-08
1.14395139866e-06
5.71674731107e-07
2.32493456005e-06
1.87314022855e-06
3.41048319035e-06
3.99708553267e-06
3.96293912329e-06
6.12884239159e-06
4.13700417147e-06
8.48999812958e-06
4.12761073291e-06
1.09630092904e-05
4.01169989337e-06
1.39592080798e-05
3.90459264986e-06
1.75011918448e-05
3.77560339176e-06
2.18160419337e-05
3.60867025871e-06
2.70240347234e-05
3.40999584379e-06
3.33004422149e-05
3.1604193681e-06
4.07410697384e-05
2.94361304407e-06
4.97520032782e-05
2.69989104713e-06
6.02766503444e-05
3.22432865084e-06
7.30388016244e-05
8.48221634404e-05
4.6745276835e-06
-3.27398696441e-08
4.63598125005e-07
-7.53430779263e-08
1.17213386092e-07
-3.1851415738e-08
-1.92637865371e-07
2.71403948124e-07
-1.13746805794e-07
1.03231311098e-06
3.24650020469e-07
2.24954481955e-06
1.50231108142e-06
3.45010748655e-06
3.48744145535e-06
4.21237567849e-06
5.66025643846e-06
4.55970645896e-06
8.09127007146e-06
4.68028991678e-06
1.06796755471e-05
4.56183103434e-06
1.36690127643e-05
4.41983007936e-06
1.71450261333e-05
4.25769920971e-06
2.13661236979e-05
4.05222646154e-06
2.64791106063e-05
3.81603755549e-06
3.26208927173e-05
3.52610212742e-06
3.99178983293e-05
3.27938304687e-06
4.86523628696e-05
2.98645914266e-06
5.89497811878e-05
3.45027541102e-06
7.06347881521e-05
8.17288751221e-05
4.22054836934e-06
-3.12353934826e-08
5.06630208124e-07
-8.06559107145e-08
1.63829536487e-07
-6.1328740721e-08
-2.19492342193e-07
2.10446470572e-07
-2.3295973623e-07
8.75699524093e-07
5.3264131235e-08
2.01193712856e-06
1.02708675745e-06
3.36421831544e-06
2.75285183309e-06
4.36463163291e-06
5.05744753048e-06
4.95012496959e-06
7.56690894545e-06
5.2017770345e-06
1.03175804226e-05
5.14269333032e-06
1.33309062992e-05
4.97409590569e-06
1.67984969521e-05
4.77022847423e-06
2.09315214218e-05
4.52041907422e-06
2.59460322294e-05
4.23865056777e-06
3.19490689989e-05
3.89952541328e-06
3.90974588306e-05
3.59975798684e-06
4.75456001514e-05
3.22928328918e-06
5.7624291328e-05
3.4653785398e-06
6.8366545649e-05
7.91140842103e-05
3.64827704012e-06
-2.20309059052e-08
5.49805659666e-07
-8.14989766603e-08
2.22372031008e-07
-9.26873684458e-08
-2.21227089966e-07
1.31522182135e-07
-3.56537498988e-07
7.93769832754e-07
-2.39602841338e-07
1.91279478235e-06
5.63900295882e-07
3.29714314064e-06
2.1201747185e-06
4.55741349465e-06
4.38254667432e-06
5.3516874132e-06
7.03377828595e-06
5.75516906097e-06
9.91045284857e-06
5.77060563914e-06
1.29421718228e-05
5.5834587798e-06
1.645702242e-05
5.32188800722e-06
2.05267283063e-05
5.02129548277e-06
2.54275350917e-05
4.68435657705e-06
3.12907003949e-05
4.28632773517e-06
3.82872400661e-05
3.91230759067e-06
4.64515652123e-05
3.44234900764e-06
5.63186980045e-05
3.37874363875e-06
6.62977997298e-05
7.68735545883e-05
3.06406555661e-06
4.45468148421e-09
5.77116994372e-07
-5.10473644191e-08
2.78089851747e-07
-7.97756643208e-08
-2.0247663437e-07
9.53676807994e-08
-4.53982658631e-07
6.82865325838e-07
-4.55510994399e-07
1.74078533654e-06
1.70504831158e-07
3.20799209065e-06
1.53521768338e-06
4.67975817549e-06
3.72902591451e-06
5.75420787673e-06
6.45885512403e-06
6.29505139022e-06
9.39347064687e-06
6.42330630152e-06
1.26148284646e-05
6.25100022463e-06
1.60807411727e-05
5.92542991381e-06
2.01566073507e-05
5.56671966953e-06
2.49278230621e-05
5.16400137033e-06
3.06518651713e-05
4.69559152717e-06
3.74957354507e-05
4.23001440799e-06
4.53874962075e-05
3.64589108793e-06
5.5048028158e-05
3.27998121883e-06
6.44280990854e-05
7.48905529107e-05
2.57507816754e-06
3.95797028208e-08
5.82564487414e-07
7.10854597555e-09
3.09470642328e-07
-2.97876229732e-08
-1.70309785946e-07
8.39566425024e-08
-5.03862022359e-07
6.04008430218e-07
-5.99197866079e-07
1.64809545465e-06
-1.86528916421e-07
3.14313518643e-06
1.03319267367e-06
4.80468633892e-06
3.08811332155e-06
6.131770267e-06
5.84401725653e-06
6.85976527456e-06
8.87570650575e-06
7.11460723659e-06
1.22527100329e-05
6.97984168755e-06
1.56752362618e-05
6.59968304256e-06
1.98138536528e-05
6.16383746906e-06
2.44631450079e-05
5.68358697552e-06
3.00378973532e-05
5.13262290723e-06
3.67286514916e-05
4.56069978534e-06
4.43653724362e-05
3.8526928742e-06
5.38219048514e-05
3.20193479216e-06
6.27387727636e-05
7.30944802262e-05
2.17127190764e-06
8.15553099259e-08
5.62518957724e-07
7.51973203489e-08
3.14342467284e-07
3.81592990817e-08
-1.34069187811e-07
9.54176310592e-08
-5.06350855177e-07
5.25745197082e-07
-6.45088159396e-07
1.52840521449e-06
-4.91016387072e-07
3.02342755968e-06
5.58085770314e-07
4.83738646362e-06
2.41353925632e-06
6.43096613433e-06
5.15184519426e-06
7.43954689686e-06
8.29248688405e-06
7.80714578002e-06
1.17703694211e-05
7.75548987128e-06
1.53727635767e-05
7.33710979362e-06
1.94650525018e-05
6.81754556635e-06
2.40374020207e-05
6.24369863194e-06
2.94572673257e-05
5.59816594526e-06
3.5986972808e-05
4.90915323079e-06
4.33875957965e-05
4.07151704558e-06
5.2641815739e-05
3.16066464031e-06
6.12028397786e-05
7.14258030856e-05
1.86013109311e-06
1.28791944649e-07
5.15715012835e-07
1.43560642725e-07
2.97096937834e-07
1.13061435107e-07
-1.02521193054e-07
1.37688813242e-07
-4.79464039541e-07
4.58011850903e-07
-6.6061463427e-07
1.38999943485e-06
-6.93390999771e-07
2.85314202793e-06
1.44762791138e-07
4.81151149061e-06
1.69732316233e-06
6.67935962299e-06
4.39837918589e-06
7.96975754903e-06
7.66902447451e-06
8.51542145084e-06
1.12889016055e-05
8.54303343798e-06
1.50713463214e-05
8.12443681291e-06
1.91077141808e-05
7.52050015014e-06
2.36516394559e-05
6.84108634516e-06
2.89168789849e-05
6.09348083206e-06
3.52648867441e-05
5.27904859498e-06
4.24486354541e-05
4.30777447612e-06
5.15018752696e-05
3.160167861e-06
5.97921640284e-05
6.98395052612e-05
1.63400375336e-06
1.68726001031e-07
4.47476358034e-07
1.96299876905e-07
2.65346880223e-07
1.76156643174e-07
-8.04381520666e-08
1.95929303453e-07
-4.55619104694e-07
4.10710356973e-07
-7.02716179672e-07
1.17903545318e-06
-7.63045230871e-07
2.66816162385e-06
-1.97304053782e-07
4.69450742157e-06
1.14409723654e-06
6.84585649768e-06
3.66998035468e-06
8.46772342558e-06
7.04075119271e-06
9.23411440718e-06
1.08648589215e-05
9.36236579527e-06
1.47950862667e-05
8.94481027477e-06
1.87627132303e-05
8.25123207361e-06
2.33150009383e-05
7.4694726056e-06
2.84147093219e-05
6.61846853156e-06
3.45544618321e-05
5.67475915735e-06
4.15364074991e-05
4.56692018376e-06
5.0390714763e-05
3.20354067495e-06
5.84779708773e-05
6.83120703167e-05
1.47655873336e-06
1.80159736888e-07
3.73690582204e-07
2.09467356445e-07
2.30258527738e-07
2.03087925499e-07
-7.42069450008e-08
2.36898448687e-07
-4.60708863924e-07
4.11909752236e-07
-7.85756859604e-07
1.01500503241e-06
-8.40833085634e-07
2.4600686091e-06
-4.34589349849e-07
4.58054324336e-06
8.41862598743e-07
6.99075023411e-06
3.22610676185e-06
8.85695404137e-06
6.699887835e-06
9.88228503383e-06
1.05812692523e-05
1.00784026714e-05
1.44886678954e-05
9.73164188297e-06
1.85956186982e-05
9.00527352118e-06
2.29506317074e-05
8.12514248512e-06
2.79471998982e-05
7.17306906768e-06
3.38530244686e-05
6.10057806494e-06
4.0638741502e-05
4.85402340146e-06
4.92956328009e-05
3.28969354291e-06
5.7235666086e-05
6.68303206853e-05
1.37588119463e-06
1.72614903317e-07
2.99668283715e-07
2.21325012915e-07
1.74420319312e-07
2.61635424221e-07
-1.19642680197e-07
3.4530777312e-07
-5.31492392172e-07
5.28403605378e-07
-9.23735734299e-07
9.08242154696e-07
-1.03996416636e-06
2.07671226212e-06
-6.50172307056e-07
4.13830018196e-06
6.24637806845e-07
6.71395430489e-06
3.05661524669e-06
9.02635290722e-06
6.49783040098e-06
1.04282777051e-05
1.04110358826e-05
1.0751993285e-05
1.4381900572e-05
1.04696777272e-05
1.84797422423e-05
9.74674336446e-06
2.25605940399e-05
8.79902624075e-06
2.74801380246e-05
7.75290243946e-06
3.31550287678e-05
6.55951074229e-06
3.97438907306e-05
5.17538903686e-06
4.82046187438e-05
3.41945831823e-06
5.60458352794e-05
6.53867907247e-05
1.32253103212e-06
1.71304175083e-07
2.15095972204e-07
2.58094733875e-07
7.93601619583e-08
3.45061212503e-07
-2.16489352178e-07
4.436098338e-07
-6.30640692509e-07
5.97002333138e-07
-1.06165252505e-06
8.70222483035e-07
-1.25004002318e-06
1.75584848902e-06
-8.92753889672e-07
3.54695808073e-06
4.25781249481e-07
6.16188608828e-06
2.92430236865e-06
8.75506073411e-06
6.48303127886e-06
1.05007917195e-05
1.03933510963e-05
1.10956318015e-05
1.43535390501e-05
1.0956363988e-05
1.81707527684e-05
1.03850660368e-05
2.22218273631e-05
9.42460075307e-06
2.69223731753e-05
8.34904190106e-06
3.23902577609e-05
7.05413847903e-06
3.88308647005e-05
5.53947612273e-06
4.71040883842e-05
3.59480585527e-06
5.48943547562e-05
6.3980694272e-05
1.30160530932e-06
1.98926794097e-07
1.06669296152e-07
3.11463932686e-07
-4.28570393403e-08
4.10904669794e-07
-3.28699081761e-07
5.04950707612e-07
-7.34155950007e-07
6.17283922153e-07
-1.17841733551e-06
8.10373748266e-07
-1.43267328272e-06
1.39073124572e-06
-1.08334426384e-06
2.81629217177e-06
2.16987140235e-07
5.10853455557e-06
2.74063767198e-06
7.79765563687e-06
6.23944493256e-06
9.97851954411e-06
1.00505082831e-05
1.10549825803e-05
1.40240109724e-05
1.12021023542e-05
1.76746604777e-05
1.08439710518e-05
2.1670715648e-05
1.00129644609e-05
2.6159609292e-05
8.94778716271e-06
3.1509922798e-05
7.58791314695e-06
3.78576553408e-05
5.95948738181e-06
4.59693149292e-05
3.82406671268e-06
5.37655554966e-05
6.26019183532e-05
1.31418544431e-06
1.98092877975e-07
2.05756948423e-09
2.89049374569e-07
-1.4431317499e-07
3.53466463582e-07
-4.07576293366e-07
3.85614873739e-07
-7.82591039788e-07
4.15111126594e-07
-1.22938466982e-06
4.8773105941e-07
-1.528005669e-06
9.94932222539e-07
-1.46264304578e-06
2.15251140826e-06
-1.37769000087e-07
3.99568943391e-06
2.58135296464e-06
6.27751083218e-06
5.95458800064e-06
8.4612530513e-06
9.33684933157e-06
1.00918809694e-05
1.29340400699e-05
1.08317627918e-05
1.65628926703e-05
1.10110945033e-05
2.05471170378e-05
1.05084642496e-05
2.497168121e-05
9.57147487301e-06
3.03824893647e-05
8.19484474753e-06
3.67618297035e-05
6.45867133872e-06
4.47784834946e-05
4.12114196664e-06
5.26418744187e-05
6.12272908588e-05
1.36721454462e-06
1.32318912094e-07
-6.47861828577e-08
1.79092749297e-07
-2.02481859629e-07
1.96440576378e-07
-4.42219013885e-07
1.79448051354e-07
-7.91415480819e-07
9.87830516552e-08
-1.18986701802e-06
5.35561703567e-08
-1.55042454201e-06
1.6912800869e-07
-1.72307730058e-06
6.65558859894e-07
-5.36803853875e-07
2.00634525502e-06
1.92987147945e-06
4.25978471409e-06
4.60192860689e-06
6.72754451569e-06
7.51687803894e-06
8.96009339004e-06
1.08080241256e-05
1.03402134132e-05
1.46860870539e-05
1.11197473112e-05
1.86558812128e-05
1.10878253776e-05
2.33474950316e-05
1.03255888631e-05
2.89366756298e-05
8.93232749393e-06
3.55273581139e-05
7.0776067858e-06
4.35134652207e-05
4.51040290719e-06
5.15090974384e-05
5.98458839785e-05
1.45697964949e-06
3.97436680615e-08
-8.54113632185e-08
3.26153395332e-08
-2.08719171466e-07
-9.79597796718e-09
-4.22564819076e-07
-1.33804068471e-07
-7.11306122891e-07
-3.69882754418e-07
-1.04109236453e-06
-7.76542874939e-07
-1.43204321562e-06
-1.25295310967e-06
-1.69983428304e-06
-1.17482052355e-06
-9.92428558332e-07
3.49197978614e-07
4.50596757592e-07
2.55193097251e-06
2.26303411387e-06
5.22921027534e-06
4.67873409188e-06
7.80126663023e-06
7.87829286041e-06
9.99019639457e-06
1.17858144556e-05
1.14061028845e-05
1.60213419998e-05
1.1850387854e-05
2.13096383613e-05
1.13512117343e-05
2.71275480045e-05
9.925111012e-06
3.41537401601e-05
7.87215779957e-06
4.22157468473e-05
5.01639855399e-06
5.03750720726e-05
5.84572769349e-05
1.59477858642e-06
-2.68571805044e-08
-7.35038570726e-08
-7.67719398903e-08
-1.75441871192e-07
-1.87381030564e-07
-3.41208755878e-07
-3.88026884729e-07
-5.58656209896e-07
-7.04591029178e-07
-7.97477675028e-07
-1.25944513836e-06
-1.11762067843e-06
-1.8973605824e-06
-1.36793133761e-06
-1.70383069129e-06
-1.36822375831e-06
-2.36622047249e-07
-9.89775555681e-07
1.38924659444e-06
8.16092262791e-08
3.89772106876e-06
1.4969218693e-06
6.87130979739e-06
4.1917000902e-06
9.84680019822e-06
7.95514700488e-06
1.19936698386e-05
1.27017573973e-05
1.31106140951e-05
1.86294815922e-05
1.28572786044e-05
2.50152921894e-05
1.1321752375e-05
3.27241995328e-05
8.924482379e-06
4.10025159307e-05
5.67089025877e-06
4.93024374173e-05
5.7097018826e-05
1.79487308168e-06
-7.38243429778e-08
-3.61943154977e-08
-1.64378673485e-07
-1.0398255097e-07
-3.22031079375e-07
-2.15326595221e-07
-5.72914356285e-07
-3.52571844273e-07
-9.23952351476e-07
-4.93958010391e-07
-1.45121430623e-06
-7.17552069015e-07
-1.90295606498e-06
-9.9522944875e-07
-1.86926209818e-06
-1.27760212505e-06
-8.94599377588e-07
-1.53924662458e-06
1.44105501936e-06
-1.57722801174e-06
4.24660336998e-06
-1.05149638855e-06
7.27301115113e-06
9.16319054619e-07
1.07292586119e-05
4.09072964838e-06
1.37076337173e-05
8.96864766719e-06
1.52638106885e-05
1.5595671889e-05
1.5019577622e-05
2.32625704704e-05
1.32296404637e-05
3.13560747434e-05
1.02889773525e-05
4.00648874095e-05
6.49776307724e-06
4.84113044075e-05
5.58650123801e-05
2.05660930046e-06
-9.94801665393e-08
1.32826498355e-08
-1.9970927114e-07
-2.28020757206e-08
-3.49756367629e-07
-9.22270786339e-08
-5.41629991609e-07
-1.86672156136e-07
-7.43900426581e-07
-2.91312012392e-07
-9.96149279074e-07
-4.28158327209e-07
-1.20465899299e-06
-6.4202747565e-07
-1.05340882128e-06
-1.03672722019e-06
-3.14592212821e-07
-1.5183760619e-06
1.28777293863e-06
-1.96790199326e-06
4.18115109128e-06
-2.16359531645e-06
8.14293590933e-06
-1.29723685502e-06
1.21981854841e-05
1.25752340093e-06
1.58764789653e-05
5.99431740229e-06
1.81688180389e-05
1.28917241827e-05
1.80205730398e-05
2.18866590387e-05
1.57966676555e-05
3.03925055118e-05
1.20429487581e-05
3.9696561983e-05
7.51739172546e-06
4.79236582017e-05
5.49401561526e-05
2.36821247973e-06
-1.22411817784e-07
7.62593079531e-08
-2.36208260093e-07
7.24857164899e-08
-3.84727315108e-07
2.91989992425e-08
-5.56379476976e-07
-4.49154144011e-08
-7.09840843933e-07
-1.46782882806e-07
-7.78561748906e-07
-2.92642977996e-07
-5.97214609309e-07
-5.61319428943e-07
-2.03976432141e-07
-9.64038320845e-07
4.56696559324e-07
-1.47483608358e-06
1.67928022336e-06
-2.05986384971e-06
3.92564654304e-06
-2.45170517021e-06
8.12497828407e-06
-2.29309998318e-06
1.31290422292e-05
-1.15175906152e-07
1.88983589905e-05
4.04706913768e-06
2.2365349096e-05
1.18230611783e-05
2.21557540742e-05
2.1760257444e-05
1.89929139264e-05
3.12410971006e-05
1.41215700447e-05
4.02338205444e-05
8.64626801317e-06
4.80848422543e-05
5.44085412593e-05
2.72821589566e-06
-9.44670992998e-08
1.21660280092e-07
-1.76461581647e-07
1.38633358893e-07
-2.79937318117e-07
1.11249257565e-07
-3.67615579763e-07
1.99922177652e-08
-3.58393276399e-07
-1.62101260398e-07
-1.77739013728e-07
-4.3113043482e-07
1.72702853133e-07
-7.87222267258e-07
7.15669297441e-07
-1.25693390978e-06
1.45861648831e-06
-1.79733415193e-06
2.48979146492e-06
-2.35597197616e-06
4.07603457078e-06
-2.76063574458e-06
7.01124762703e-06
-2.69042955957e-06
1.22610517513e-05
-7.59744349701e-07
1.92487960618e-05
4.26980316462e-06
2.50629067097e-05
1.26809931861e-05
2.61007599277e-05
2.34282061511e-05
2.2296608515e-05
3.34019181391e-05
1.64384740679e-05
4.21603873288e-05
9.76530088415e-06
4.91381455275e-05
5.4258218028e-05
3.03932423467e-06
-4.0901441078e-08
1.37102609134e-07
-6.23046511469e-08
1.4604843101e-07
-5.1593992194e-08
8.12689970679e-08
2.99350984913e-08
-8.17350476932e-08
2.30091781063e-07
-3.76924755517e-07
5.97123001854e-07
-7.91434228392e-07
1.16170636924e-06
-1.30808350556e-06
1.8659807207e-06
-1.88859403868e-06
2.63501704814e-06
-2.47511837347e-06
3.42184372856e-06
-2.99336018365e-06
4.47907583685e-06
-3.39297590889e-06
6.38121720496e-06
-3.34151746655e-06
1.04214502654e-05
-1.43967871731e-06
1.78825959493e-05
4.16547557197e-06
2.65346488576e-05
1.4518169444e-05
2.9827801585e-05
2.74165364059e-05
2.56450223176e-05
3.79312606257e-05
1.83215653532e-05
4.55389744232e-05
1.05741771548e-05
5.09097172662e-05
5.41825294912e-05
3.24727595924e-06
1.7628398403e-07
2.16933833181e-08
3.48353343223e-07
-3.97891960194e-08
5.90354531411e-07
-1.82277093913e-07
9.15901304909e-07
-4.36530897203e-07
1.32161931351e-06
-8.16785406405e-07
1.81704714827e-06
-1.32058371066e-06
2.40204388062e-06
-1.92342319364e-06
3.06209595764e-06
-2.58434965692e-06
3.77939212749e-06
-3.2465965893e-06
4.54408347419e-06
-3.83439812291e-06
5.27208412197e-06
-4.17366048247e-06
6.17899699383e-06
-3.91160868785e-06
8.55370844755e-06
-1.9692826495e-06
1.42153100231e-05
4.0553690712e-06
2.27850692823e-05
1.63662733936e-05
2.80084466998e-05
3.1061940823e-05
2.50846421002e-05
4.22342384953e-05
1.80949047154e-05
4.835601778e-05
1.04399805234e-05
5.20600100517e-05
5.33596166972e-05
3.22551847615e-06
3.55361570395e-07
-1.98341429216e-07
6.49692661697e-07
-3.60247035159e-07
1.02860644487e-06
-6.01978007035e-07
1.47691844328e-06
-9.43936716482e-07
1.97825253859e-06
-1.39848429322e-06
2.51403210063e-06
-1.95943449914e-06
3.07060957738e-06
-2.60583228632e-06
3.62900906654e-06
-3.29264243837e-06
4.19715600902e-06
-3.98853825771e-06
4.92238558589e-06
-4.78007825911e-06
5.7589756085e-06
-5.30589284587e-06
6.70344386632e-06
-5.12367709353e-06
8.11312386553e-06
-2.50606859195e-06
1.18549641457e-05
5.07670937736e-06
1.93252540715e-05
1.90341008653e-05
2.37001537026e-05
3.51268993727e-05
2.12243073957e-05
4.51422868674e-05
1.54986903881e-05
4.91419548092e-05
9.13746649544e-06
5.1216174791e-05
5.09424491787e-05
2.83980428793e-06
3.46991733712e-07
-4.25728163115e-07
6.33091270585e-07
-6.9337903312e-07
9.97458981721e-07
-1.03827711971e-06
1.42088917151e-06
-1.47169982417e-06
1.87840164126e-06
-2.0008155444e-06
2.34953877995e-06
-2.62367279337e-06
2.90571992805e-06
-3.409433329e-06
3.55023100416e-06
-4.24516185854e-06
4.29153268685e-06
-5.08416041289e-06
4.79136567542e-06
-5.87343403034e-06
5.11579837748e-06
-6.49622154918e-06
5.21875990454e-06
-6.24982587369e-06
5.69151859159e-06
-3.12435632367e-06
7.24723924108e-06
9.94869107707e-06
1.23747400421e-05
1.27675195107e-05
1.03967534742e-05
6.70814764936e-06
2.27643275621e-06
1.88946869039e-07
3.46559656169e-07
5.45357631939e-07
7.77861677258e-07
1.0783750994e-06
1.44165958557e-06
1.78057337638e-06
1.8851708087e-06
1.77989678547e-06
1.39115355529e-06
5.15185640853e-07
-1.27714313329e-06
-3.96923514348e-06
2.14325965894e-06
-4.45310123891e-06
-3.19479425455e-08
4.33422649967e-06
-4.98275654697e-06
2.46578635654e-06
5.71918293876e-06
-3.02791558556e-06
2.84927563464e-06
7.02182774784e-06
-7.09811681689e-07
2.6295094148e-06
8.07327512707e-06
1.36484388528e-06
2.27933278166e-06
8.87902181065e-06
3.06465411465e-06
1.8840218418e-06
9.4685696807e-06
4.34133574696e-06
1.55936461869e-06
9.86357592503e-06
5.2623934523e-06
1.28832691498e-06
1.00933850934e-05
5.87913287001e-06
1.07789468855e-06
1.01886874613e-05
6.25072848042e-06
9.24898939115e-07
1.01766139309e-05
6.43419925247e-06
8.1244783916e-07
1.00856781719e-05
6.47044470425e-06
7.35501951152e-07
9.93754085195e-06
6.39517339415e-06
6.90051898558e-07
9.74702971909e-06
6.23880391906e-06
6.60778876089e-07
9.52611374745e-06
6.01343083837e-06
6.52507608538e-07
9.27833527794e-06
5.73128368705e-06
6.68592323263e-07
9.0071873915e-06
5.40351932274e-06
7.03269564142e-07
8.71307016448e-06
5.0327473224e-06
7.6458331084e-07
8.39995319533e-06
4.63097856541e-06
8.57269654676e-07
8.08647835927e-06
4.22193561312e-06
9.84364761943e-07
7.79706358757e-06
3.84312673775e-06
1.13177284821e-06
7.56928833446e-06
3.52862953543e-06
1.30972689093e-06
7.4252725572e-06
3.31954788633e-06
1.46591970045e-06
7.3336771929e-06
3.19251442652e-06
1.57155311772e-06
7.22536611224e-06
3.08481690543e-06
1.57774862529e-06
6.97097226472e-06
2.89479023095e-06
1.41122328714e-06
6.41124593624e-06
2.46799542967e-06
1.17064112146e-06
)
;

boundaryField
{
    inletfuel
    {
        type            calculated;
        value           nonuniform List<scalar> 3(-8.66215719728e-08 -2.59841726212e-07 -4.33140741906e-07);
    }
    inletair
    {
        type            calculated;
        value           nonuniform List<scalar> 
20
(
-9.21039416007e-07
-1.47128323535e-06
-2.15673285682e-06
-3.00531588402e-06
-4.05039486235e-06
-5.33176730151e-06
-6.89690684826e-06
-8.80237549509e-06
-1.11155625685e-05
-1.39166852909e-05
-1.73012145739e-05
-2.13826998763e-05
-2.62961874278e-05
-3.22022560506e-05
-3.92917624083e-05
-4.77914511983e-05
-5.79704838387e-05
-7.01486660542e-05
-8.47051915609e-05
-0.000102090997448
)
;
    }
    outlet
    {
        type            calculated;
        value           nonuniform 0();
    }
    axis
    {
        type            empty;
        value           nonuniform 0();
    }
    leftside
    {
        type            calculated;