/*--------------------------------*- C++ -*----------------------------------*\
  =========                 |
  \\      /  F ield         | OpenFOAM: The Open Source CFD Toolbox
   \\    /   O peration     | Website:  https://openfoam.org
    \\  /    A nd           | Version:  7
     \\/     M anipulation  |
\*---------------------------------------------------------------------------*/
FoamFile
{
    version     2.0;
    format      ascii;
    class       volScalarField;
    location    "0.07";
    object      Qdot;
}
// * * * * * * * * * * * * * * * * * * * * * * * * * * * * * * * * * * * * * //

dimensions      [1 -1 -3 0 0 0 0];

internalField   nonuniform List<scalar> 
814
(
4.91992287394
4.94710518595
3.45036893523
728.935906828
1000.93177537
1795.72359436
51866.8789233
125902.174503
944564.111868
2232588.16304
12258073.7091
394771822.891
4624535.96535
20104735.2648
227836700.573
6445813.12953
21020682.9861
112292464.954
7030866.54692
17035760.3309
51023561.6908
6415340.96808
11718553.1771
22497950.4326
5065632.77934
7251542.9798
9893418.94748
3536316.30699
4175784.20217
4435222.77646
2214082.80152
2281598.0936
2066682.66422
1261882.4917
1201592.89985
1019337.0948
668987.903331
623414.735813
545075.151877
345019.94743
332081.255251
326722.117607
187097.643806
194394.209571
224820.203945
117553.033584
132561.15547
174205.685774
89446.2673373
105370.70583
145181.791499
81397.5708773
96473.126015
132733.276232
99382.0594618
118746.621004
165942.328811
198070.298805
235351.640995
325149.907746
447873.382307
514316.211484
671137.949588
796835.070021
900570.090209
1144169.02838
1226942.67034
1384140.31708
1755474.95554
1693500.95598
1907659.77903
2405327.56779
1918810.43401
2139948.90763
2654398.74949
1627888.1875
1795853.95915
2172248.26174
998224.581738
1077321.11874
1258036.32416
464540.894584
492112.981221
551412.547752
353921.200717
370730.633429
410265.940905
2706159.76722
2774860.5764
2928147.70567
10045292.2315
10160042.9258
10480180.1405
17116232.138
17414720.2776
18018097.7697
115030297.494
724608655.573
237368649.69
76829536.4357
26004087.5677
9442217.35719
3765455.30834
1681812.06138
865127.591066
527417.313844
378940.265553
304986.047158
256424.182406
215112.70183
193297.024239
246273.595721
475076.092097
923495.527568
1530764.19715
2346640.57922
3185967.33718
3444364.20617
2739402.33728
1519700.631
635657.767694
468285.115311
3154453.0326
10933353.4345
18887840.9817
21486.4065594
7060.93160826
4479.88737195
2709.81425386
1430.21530653
659.506844555
224.783776687
58.4152822429
14.0015767344
3.08981474396
0.616689205347
0.110230570217
0.0172525116665
0.00234092402923
0.000268138827063
2.56145551186e-05
1.97172274803e-06
1.18741134531e-07
5.45073601503e-09
3.63740446823e-10
3462120.21829
1375400.46337
411090.989021
125627.801233
41227.5127808
13838.4890048
3318.13288118
683.2277459
136.60710267
26.1147022869
4.66502023123
0.762122975845
0.110922377846
0.0141063784019
0.00152695216231
0.000138431388674
1.01980472699e-05
5.91256072786e-07
2.67253191635e-08
1.58963309994e-09
39289921.8074
115299780.632
20552202.2856
2946448.99644
473738.999536
78550.8984023
15420.8142561
2908.60419793
542.481835907
98.3714331983
16.8431903996
2.65525946587
0.375202863124
0.0463824638318
0.0048739897498
0.000428714297852
3.06823167115e-05
1.74504629486e-06
7.79987941714e-08
4.13027290616e-09
411564523.069
527614370.596
172414254.842
36226078.3823
6171777.88266
806398.071656
88168.7285264
12029.4847208
2053.07504929
353.292099633
58.5849644416
9.0225344191
1.25525338999
0.153606501125
0.0159970260229
0.00139625039913
9.92263446503e-05
5.67623949521e-06
2.59431776719e-07
1.74733167647e-08
518694966.314
76904268.394
144163483.987
237898906.298
41408293.0226
6571093.27741
792377.812076
76176.0092063
7160.65690595
1169.21677929
189.554347334
28.9304483185
4.03126359218
0.498160157041
0.0525526433716
0.00465374477036
0.000335772626713
1.97675900308e-05
9.59569480729e-07
9.69953528691e-08
152372086.534
12468279.283
32450862.6153
260414592.38
66874553.5804
12214090.9443
1588553.98074
189142.739648
17992.3118763
2975.15507616
510.710472583
80.8325625812
11.6238072344
1.4856000436
0.16238574195
0.0148987764416
0.00111409640567
6.86004786304e-05
3.62973022514e-06
5.01050420728e-07
41530735.7589
9058467.78035
39032279.4673
261875463.46
53071083.5816
10575422.8135
1572257.8011
243489.801334
39365.6322108
5787.0131865
1133.6710318
192.702644602
29.249273843
3.94399053176
0.455485794941
0.0440952437831
0.00347727475556
0.00022659141532
1.3204079959e-05
2.17089051057e-06
12887540.1599
8702287.50593
37762584.3516
258536658.699
48502252.9663
10050532.1496
1652067.50474
299441.960363
64976.8521739
10915.9841925
2156.1510494
399.25386252
64.4716042039
9.27217996726
1.14649101712
0.11877239249
0.0100122653123
0.000696954475924
4.47454218237e-05
7.89954732002e-06
4926055.25758
6801242.04674
26270859.9524
171568609.652
58145739.3013
12021852.118
2046482.88528
378349.880908
91678.8912974
19948.963724
3511.65642693
721.343559374
125.980439433
19.4790751711
2.60001353438
0.291077666178
0.026488454884
0.0019840885047
0.000139896747375
2.49613079746e-05
2272264.34185
4468548.63583
17068385.1112
96779912.3909
92576827.8089
17490488.8286
2922652.74941
497535.212561
118153.103993
30724.4031089
5437.99126481
1195.84276337
224.577412296
37.2575575152
5.37609127351
0.653742770951
0.0646320292505
0.00523532295197
0.000403868878045
7.05252324924e-05
1227541.26429
2978029.19675
12274672.5962
70778504.4067
135186050.707
25330941.4119
4231482.18295
651867.216936
142419.085829
40483.2276889
8895.42968994
1734.60028983
366.577386333
65.6856973272
10.2536386341
1.35758681541
0.146352940964
0.0128603331932
0.00108227988448
0.000182147181354
819329.71382
2272938.92211
9803485.02352
58663681.6739
164623583.85
31345591.0738
5530586.01526
817466.168385
166942.982507
48645.5414003
13003.1740772
2489.80802274
566.862829418
108.937932422
18.2966565515
2.63264543371
0.309702416295
0.0295627543928
0.00270853331249
0.000436197451392
670809.213181
2079358.34028
8873974.69408
49357186.4134
186804995.994
35065185.181
6535530.46787
1002446.40116
196840.188441
56928.619058
17423.4518204
3722.72800424
808.8815629
170.897994554
30.8351556817
4.80734198053
0.616292774414
0.0639009081679
0.00636121662056
0.000979191963336
605556.938057
1936410.91819
7890336.26817
37256707.9662
158988874.856
44411029.1403
8723995.20978
1434176.17193
262042.975674
70713.7338735
22192.7771919
5578.21884316
1122.54665049
256.568418854
49.6037648136
8.33104607648
1.15945734862
0.130383982685
0.0140723948267
0.00208011026829
549784.773446
1698324.35018
6213409.95545
23297171.4759
78425683.7371
80158806.1529
17281299.6019
3079131.25151
488128.689306
104524.794701
29380.2907824
8146.07115627
1565.39031253
374.109679936
76.7206092744
13.7769080719
2.07017360774
0.251814529017
0.0293819927873
0.0042050827054
474419.566532
1341181.28436
4159934.43089
12655269.2763
39143843.589
163398109.089
41873453.6436
8609586.30188
1333338.90191
204289.449491
43642.0916643
11450.0825959
2432.53485536
506.897203052
113.73269161
21.7840372305
3.51565376865
0.461165343671
0.0579636896996
0.00811496083219
383990.898963
973553.210783
2633758.0092
7183709.81367
20015615.4308
70005229.1638
90531280.2076
21296850.7385
3805555.83074
498695.666537
74661.2520175
15978.8025572
3596.62236179
689.236771038
162.746456517
33.0206807193
5.68907734569
0.802102265533
0.10820834527
0.01498371941
340125.308027
850127.128734
2289410.50528
5995082.91222
15399589.3893
47162849.6317
136734799.107
37151167.4398
7859278.51856
1115112.50511
130694.719803
21581.2406048
4851.5986055
923.680074808
220.231560106
47.817115879
8.78049973796
1.32785919609
0.191651760837
0.0265402026932
457496.530342
1199143.51994
3156652.71678
7880985.32743
18901013.9361
50328304.5514
139523418.813
40528949.0462
9539138.52263
1546564.08491
178315.736542
25686.6854189
5676.09051433
1231.20635398
281.170225009
66.4481247163
13.0146942753
2.10641718719
0.324099167446
0.0453587787587
858468.369068
2105095.9269
5125438.77498
12176306.7889
28473006.1341
74013070.6395
91323390.0981
27551079.8046
6741319.17503
1135863.03568
141672.755717
23025.2436833
5752.41019443
1526.63596684
359.112248817
91.1027850765
18.9345566663
3.25713194492
0.530685605826
0.0757453111852
1563312.72753
3529900.4687
8167077.73974
18953832.6221
45153943.8431
122479489.51
40261460.5218
10188774.7438
2310651.89192
409484.522824
73726.1661359
18477.2869725
5949.4147112
1991.43328987
488.844948296
130.170508767
28.121314184
5.04812095451
0.858898667497
0.125570969307
2514083.99575
5539959.45323
12603181.6555
29949387.2255
76037027.2906
73524145.4307
16625192.6159
3059642.8489
614605.432424
190348.677586
67127.0326032
24627.0315532
9033.95755075
3253.62805343
870.196400732
208.152681297
45.7010409868
8.20154030196
1.41452958329
0.211512419579
3841866.46022
8466176.18658
19188197.9741
44329749.486
106726466.087
50015222.3119
11397345.4198
2896075.97971
1230026.97931
555992.333529
227592.144829
81269.6872968
26417.7042882
8208.62887154
2252.03037507
428.688850387
87.8401759188
14.7468862234
2.45366608858
0.371439275832
5098546.91494
10773842.2831
23272948.1064
50368750.7825
109482324.744
47424825.3491
14648959.83
6335616.29956
4080344.37869
2440673.72232
1117286.3194
402943.716106
121409.762027
31937.5660625
7641.30790529
1267.93860558
195.715143839
30.2581832297
4.60224887694
0.694174543091
5317513.44072
10555741.9239
21092198.6877
41214541.3732
78514797.798
65855969.1673
27472595.4195
16235443.647
12165437.9759
8410915.48079
4444753.74197
1814675.84191
578326.087685
147886.829055
30443.8665305
5053.56448269
521.044048295
69.9571257115
9.41686250268
1.38953495223
4037383.48115
7416599.22377
13572747.9732
24002142.2602
40490023.472
65230281.0234
65137214.6051
43273946.554
32520985.2112
23142894.2438
13506913.7102
6252881.64516
2232381.99398
616040.32868
126840.241895
19216.2360409
1788.74618079
158.406816319
19.8175549279
2.90322289152
2106723.2513
3528675.48474
5906228.12112
9615073.80113
14859914.6618
22011433.5998
31476327.8291
42517759.6819
54391568.4272
54963609.6065
32170332.3558
16232108.7475
6510320.98805
1995858.8006
449537.793179
65143.5220066
6056.32478825
358.860923969
39.0419104775
6.00257428819
821386.223072
1241792.76467
1902226.67642
2953794.6602
4766312.01804
7579078.79871
11463502.4498
16047630.8795
21398683.7376
29580954.3068
47897399.8967
30603638.2963
13425948.2781
4638359.69679
1207346.09064
191217.597183
16617.9142045
942.867802731
73.0547969906
11.6099030007
610212.262672
993381.192548
1693767.18688
2870848.58972
4739581.41675
7537840.79604
11423826.6648
16370697.0217
22362316.3291
29821698.1528
41520354.4868
40242725.1534
18403475.372
6827180.23738
1930835.84678
340688.504683
29334.6764939
1723.10905646
130.049450599
22.1394544394
3670736.96857
4768285.97667
6490321.01163
9069268.81756
12774360.4144
17892476.804
24672427.229
33230968.4036
43661399.4926
56683961.4044
61165623.9128
31760852.4956
16161722.601
6409832.30533
1799362.65523
315107.499361
27455.4212197
1727.96815056
158.10651447
38.9064668182
11991458.7678
14323984.9099
17901465.4199
23041470.1987
30174921.0671
39946479.9173
52889726.1871
69684267.6233
90371803.4226
62819349.102
33145776.9455
17090977.363
8641254.48608
3550125.15304
975863.879622
157809.683798
14158.3669076
1149.64040735
182.782461647
69.8829662255
20823355.0981
25077993.7049
31680896.7486
41376608.9416
55171761.7416
74760259.1629
99819550.4661
68451353.895
40823883.4304
22918186.3357
12119122.4651
6182729.22603
2918478.24934
1.69249914075e-08
4.0824399078e-08
1.08249958611e-07
1.05396309878e-07
4.62263453948e-07
2.73313138515e-07
1.71389594046e-06
7.0219331546e-07
4.93854117655e-06
1.67170189836e-06
1.26214994701e-05
3.74459764779e-06
2.91221218617e-05
7.78633893977e-06
6.25213561897e-05
1.54029180422e-05
0.000127017419446
2.9293075486e-05
0.00024775188172
5.40849940497e-05
0.000469555112276
9.77465232594e-05
0.000870239983075
0.000174268568319
0.00158066927107
0.000308580461469
0.00280707318212
0.000541376898903
0.00488831668484
0.000941981153201
0.00840261607522
0.00165004580383
0.0143241346036
0.00296529289857
0.0247837395303
0.00568556135453
0.0447471308732
0.0121195728579
0.0869733359356
0.0291590514786
0.185336163545
0.0767713983487
0.429353726424
0.209238381396
1.03185158467
0.559858762523
2.46288305731
1.43010036956
5.59874240627
3.43043405406
12.1082744818
7.71334538346
24.579916774
16.2759150031
47.3912209614
32.4383850055
)
;

boundaryField
{
    inletfuel
    {
        type            zeroGradient;
    }
    inletair
    {
        type            zeroGradient;
    }
    outlet
    {
        type            zeroGradient;
    }
    axis
    {
        type            empty;
    }
    leftside
    {
        type            zeroGradient;
    }
    burnerwall
    {
        type            zeroGradient;
    }
    front
    {
        type            wedge;
    }
    back
    {
        type            wedge;
    }
    procBoundary0to1
    {
        type            processor;
        value           nonuniform List<scalar> 
27
(
23182656.2141
23590186.1375
24658967.5879
26147332.209
1184376.37758
338967.779806
54386.5667071
5551.19510031
757.897472382
262.251690563
128.220047914
29634786.3753
37606783.8102
50503893.6412
69724212.9654
71170252.3799
50380320.8705
33609326.5196
20609843.2457
11732984.1877
6530517.62904
3709794.86706
2066223.87892
1184376.37758
1063684.60141
87.7684468648
61.7449947438
)
;
    }
}


// ************************************************************************* //
