/*--------------------------------*- C++ -*----------------------------------*\
  =========                 |
  \\      /  F ield         | OpenFOAM: The Open Source CFD Toolbox
   \\    /   O peration     | Website:  https://openfoam.org
    \\  /    A nd           | Version:  7
     \\/     M anipulation  |
\*---------------------------------------------------------------------------*/
FoamFile
{
    version     2.0;
    format      ascii;
    class       volScalarField;
    location    "0.07";
    object      T;
}
// * * * * * * * * * * * * * * * * * * * * * * * * * * * * * * * * * * * * * //

dimensions      [0 0 0 1 0 0 0];

internalField   nonuniform List<scalar> 
814
(
294.210406466
294.211794257
294.219657948
294.357623664
294.362354047
294.386134304
294.478755927
294.498149207
294.586566862
295.279617145
297.07925673
325.146887747
296.795070288
301.268040095
341.054832337
299.447321651
307.581538202
356.867927625
303.710161508
316.276669129
372.487865475
310.240796138
327.644196392
388.24391684
320.067093137
342.103238127
404.516168515
334.369428273
359.874131077
420.92819914
354.004887799
380.783894887
437.253129795
378.950056444
404.393034667
454.108881856
408.20529665
430.446458823
472.926014008
441.129174798
459.829386822
496.321531291
479.885623022
496.118948793
529.220199386
530.492995264
545.896691607
578.571268809
597.872099479
613.418356203
646.959586837
675.266034844
690.507729604
723.294937445
752.007859316
766.212376021
796.571837772
849.335522672
862.97749132
892.021937785
979.216819275
991.658363584
1018.26510685
1082.24710719
1093.44937708
1117.88305476
1151.54894488
1163.57400765
1190.11076108
1208.48870672
1221.69020033
1250.61122387
1245.03337227
1258.48281104
1287.76225047
1255.21258576
1267.87373883
1295.35497459
1233.76631325
1244.25233538
1266.93512184
1188.49507848
1196.05179477
1212.42360486
1160.39955619
1165.77554589
1177.41797241
1320.21856575
1324.72136304
1334.95833938
1722.58238196
1724.83493542
1730.37757212
2123.45348217
2124.05871816
2125.73066355
507.028987389
522.451398433
509.199091556
501.97529267
500.459450305
502.298806817
504.886467964
508.123971423
513.885880675
524.246169418
542.286484583
573.41770167
624.253487218
694.372508817
768.871976131
838.236991159
931.860239133
1054.64091052
1151.85790912
1227.52816973
1291.22288473
1328.65735309
1333.60801041
1298.33716724
1234.9759042
1193.58446028
1349.28420589
1738.38381891
2128.15997054
296.030562852
296.007413275
295.982836603
295.956779258
295.937842855
295.926492694
295.920979625
295.919168536
295.919351249
295.920499779
295.922074201
295.923836961
295.925736548
295.927899447
295.930392049
295.93299989
295.935526158
295.93774485
295.940149544
295.949955797
317.007397548
303.919797437
298.593967771
296.640838198
295.862712392
295.579115615
295.481293516
295.460594152
295.465971902
295.479649306
295.492657185
295.504213078
295.51322264
295.520358774
295.526533384
295.530989466
295.535817654
295.538276723
295.541503182
295.534475237
453.95732376
494.848699614
376.613486309
317.852596243
301.037734782
296.654036486
295.557187889
295.223383612
295.136485744
295.128241198
295.139591545
295.15378583
295.165568573
295.174747669
295.182231621
295.187466585
295.192771984
295.19548596
295.197854939
295.187858468
919.836014023
1886.80089133
1136.89856774
574.551057196
378.716641024
316.253738336
299.124974432
295.917792644
295.206695372
295.0329485
295.004863273
295.009966141
295.019681218
295.028248939
295.035230326
295.040765597
295.045287164
295.048765011
295.049622245
295.262273534
1036.11925797
1705.96890415
2309.24822964
1946.92899912
789.455989213
439.547973267
332.931044296
302.325445375
296.126814123
295.258472232
295.066178532
295.037327864
295.040510225
295.047677292
295.054166541
295.059958781
295.064108807
295.068297767
295.069484801
295.276554801
950.727295476
1513.31686387
2177.67318948
2440.99110403
1118.21205727
543.127207239
367.206871703
314.444763099
298.313300793
295.836712599
295.241066931
295.117678597
295.103137287
295.107513365
295.113668456
295.119377248
295.123669117
295.12786396
295.132431132
295.354291567
885.255801532
1390.26458239
2102.9450913
2187.04872464
1066.49111558
565.155066584
386.956104891
326.195143318
303.649875713
296.781573773
295.526923753
295.201100531
295.142015822
295.138699929
295.143805855
295.149099828
295.153497973
295.157300768
295.165601918
295.418056977
818.825980671
1260.75490379
1970.98760407
2233.34966114
1081.95229891
601.037649529
414.947159145
341.807088917
311.615589914
298.714313887
296.00464543
295.317748462
295.163063142
295.140931481
295.143046913
295.147801885
295.152118675
295.155707135
295.166518402
295.448711094
758.625399188
1137.53077225
1812.93788171
2436.62197342
1236.61768113
685.644761839
460.02582983
363.634962438
321.86604289
302.846025412
296.745642663
295.526756129
295.200394663
295.13861236
295.133608338
295.137444953
295.141675391
295.145452466
295.158668609
295.468279031
706.68604516
1023.97585554
1656.35154661
2435.12999773
1480.08754129
820.293850454
525.470103141
393.609911295
334.848209082
309.033171552
298.054878711
295.915142048
295.288975713
295.149997778
295.129450509
295.130973141
295.135055655
295.139266265
295.155771511
295.494081062
668.205964532
933.461867804
1518.01592693
2358.72204676
1726.57422982
971.186808445
600.392762425
428.905208208
350.398746668
316.647711454
301.014005611
296.476128771
295.457735863
295.184734642
295.133143133
295.12910682
295.132591411
295.137284464
295.157938549
295.528743764
646.798151507
879.31942304
1415.62475183
2278.80131736
1921.8924789
1109.14696247
676.848201156
468.113006815
369.815575316
325.801149671
305.503523677
297.450725246
295.758128004
295.255565359
295.145162841
295.129214215
295.13096605
295.136120585
295.161767602
295.570381222
640.460023325
861.584609725
1363.28972225
2194.82718823
2104.97007069
1249.6203419
759.001609513
513.529865864
393.994061096
337.328642062
311.620950411
299.37747411
296.213667639
295.384164648
295.170390571
295.131020177
295.12875035
295.134251047
295.166064026
295.619099687
650.776989791
874.027423899
1362.809524
2122.56907838
2294.18709259
1453.8580066
872.908624416
574.881200798
426.201409548
353.148330117
319.279322787
302.781763423
296.934360209
295.606302344
295.220047819
295.137236037
295.126543434
295.131947567
295.171507791
295.676916053
682.89247627
918.878143774
1392.95265508
2037.86612011
2361.12276763
1796.64061577
1072.26528949
672.630498753
473.708642515
375.930029947
329.45935744
307.971201547
298.116529896
295.978851101
295.311981496
295.152735678
295.12570173
295.129868656
295.17898608
295.746643982
740.672181675
987.997040444
1416.02086532
1920.05109515
2286.82614387
2232.08692276
1411.50575994
836.65061398
547.501236296
409.167587504
343.643837503
314.637963113
300.606882576
296.489675479
295.467471561
295.184339334
295.127906058
295.128540273
295.189136344
295.831776987
813.264092583
1047.67703619
1389.2797641
1772.98448113
2135.06123197
2377.33107601
1829.81362453
1076.24396566
654.96384048
455.309832668
363.367071246
322.845615327
304.300349982
297.301922141
295.718108948
295.241472778
295.135447046
295.128551761
295.202680527
295.936721685
878.22673709
1077.57590778
1343.68614592
1663.87199945
2016.61665988
2330.43443962
2131.16624043
1328.55419933
778.65714428
508.628806912
386.056902534
332.109935619
308.9776546
298.537921865
296.075761401
295.334743302
295.151507272
295.130859106
295.220758057
296.067179605
935.956353639
1108.91696148
1341.65336508
1640.42608051
1988.69367054
2300.29995606
2191.66726071
1445.1925791
855.530442459
547.222392185
404.818363065
340.882198733
313.555323986
300.485015581
296.53898531
295.476644466
295.180847548
295.137208994
295.245307925
296.231215576
1024.82233609
1187.23018709
1410.5978792
1709.92349113
2055.70380383
2313.02960686
2003.03189249
1351.00937147
830.197610414
546.522520054
410.528696344
346.570516836
317.358091287
302.906451081
297.199921374
295.691968207
295.232155724
295.151073372
295.2799116
296.440715239
1137.50199485
1292.63314532
1522.47127325
1831.81522343
2151.96043782
2268.71862589
1670.28917937
1104.40563586
724.141677421
515.160829612
407.514504157
350.730638735
321.256857555
306.197968732
298.178709823
296.028927992
295.32230379
295.179538436
295.331153274
296.711481849
1230.71465755
1397.90897605
1646.98720546
1965.32258568
2203.07746248
1989.14863105
1364.01784306
928.46193428
650.515998927
500.732097478
413.5394107
360.036323333
328.199569971
310.769621004
300.232191846
296.560239693
295.488347634
295.236980732
295.411193247
297.068854637
1313.75836641
1499.75277451
1763.10054997
2049.83125514
2172.77112581
1776.5051323
1251.44917292
924.251910855
712.574357454
551.999780465
454.35413658
387.634141073
344.458777825
319.063619639
304.672919992
297.596347238
295.811651456
295.35248332
295.542547014
297.552188231
1382.04543255
1572.36465903
1828.33935999
2081.49139941
2156.92796359
1791.31475372
1364.9149129
1090.09756472
906.678459198
719.861676163
571.722528131
458.84987091
383.223018212
337.547243797
313.315629887
300.149396086
296.407861739
295.581777066
295.765295586
298.225619503
1418.28108859
1601.81735769
1841.81962809
2078.95174925
2190.77518407
2007.73754722
1665.04281149
1434.21028549
1273.8683912
1073.81820596
841.023032919
628.276340912
472.619580961
379.098871514
329.885123051
306.715133127
297.604806401
296.028878375
296.14848521
299.186830655
1416.25209429
1582.84092422
1799.30761692
2026.92710295
2195.29267959
2231.29436741
2085.82344226
1924.23161722
1807.27570641
1630.09328574
1343.96064859
987.366999951
668.879451359
466.930718905
363.799343422
318.776325838
300.513835726
296.8226415
296.804102997
300.588547402
1366.26554264
1503.15054949
1683.26829314
1884.56107605
2066.00888091
2194.92494856
2256.92934194
2269.61831893
2263.63501431
2183.99054516
1976.55513892
1571.09677848
1043.82201856
635.691802675
426.096266297
338.29712482
306.479761043
298.244558332
297.92939007
302.643334465
1284.47131595
1384.51419972
1517.33265376
1673.81008248
1843.61952396
1998.65866846
2118.5898991
2209.01802832
2281.86864667
2338.59685
2345.2792135
2088.47437959
1525.77330971
895.344174138
523.590536197
367.429470628
315.071934397
301.020574046
299.818662661
305.5500424
1230.29840608
1304.75479507
1406.75974231
1535.23112185
1682.80171735
1835.56818932
1977.78975384
2099.80476312
2198.52917743
2275.57651374
2328.19197273
2226.91902701
1803.67536403
1115.29587786
611.105519517
394.023067899
323.126721186
305.176662222
303.048602494
309.743672378
1381.74950134
1441.91650889
1522.63796114
1622.98588455
1738.83692025
1862.33342997
1982.4577026
2086.82901549
2162.27703271
2197.74675407
2182.88721302
2048.47530474
1748.38398129
1149.57871394
625.047415166
399.672478503
328.254248706
310.493180378
308.162662165
315.752456344
1756.60811732
1793.05337277
1841.87384182
1900.32565969
1964.33820311
2027.0236314
2079.5344768
2107.86132409
2094.03222907
2004.26315361
1851.63490841
1679.56048892
1429.78177551
982.472048154
560.454098139
384.603852229
331.992100843
318.903783386
316.557437057
324.339640148
2133.33164427
2143.10489659
2152.82481356
2158.02945036
2153.53033469
2127.6757164
2075.48933333
1964.42822273
1790.14599038
1599.15294182
1420.89987224
1247.21332486
1002.38204159
304.161598233
304.486332793
300.850322114
302.080704477
298.968343181
300.351506081
298.057417867
299.549315405
297.673531137
299.218539222
297.519570248
299.122199744
297.51629371
299.178807554
297.614632093
299.343487329
297.793489044
299.603280457
298.044817194
299.959016233
298.371178066
300.423219913
298.781458019
301.020063185
299.290812859
301.786851759
299.924640481
302.770116152
300.729081266
304.040411865
301.767190004
305.702324485
303.082451191
307.864466046
304.767383852
310.649988558
306.902838316
314.175780728
309.558761386
318.531599661
312.794411091
323.767224296
316.648496353
329.884821109
321.194097013
336.869244449
326.533033449
344.696713063
332.896673862
353.387927435
340.59743295
362.998866891
350.034966589
373.62805714
361.553317013
385.368506444
)
;

boundaryField
{
    inletfuel
    {
        type            fixedValue;
        value           uniform 294;
    }
    inletair
    {
        type            fixedValue;
        value           uniform 294;
    }
    outlet
    {
        type            zeroGradient;
    }
    axis
    {
        type            empty;
    }
    leftside
    {
        type            fixedValue;
        value           uniform 294;
    }
    burnerwall
    {
        type            zeroGradient;
    }
    front
    {
        type            wedge;
    }
    back
    {
        type            wedge;
    }
    procBoundary0to1
    {
        type            processor;
        value           nonuniform List<scalar> 
27
(
2376.99697957
2375.80319057
2373.15072642
2369.38662002
697.777792746
473.368480848
373.588518668
343.420850397
334.159604397
330.421526112
336.621272743
2360.64439367
2339.40480797
2301.28414962
2238.90022202
2142.61883787
1986.27050033
1791.87202887
1584.54643177
1386.04318283
1212.19139268
1062.4502109
909.692334601
697.777792746
732.849817852
375.276598665
398.255766388
)
;
    }
}


// ************************************************************************* //
