/*--------------------------------*- C++ -*----------------------------------*\
  =========                 |
  \\      /  F ield         | OpenFOAM: The Open Source CFD Toolbox
   \\    /   O peration     | Website:  https://openfoam.org
    \\  /    A nd           | Version:  7
     \\/     M anipulation  |
\*---------------------------------------------------------------------------*/
FoamFile
{
    version     2.0;
    format      ascii;
    class       volVectorField;
    location    "0.07";
    object      U;
}
// * * * * * * * * * * * * * * * * * * * * * * * * * * * * * * * * * * * * * //

dimensions      [0 1 -1 0 0 0 0];

internalField   nonuniform List<vector> 
814
(
(0.920551365141 3.61316623018e-15 61.1291836103)
(-3.11233449838 4.41200402658e-16 60.5503990434)
(4.26351006412 1.83659067839e-16 57.3518190216)
(0.822178011032 3.87342520145e-15 63.3583562299)
(-1.61712777969 9.62086933742e-16 62.1772703325)
(2.03061944488 2.4627495855e-16 57.1416217685)
(0.445977933809 -5.24506478423e-15 64.2267036837)
(-1.39243471484 -1.49615147668e-14 62.6558978412)
(1.1158539012 -2.49986173624e-14 56.0108767133)
(0.205598554261 -9.50013439614e-13 63.4311818499)
(-1.70334511766 -1.52308055612e-12 61.3289843123)
(2.76493508124 -6.98917817005e-12 48.6186825981)
(0.339271874056 -1.30517570271e-10 62.8155692484)
(-0.270669189268 -8.19871803272e-11 60.0382204062)
(2.09514915402 -1.77284405193e-11 47.3720733628)
(0.213811043232 -1.32102208476e-10 62.5145102046)
(-0.152431388619 -7.66984823968e-11 58.9589745417)
(1.10484335919 2.21110994077e-11 46.0492460551)
(0.0659518808593 -7.80046618748e-11 61.2235013562)
(-0.0636973670236 -5.49988118076e-11 56.9399580918)
(0.64465249255 5.05251821423e-11 44.3896091353)
(0.0831518719611 -3.84211468488e-11 59.6175370207)
(0.105238925047 -3.09970450805e-11 54.7683588422)
(0.513242488785 5.28578460408e-11 42.9596509971)
(0.112430111611 -1.67235262556e-11 57.7186133588)
(0.240695446766 -1.37167996956e-11 52.5407743689)
(0.502712921072 3.07880972594e-11 41.7554818715)
(0.145662469784 7.36249550427e-11 55.3195347811)
(0.363182442815 1.17597114568e-11 50.1470374127)
(0.567513715956 2.50524853349e-11 40.5415930331)
(0.195996660021 2.52000050781e-11 52.2822537853)
(0.48691675019 2.85327212167e-11 47.4535743866)
(0.676101969479 6.19891042466e-11 39.0760137336)
(0.251501452143 2.77630037255e-11 48.5194962244)
(0.602465533824 8.52849329327e-11 44.2944676757)
(0.800311900631 8.2495327105e-11 37.1262839852)
(0.297890994128 1.94720199761e-11 44.0107505221)
(0.705946855227 5.17121901788e-11 40.5194794736)
(0.939468159046 5.90099519398e-11 34.5118743398)
(0.334051769617 -1.32751256501e-11 38.7659315131)
(0.80832082055 -5.35008886807e-11 36.0145353796)
(1.1136706054 1.45160643441e-11 31.0978605168)
(0.353758793918 8.27065141818e-11 32.8465354453)
(0.88136458415 -4.39680047417e-12 30.7605396622)
(1.26041416721 -3.44685173797e-11 26.8507582426)
(0.343859945819 6.67143641654e-12 26.5459598214)
(0.866563774509 -2.37309626033e-13 25.0231168415)
(1.26378498272 -3.19426988209e-12 22.0366227336)
(0.29772090981 -2.44521069774e-12 20.5594482676)
(0.756339516369 -9.06735612387e-12 19.4960915929)
(1.11937295384 -1.90086993459e-11 17.3337899392)
(0.240941477095 9.64025731447e-13 15.6191783071)
(0.615564974682 3.19950774266e-12 14.8831289928)
(0.92833146271 9.12336912932e-12 13.3386455212)
(0.224585889701 -2.63837784896e-12 11.5572796878)
(0.583723766073 -8.07614869931e-12 10.9893710934)
(0.904464322377 -1.72346947512e-11 9.7651519987)
(0.231894726479 -1.0030244681e-12 6.95799316008)
(0.599838539662 -2.97933698381e-12 6.49356993703)
(0.922736369794 -5.70184670431e-12 5.48162169206)
(0.172793323692 2.10703763825e-12 2.02920133087)
(0.44344075565 5.39181584144e-12 1.74965496397)
(0.669716218808 5.34053720855e-12 1.11677598881)
(0.0677410631695 4.23659601549e-11 -0.650812166904)
(0.172298973418 1.26154977506e-10 -0.777543791532)
(0.253300022573 4.33164663942e-11 -1.10763582398)
(-0.00495049321668 1.44203982783e-12 -1.2377684112)
(-0.0144185286517 5.11552962371e-12 -1.30400556006)
(-0.0310182472457 6.8931270765e-12 -1.52045579272)
(-0.0424267886549 -7.81375565898e-11 -0.669338666474)
(-0.112124728296 4.05973830852e-13 -0.714863329747)
(-0.182869697873 7.25916538499e-11 -0.884766790491)
(-0.0667797550613 -8.23788077658e-12 0.444614902034)
(-0.174386708036 -2.23268404596e-11 0.404575614466)
(-0.27660657438 -3.12528168346e-11 0.250612653971)
(-0.0767180269939 3.59006437286e-11 2.25966224294)
(-0.202641448011 -1.56629943213e-10 2.20698440496)
(-0.324874130157 -1.88514528577e-10 2.03894746797)
(-0.0646421410816 -1.473858921e-12 4.00826171858)
(-0.167649490834 -5.46531854732e-12 3.94375088025)
(-0.263017540037 -4.51701991816e-12 3.76018847668)
(-0.0243070706167 -9.61801836313e-12 5.35867027484)
(-0.0654282576935 -2.80929226077e-11 5.28887783316)
(-0.106032308754 -5.5432424618e-11 5.09895634318)
(0.100589888554 2.14376442045e-11 4.88192249538)
(0.262703849663 6.22156694335e-11 4.79458564398)
(0.416602533804 1.11563333289e-10 4.56515809595)
(0.210710260927 -2.14999121547e-11 -1.18827419639)
(0.548636201405 -6.61197092006e-11 -1.27611601147)
(0.862831792843 -1.00882137934e-11 -1.49988990585)
(0.197658563995 -5.0495904226e-14 -9.31701888643)
(0.512965402552 3.65088458025e-13 -9.31830337557)
(0.799692646005 3.69863726496e-12 -9.36059241829)
(0.0877140499969 -7.94128230581e-12 -14.0083976221)
(0.231578682039 -2.09203179943e-11 -13.9500668022)
(0.369316566164 -2.43436665741e-11 -13.8913363806)
(-1.96432932356 -4.5039890756e-11 15.878259757)
(0.480371419897 -3.10155207462e-11 21.3890579204)
(0.334932410269 -2.83396656581e-11 26.5424980073)
(0.156402103165 -1.87804678136e-11 28.8609460824)
(0.278024552657 -5.79226291074e-13 30.1286066022)
(0.409013410712 1.08753489174e-11 30.8475523315)
(0.528103043686 2.20345062711e-11 31.1088450137)
(0.67354005287 3.81668274515e-11 30.8495864546)
(0.846121423743 4.96461306595e-11 29.9263889597)
(1.04962640977 4.93518657867e-11 28.24862715)
(1.30209556313 3.36456487019e-11 25.7391194141)
(1.51604519493 2.5252708532e-11 22.399530895)
(1.54256790981 1.76985506787e-11 18.5179665724)
(1.38156111248 -3.36993543551e-11 14.7220708031)
(1.16971954062 2.30205039959e-11 11.409676038)
(1.16858483404 -3.37184659964e-11 8.17361902871)
(1.18937014684 -9.20153498336e-12 4.16066399388)
(0.845110721138 3.20837951241e-12 0.298952690982)
(0.306765764884 -4.12682328346e-12 -1.56369090199)
(-0.0580524035052 4.06627919276e-12 -1.83908882261)
(-0.260413876688 2.59348446817e-11 -1.13893646781)
(-0.380465730151 -3.42789420743e-11 0.0187849926823)
(-0.450639656374 -1.44388212786e-10 1.79069980561)
(-0.356463407919 9.65735777566e-13 3.49369088566)
(-0.146368584572 5.50647087414e-12 4.82333760097)
(0.566444534301 1.71872113966e-10 4.22962131964)
(1.16178117942 2.16909052149e-11 -1.81831747233)
(1.06400010014 1.01688486362e-11 -9.43733687025)
(0.502597763321 -1.0844640526e-11 -13.8406460211)
(0.070478974481 -4.0248618625e-12 1.68521473766)
(0.139639325344 -3.44591289496e-11 1.75188647085)
(0.153041308823 -9.2194947478e-12 1.73651854487)
(0.189992494717 -2.40701834343e-12 1.82735905101)
(0.219114676649 -5.91662267312e-13 1.84990531635)
(0.240347630872 -1.46997051538e-13 1.89046487225)
(0.244763684866 -5.22653494652e-14 1.90520049585)
(0.244519888862 -8.38999420062e-14 1.92099423451)
(0.233415723372 -3.09982756619e-13 1.92890550961)
(0.223657637143 -1.38817056598e-13 1.93719044682)
(0.207702937893 -8.57432976604e-14 1.94216400435)
(0.194318156731 -2.61624994305e-13 1.94720504169)
(0.174274254929 -2.57089156768e-13 1.95094411454)
(0.159181627327 -5.80646122482e-14 1.95396578601)
(0.134354604973 -7.96949127849e-15 1.9573826453)
(0.120217237487 -8.53499475322e-16 1.95842568405)
(0.0896576836867 -1.0033436874e-16 1.96190161082)
(0.0768806657489 7.92682799114e-15 1.96174040034)
(0.0344944311915 1.38259685267e-13 1.9653093357)
(0.0160328160989 3.7135899986e-15 1.96350562369)
(0.27788107444 -1.06619351854e-11 1.56515206039)
(0.346034856403 -6.6228855932e-11 1.7552500539)
(0.576612292723 -2.48087451331e-11 1.756640408)
(0.669914448582 -8.76698396646e-12 1.66842259726)
(0.61494746998 -2.65374050304e-12 1.66715770106)
(0.608285073872 -7.61213732296e-13 1.71612330244)
(0.560216839129 -3.53915919852e-13 1.74909800706)
(0.532882983706 -1.08280745366e-12 1.79365950503)
(0.491921718094 -1.09443470167e-11 1.81880470199)
(0.459322440381 -2.847863373e-12 1.84289176595)
(0.418490878127 -1.06443987098e-12 1.8587159634)
(0.384142680015 -6.77445461126e-12 1.87343329033)
(0.340723762597 -6.33378250972e-12 1.88421182487)
(0.306419974465 -8.97492340027e-13 1.89287720227)
(0.257171923833 -8.4353740636e-14 1.90182411831)
(0.226694343226 -7.33645969625e-15 1.90519960696)
(0.168969332765 -1.14560009361e-14 1.9142263896)
(0.142353656823 8.70161602186e-14 1.91441261643)
(0.0677562790949 3.86833595716e-12 1.93121482978)
(0.00559844193293 6.82866058853e-14 1.91820724396)
(-0.650873959348 -3.02669056312e-11 0.591079117473)
(-0.0518926743929 -4.87381121713e-11 1.57096854984)
(0.0150051757593 -2.52864847093e-11 0.967966326269)
(0.365074094468 -1.11788854426e-11 1.51025398392)
(0.624415906668 -4.38275922067e-12 1.45033539871)
(0.684666514149 -1.54431363835e-12 1.64501567336)
(0.661340659162 -7.58392045105e-13 1.62786120652)
(0.632916651197 -1.66046127109e-12 1.70379112389)
(0.574471802447 -8.05741766927e-12 1.74015637815)
(0.530123985563 -3.43245895565e-12 1.77541846543)
(0.476705463004 -1.66980181405e-12 1.79941310261)
(0.433349934375 -5.9756514012e-12 1.82110458985)
(0.380751116389 -5.89927102655e-12 1.83706510584)
(0.340994384136 -1.18688200473e-12 1.84996905113)
(0.284133446969 -1.35414985616e-13 1.86280042582)
(0.251693556894 -2.38992009214e-14 1.86842256858)
(0.186064662275 -2.35882611712e-13 1.88143391741)
(0.162543577698 1.30593503004e-13 1.88228651157)
(0.0750701519323 3.84261807402e-12 1.9149793425)
(-0.00514812234309 9.57974340509e-14 1.88506932336)
(-3.95378294117 -5.89571997362e-11 3.58546916835)
(0.0924880816808 -5.72288460288e-11 1.94678036344)
(0.757638330787 -2.98513076353e-11 1.08800029353)
(0.975859537756 -1.58703144501e-11 1.39198754107)
(0.853486897024 -7.92410473146e-12 1.27548441548)
(0.885335507462 -3.19780874545e-12 1.4883075957)
(0.74544005948 -1.7854156416e-12 1.53496039712)
(0.733621779253 -2.65431423849e-12 1.63275661133)
(0.633115297148 -6.66974772013e-12 1.67619012828)
(0.57109063732 -3.69612148547e-12 1.72064126616)
(0.502807883102 -2.28980384873e-12 1.7517632474)
(0.450600276713 -5.99726086321e-12 1.77882418677)
(0.39062331531 -5.62365593265e-12 1.79865530664)
(0.348046937743 -1.39842728482e-12 1.81465639296)
(0.28721219823 -1.77882611926e-13 1.83007009571)
(0.256624534431 -9.51831957283e-14 1.83744160657)
(0.18770866049 -2.96095000338e-12 1.85303925044)
(0.174288200307 8.89500734348e-14 1.85508945528)
(0.0768086366538 5.65265688941e-12 1.89986202003)
(0.0878967507969 3.18609833227e-14 1.86159892494)
(0.000526056047411 1.53924381572e-11 7.46804294377)
(-0.0818881031366 -1.9450427652e-10 1.29511827789)
(0.260814128322 -5.88621485194e-11 1.06293513517)
(0.779043937489 -2.75774766567e-11 1.2901118896)
(0.956803445901 -1.18071782509e-11 1.64449383364)
(0.993509330229 -5.5597755274e-12 1.53489965376)
(0.859717833056 -1.16829887586e-11 1.54864462434)
(0.818152407 -1.2804287274e-11 1.59671028755)
(0.692352469914 -8.60089956514e-12 1.63330125266)
(0.617004935003 -4.48267173313e-12 1.68150167607)
(0.533975742405 -3.44300764605e-12 1.71334898981)
(0.472028804441 -1.20543228036e-11 1.74273647879)
(0.404299265807 -6.7001486076e-12 1.76460110483)
(0.358318483253 -1.76400512258e-12 1.78241891928)
(0.29334814624 1.42881773298e-14 1.7991887362)
(0.264000245476 -1.42136288231e-13 1.80777712794)
(0.191958059773 -2.575603425e-12 1.82425560445)
(0.189270112961 9.23385481343e-14 1.82728787054)
(0.0943701282068 5.47206373064e-12 1.87267055823)
(0.175798973378 -3.25689528079e-12 1.86933803011)
(0.302153792999 -1.08316257036e-10 10.5099235837)
(-0.683021922548 -1.96183384661e-10 1.22044922833)
(0.607688658258 -2.19280218547e-11 -0.333205591169)
(1.05793150251 -2.2845052934e-11 0.719153219352)
(1.03215924672 -1.44160277219e-11 1.47742741443)
(1.06333766281 -7.38749047682e-12 1.44649748926)
(0.965814388418 -8.26609593928e-12 1.55458007059)
(0.905824778156 -1.62095096739e-11 1.58687315878)
(0.767515095061 -1.03621137539e-11 1.61303234304)
(0.678974285862 -5.62020108851e-12 1.65085680933)
(0.580400128976 -8.0813237968e-12 1.67738059435)
(0.509474427608 -1.1024920822e-11 1.70548354442)
(0.432907124927 -1.21998084541e-11 1.72812406927)
(0.381630961501 -2.64442335234e-12 1.74704169355)
(0.310932382769 3.55936688631e-12 1.76445338046)
(0.280471404655 8.99910528493e-14 1.7739855386)
(0.203672067678 -2.33272831831e-12 1.78970719378)
(0.208280376448 1.19507638103e-13 1.79256004311)
(0.111803441692 7.21319510873e-12 1.82722502155)
(0.243312387014 -2.65767508254e-12 1.79505579009)
(-0.204313328819 -8.59872149132e-11 11.9611759624)
(-0.693128128656 -9.13219539958e-11 1.15677364251)
(-0.44294186265 3.91685574393e-11 -1.51214162714)
(0.873289665479 -3.46521956495e-12 -0.085999080131)
(1.10134937514 -1.06024442419e-11 1.21746196593)
(1.10077117412 -7.78698475289e-12 1.41298514561)
(1.06071560012 -1.68635700539e-11 1.58430969936)
(0.970730221145 -1.52586328867e-11 1.59335452894)
(0.842425068615 -1.08135191068e-11 1.60774716145)
(0.744995079364 -6.54039344418e-12 1.62162361576)
(0.635839946551 -7.91418974605e-12 1.64629458726)
(0.556592394841 -1.0510799858e-11 1.66967295434)
(0.47117936836 -1.07217525244e-11 1.69225776767)
(0.413127112087 -3.06520800969e-12 1.71171474466)
(0.335643335302 2.54409928958e-12 1.72910195076)
(0.302073930473 1.4416169949e-13 1.73924902298)
(0.219480051683 -2.16736038796e-12 1.7527125014)
(0.227235393192 1.34916810032e-13 1.75511523228)
(0.124682230868 6.77623590116e-12 1.77164387787)
(0.285368884281 -2.28545954437e-12 1.71394924018)
(-0.208720563891 -2.66741773063e-11 13.5073583287)
(-0.698184885024 1.50641386165e-10 1.94803886803)
(-0.842087801919 1.0244192194e-10 -2.16057090007)
(0.602150728116 1.15008736409e-11 -0.284703644703)
(1.06402154865 -5.11759435812e-12 0.979614360531)
(1.10430248052 -7.26586991856e-12 1.40092396919)
(1.0879578154 -1.22170614753e-11 1.59979565127)
(1.0171528726 -1.37100282772e-11 1.59122745)
(0.898426210629 -1.07904169587e-11 1.60106512284)
(0.807106117286 -8.05822157203e-12 1.59375105879)
(0.694146852953 -1.59698982445e-11 1.61683305272)
(0.604713871597 -1.1986614574e-11 1.63563696602)
(0.512045136059 -1.02861828959e-11 1.65717626494)
(0.446446748282 -3.44589611384e-12 1.67691833469)
(0.36191480561 1.87003354861e-12 1.69375529347)
(0.323953479773 1.61206568958e-13 1.7042013099)
(0.235544945291 -1.99906270093e-12 1.71439380064)
(0.242371886938 1.49773071956e-13 1.71668348228)
(0.13309073003 6.46853244067e-12 1.71266822781)
(0.284279503424 -2.04796404817e-12 1.64682430884)
(-0.103419214252 5.63560846001e-12 15.065748515)
(-0.72826185424 9.88378808438e-11 2.79770423394)
(-0.931556524229 1.71921978893e-10 -2.66165868756)
(0.453204215847 2.13180820292e-11 -0.972897814431)
(1.00735966662 -8.48156980298e-13 0.513305576758)
(1.09545689032 -6.04906372854e-12 1.24037623298)
(1.10823218914 -1.12669542503e-12 1.50570672522)
(1.04621171236 -9.40332000342e-12 1.55066476702)
(0.952014105713 -1.03506557781e-11 1.57037079618)
(0.860625067282 -1.78842537384e-11 1.5654273287)
(0.750684856674 -2.27348127473e-11 1.58478917584)
(0.651532262504 -1.40279756526e-11 1.60349053039)
(0.552533539483 -1.039486151e-11 1.623022149)
(0.479328061239 -4.18153455548e-12 1.64279781188)
(0.387746724722 1.0017003106e-12 1.65865641037)
(0.344408836248 1.18965625261e-13 1.66910389056)
(0.250608939776 -1.81715754509e-12 1.67548362079)
(0.253110960867 1.68389607899e-13 1.67803502152)
(0.138186221105 6.21601369932e-12 1.65601814473)
(0.261100398718 -1.81916690462e-12 1.59090321813)
(0.0654246627333 4.15535425936e-11 16.5413149861)
(-0.645400774119 2.00585989321e-10 3.86497740683)
(-0.883681331753 7.59095492665e-11 -2.90074548578)
(-0.00150639058013 3.52243994057e-11 -2.01772975084)
(1.06413356858 -6.94698423791e-13 -0.203270934725)
(1.15168324383 -7.32065262161e-12 0.959272047006)
(1.15022453569 -1.81742286851e-11 1.34116503296)
(1.11097818956 -1.40156767787e-11 1.48447736125)
(1.0132517304 -1.17479768222e-11 1.51995944263)
(0.917808370991 -1.49753907945e-11 1.54239532127)
(0.809285724581 -1.89087195731e-11 1.54929608417)
(0.699626784379 -1.41674010813e-11 1.57290758302)
(0.593206773364 -1.09295089335e-11 1.59076296848)
(0.512419930394 -9.07326277526e-12 1.60952078848)
(0.4136904727 -4.25369656775e-12 1.62407949162)
(0.363908232521 -4.25313573756e-13 1.63424933179)
(0.265109476938 -1.66701449084e-12 1.63667872742)
(0.260544022631 1.8722558332e-13 1.63971760207)
(0.141356939501 5.93630726211e-12 1.60390626514)
(0.230601483231 -1.58013624144e-12 1.54310250549)
(0.339771704202 3.57978034983e-11 17.5656974012)
(-0.256562269035 5.37983711805e-11 5.01548213637)
(-0.653557440545 3.64735271094e-11 -2.7947446102)
(-0.183977690047 8.23450903823e-11 -3.11829272513)
(1.04664061578 1.32098833477e-11 -0.976885826253)
(1.19565523314 -5.62426845693e-12 0.538771399962)
(1.19940117036 -1.18217240157e-11 1.171595423)
(1.1615977189 -1.20984885752e-11 1.39771122203)
(1.08202685716 -8.46539607098e-13 1.4752700584)
(0.975571705814 -1.06898939533e-11 1.51450350452)
(0.863181066069 -1.66335873608e-11 1.52065351538)
(0.752769066993 -1.4090367387e-11 1.54244281263)
(0.635090156723 -1.60841939041e-11 1.56156662569)
(0.546293558972 -9.42924904702e-12 1.57733833664)
(0.440591622632 -7.69758343681e-12 1.5903473127)
(0.383227578329 -9.38631198837e-13 1.59999301214)
(0.279682802158 -1.55576498858e-12 1.59863723518)
(0.266031129467 1.946713796e-13 1.60222845442)
(0.144105511803 5.4279937777e-12 1.5567883102)
(0.201844851547 -1.36530118162e-12 1.50164540466)
(0.686620337331 2.07601556226e-11 17.7801457549)
(0.299849635048 -4.42260201507e-11 5.80540254165)
(-0.188504142382 1.80565487026e-10 -2.41358543782)
(-0.19212444524 1.4663649617e-10 -3.88533782194)
(1.01191670988 3.69067867062e-11 -1.82284403439)
(1.24655969447 5.33753303094e-13 0.0178785290599)
(1.25281628812 -2.31298219183e-11 0.937985355017)
(1.22772028262 -1.56372628873e-11 1.29277864355)
(1.14975032262 -8.24771845237e-12 1.42641945124)
(1.03962256031 -1.13783616901e-11 1.47388307857)
(0.921355357913 -1.53948623008e-11 1.50406973862)
(0.806284980018 -8.55050301323e-12 1.51058608323)
(0.679589655679 -1.30847003682e-11 1.53558392117)
(0.580574378279 -9.55979936246e-12 1.54695961397)
(0.468672898216 -6.81331906779e-12 1.55777043658)
(0.402643966984 1.84352929743e-12 1.5666502566)
(0.294517496954 -1.51180985567e-12 1.56187409965)
(0.270492424528 1.06156959556e-13 1.56590952753)
(0.147104592168 8.11985301558e-13 1.51422150082)
(0.176861561067 -1.42748400234e-12 1.46440364652)
(1.05837750549 4.08694218313e-11 17.2427505239)
(0.881024430329 8.40921728966e-11 6.01493057457)
(0.333688920328 3.16862954602e-10 -1.90758761907)
(0.0320159401707 1.96312279328e-10 -4.20758103768)
(0.929851316106 5.6786585638e-11 -2.47878950854)
(1.2849734012 6.27311067759e-12 -0.512267677315)
(1.29955539011 -1.18303015572e-11 0.67948870584)
(1.27902191821 -1.32736652069e-11 1.1721478404)
(1.2096156287 -2.10694115809e-11 1.37256918778)
(1.11257259138 -1.54818061924e-11 1.44010162442)
(0.978735789509 -1.56975071334e-11 1.48791601268)
(0.858163884332 -1.73713463669e-11 1.48623399104)
(0.728231809577 -1.4099377676e-11 1.51144105657)
(0.614530915562 -1.0149350454e-11 1.51924695132)
(0.497454618662 -7.25777213641e-12 1.52672220038)
(0.422165585823 4.3559508094e-13 1.53437705403)
(0.309570044322 -6.89552741639e-12 1.52664882876)
(0.274529167001 -3.85277280997e-13 1.5309136218)
(0.150698482904 1.3959035726e-12 1.47564352624)
(0.156196678675 -5.25736075862e-12 1.43025677521)
(1.47010136236 5.40132764018e-11 15.9523736982)
(1.40403610179 1.21775598435e-10 5.79454602906)
(0.78098280749 3.56766690922e-10 -1.45879562157)
(0.400721852183 2.22104156212e-10 -4.11337940453)
(0.890155750792 6.91263182622e-11 -2.89831726886)
(1.31628964344 8.44914801038e-12 -1.06205927481)
(1.35023212914 -2.6423657815e-11 0.358512072872)
(1.34660199512 -1.82662737718e-11 0.999269436698)
(1.27927319323 -1.63150906541e-11 1.30027972963)
(1.18108068924 -1.50581951097e-11 1.40442277494)
(1.04077430898 -2.22963311366e-11 1.46292809152)
(0.909157352883 -1.73328434519e-11 1.47143379793)
(0.775485323512 -1.44350802005e-11 1.48815486754)
(0.648216245764 -1.09300282274e-11 1.49460744864)
(0.526132948476 -1.46746988362e-11 1.49770493143)
(0.441609332101 4.72803289494e-12 1.50312317806)
(0.324752355271 -4.58347936101e-12 1.49291099496)
(0.278589826548 -5.56558158214e-13 1.49717121326)
(0.154994624825 1.20772229966e-12 1.44036844042)
(0.13959466714 -4.29608457377e-12 1.3980979567)
(1.80071361285 1.31719095557e-10 13.9972022845)
(1.74951585988 1.34971953641e-10 5.25956460549)
(1.09180722995 2.46559805104e-10 -1.08546824253)
(0.753335998541 2.40255453399e-10 -3.88812937819)
(0.899838279898 7.55805061591e-11 -3.35728404734)
(1.39720712766 7.97357510591e-12 -1.67934399806)
(1.45343470764 -1.852957806e-11 -0.011749298097)
(1.43250407588 2.46714778735e-12 0.798857874959)
(1.36815028847 -2.1644805991e-11 1.22279162722)
(1.25543343125 -1.81358626334e-11 1.37778196173)
(1.11031037122 -1.94593367581e-11 1.44613731915)
(0.960928072066 -1.72258079335e-11 1.46975857358)
(0.821724514049 -1.93838897337e-11 1.46643366965)
(0.681923448979 -1.25165197431e-11 1.47344662047)
(0.553733688551 -1.5558344505e-11 1.47100559591)
(0.460603785887 1.0120591349e-12 1.47260716445)
(0.340034015044 -4.04847881965e-12 1.46034857022)
(0.283036549391 -7.50436090605e-13 1.4644276095)
(0.159974780743 9.69589815485e-13 1.40771599914)
(0.126887942562 -2.23176440086e-13 1.36728281316)
(1.8562772302 5.90690614133e-11 11.7360299209)
(1.73844471627 6.41681813361e-11 4.61268519611)
(1.17641250719 1.13131623355e-10 -0.883238422002)
(0.92829057201 1.86527984809e-10 -3.80976953866)
(1.04021838773 6.94423254336e-11 -4.01721585855)
(1.5643487656 4.00048770568e-12 -2.29412991014)
(1.65289462806 -5.28291613999e-11 -0.386615699765)
(1.60334040551 -2.62679701309e-11 0.672936040709)
(1.50301818247 -2.09158403561e-11 1.16530804867)
(1.33588333579 -1.91829447161e-11 1.36301862244)
(1.17904315451 -3.34389404297e-11 1.44165752418)
(1.0036652001 -2.21836655869e-11 1.47030587602)
(0.857394910664 -1.7950847413e-11 1.45469392397)
(0.715520198025 -9.0115373317e-12 1.45404323278)
(0.578684995194 -1.26008500744e-11 1.44680960006)
(0.478490717762 -5.36693588815e-13 1.44270346737)
(0.355380844015 -3.72036818382e-12 1.42858284444)
(0.28818443964 -9.19802553809e-13 1.43234688306)
(0.165635238556 8.21377929168e-13 1.37703377117)
(0.11755027828 -1.01731190336e-12 1.33753714655)
(1.66518511383 -9.34308941621e-11 9.62434534043)
(1.60358760448 -7.68013396429e-12 3.85381962951)
(1.41106475611 1.19277601017e-10 -1.10242392657)
(1.33714718482 1.35951106267e-10 -4.19235847814)
(1.53971515268 5.8295914882e-11 -4.95880072269)
(1.72139777812 1.11875841801e-12 -3.39110052929)
(1.77462551755 -2.14581996393e-11 -0.868711136223)
(1.7256744297 -1.99778262881e-11 0.656524547294)
(1.58577984226 -2.00277247324e-11 1.19738487081)
(1.41093528519 -2.00328748197e-11 1.41244212636)
(1.2395421045 -2.54680596083e-11 1.47315836916)
(1.04669011191 -2.15609373409e-11 1.47905111916)
(0.887935313544 -1.7576477941e-11 1.46047469636)
(0.742407175884 -1.1379542189e-11 1.43542023631)
(0.600853262496 -1.19104698866e-11 1.42426712796)
(0.494284000227 -1.85243948361e-12 1.41322061595)
(0.370606902562 -3.43937751023e-12 1.39712366465)
(0.294255687088 -1.0541441489e-12 1.40054504261)
(0.17207098416 7.13763349006e-13 1.34775559746)
(0.111108220274 -8.77007220191e-13 1.308580157)
(1.46035152911 7.26021623261e-11 7.52950470571)
(1.64714369115 -4.27835563146e-11 2.49918974366)
(1.77055198332 -1.94991595222e-11 -2.10383722354)
(1.73136617483 5.29909722589e-11 -5.1617696928)
(1.74837601232 4.05869484876e-11 -6.16500213263)
(1.77138206943 -1.11853704599e-11 -4.86248786645)
(1.79587235623 -2.6796122779e-11 -1.67281267505)
(1.7337379713 -2.401504402e-11 0.626398827232)
(1.60300847397 -3.88174405594e-11 1.35352216598)
(1.4260811906 -2.73140703321e-11 1.53529723321)
(1.24346330736 -2.60877473574e-11 1.53581204199)
(1.05827735009 -2.75270725643e-11 1.50300174374)
(0.894697374562 -1.46260800676e-11 1.46926368349)
(0.755142573744 -1.13560195833e-11 1.41874644497)
(0.618908687843 -1.15294627495e-11 1.40076557109)
(0.507238927299 -3.10318257099e-12 1.38319725629)
(0.385495319663 -3.2890833645e-12 1.3656342164)
(0.301530992259 -1.18129214141e-12 1.36870005438)
(0.179426064362 4.52267680409e-13 1.31958917671)
(0.107136151562 -8.35974920454e-13 1.28060663739)
(1.55775599254 -8.4974799342e-11 4.8431387979)
(1.92856000549 6.12292641156e-11 0.297472824377)
(2.04294981885 7.08361181341e-11 -3.61035803704)
(1.89083055076 6.31110058764e-11 -6.25518110879)
(1.70366177803 3.45826366351e-11 -7.129540453)
(1.53032982297 -4.0676059124e-11 -5.87533497686)
(1.49626571292 -3.48100387012e-11 -2.62689838032)
(1.46521552168 -2.82319504116e-11 0.43196778058)
(1.38805627489 -2.81203483995e-11 1.51273343474)
(1.28797076741 -2.54293159726e-11 1.7137991243)
(1.16546323855 -2.54597175675e-11 1.63410600989)
(1.0283381327 -2.43026837213e-11 1.55112259023)
(0.879857658306 -1.65770926588e-11 1.47274594943)
(0.754176509909 -1.24505681936e-11 1.4053344165)
(0.630460368032 -1.81839270127e-11 1.37153491573)
(0.517595580598 -5.35776889073e-12 1.34965989442)
(0.400180355014 -3.39469536841e-12 1.33260400506)
(0.310259353783 -1.41812503695e-12 1.3361387899)
(0.188158757668 -3.9913358994e-12 1.29190451245)
(0.105374530836 -4.89298100766e-12 1.2531449154)
(1.5789152146 -1.68248574369e-11 1.40652264832)
(1.78976162005 -3.89161041836e-11 -2.00181083592)
(1.69914440203 8.39489951721e-11 -4.8816682812)
(1.39011094012 5.53703682337e-11 -6.821214424)
(1.06734008715 2.65954044389e-11 -7.22415982608)
(0.847973454585 -4.98530471338e-12 -5.82859928291)
(0.997568967391 -3.83820492436e-11 -2.91551789006)
(1.05254361983 -3.04103272598e-11 -0.00315977869441)
(1.03801253857 -2.67287524827e-11 1.33152442163)
(1.00686894428 -2.51380610634e-11 1.65425270556)
(0.955225148758 -2.51097873034e-11 1.61984920631)
(0.904306703256 -2.33026459404e-11 1.53803694341)
(0.811794013969 -1.22045072081e-11 1.4370971484)
(0.730333767397 -1.20387111512e-11 1.37213390252)
(0.629861783435 -1.46468888781e-11 1.3265736933)
(0.52718050206 -6.51055547622e-12 1.30849201923)
(0.41618229049 -3.39869700265e-12 1.29631878366)
(0.32143431119 -1.61172827805e-12 1.30202798057)
(0.198699516102 -2.91288741254e-12 1.26441643047)
(0.105975452648 -3.93292654816e-12 1.22602270828)
(1.0603862372 -4.37061934439e-13 -1.34400847143)
(1.09480918622 3.40415684663e-11 -3.51373892143)
(0.91619418307 7.27254765037e-11 -5.49142741326)
(0.66717780524 3.93818518252e-11 -6.66115114902)
(0.28853399834 1.45323423405e-11 -6.54856313254)
(0.0702756478313 -1.3805385036e-11 -5.05481064013)
(0.0944667789451 -5.57218131472e-11 -2.73607639857)
(0.224738810651 -3.37669499111e-11 -0.348310499844)
(0.447725159638 -1.09871373635e-11 0.945402064062)
(0.670592875308 -2.1900759694e-11 1.30266859738)
(0.757464021973 -2.48480376514e-11 1.39724643941)
(0.77250628883 -2.85312483544e-11 1.38365616297)
(0.741340545339 -1.63502043842e-11 1.33845385186)
(0.703973436946 -1.31248816361e-11 1.29992990806)
(0.630495615996 -1.42988622118e-11 1.26254294957)
(0.542713952859 -1.33533503079e-11 1.25688014555)
(0.436041108407 6.47182200019e-13 1.25570883759)
(0.336439967984 -1.28219153451e-12 1.26564981337)
(0.212230620904 -2.95475894512e-12 1.23698144452)
(0.109064914456 -4.0804344586e-12 1.19950088738)
(0.34730233045 -8.11094207075e-11 -2.53202882053)
(0.247883786518 5.38918135379e-11 -4.02974156251)
(0.0934387134195 -1.202434529e-11 -5.31549414399)
(-0.216817943045 2.27896126615e-11 -5.8870039367)
(-0.69572724747 5.69435867963e-12 -5.42913912676)
(-0.79180423703 -2.03851350868e-11 -4.03608117002)
(-0.734074592125 -6.88924493201e-11 -2.38411668921)
(-0.49829470839 -3.50050339223e-11 -0.658034347682)
(-0.101267866227 -4.33454559998e-11 0.558582392775)
(0.313640273942 -2.72856534951e-11 0.956187219051)
(0.564778089896 -3.37268304687e-11 1.11914921737)
(0.674340387183 -1.97012155781e-11 1.1535941488)
(0.69953353322 -1.54123139025e-11 1.19279377591)
(0.689089187026 -1.34575930412e-11 1.18039924517)
(0.6426708889 -1.43095936073e-11 1.17952888186)
(0.568982580229 -1.67486916936e-11 1.1900111758)
(0.463880219042 2.34467839926e-12 1.20985765036)
(0.357365497498 -8.66166571285e-13 1.22818533646)
(0.229743955811 -2.72886738737e-12 1.21013430731)
(0.114811991133 -4.12229176424e-12 1.17329838745)
(-0.125611243396 -2.87516009892e-12 -2.51405217263)
(-0.303075356122 6.99195778825e-13 -3.58200953229)
(-0.565782766441 3.09092338707e-11 -4.39277434193)
(-0.977408680989 2.46068209317e-11 -4.6301499438)
(-1.11816178701 6.0283749262e-12 -4.13804825857)
(-1.09605428662 -8.6737425139e-12 -3.2035743063)
(-1.04181543897 -3.32609306171e-11 -2.12207185783)
(-0.698361797839 -3.11111311557e-11 -0.931885095743)
(-0.216375863889 -3.00038054989e-11 -0.121831960982)
(0.151370589281 -2.6114667405e-11 0.342207956462)
(0.392794400657 -1.7396007194e-11 0.648185145594)
(0.603827934663 -1.94984219957e-11 0.846102144377)
(0.686092569025 -1.58043977878e-11 0.950739521535)
(0.701605159576 -1.38542309253e-11 1.01078463795)
(0.682054761829 -1.41475559743e-11 1.08111982226)
(0.614450661726 -1.38292709303e-11 1.11196304919)
(0.507952227743 -4.80669775699e-13 1.1604306117)
(0.387399238 -7.38681924527e-13 1.19135189443)
(0.252262311058 1.47780031365e-12 1.18319130197)
(0.123699268601 -3.8743780745e-12 1.14757660608)
(-0.414304195396 -1.77036429055e-11 -1.66222500702)
(-0.694479617526 -5.64425570567e-11 -2.48237348401)
(-1.02770149179 3.16129664973e-11 -3.102182228)
(-1.37332250666 2.69811530425e-11 -3.2886226253)
(-1.37066454301 1.50326721027e-11 -2.92554448771)
(-1.30338534818 2.18651863401e-11 -2.47130655204)