/*--------------------------------*- C++ -*----------------------------------*\
  =========                 |
  \\      /  F ield         | OpenFOAM: The Open Source CFD Toolbox
   \\    /   O peration     | Website:  https://openfoam.org
    \\  /    A nd           | Version:  7
     \\/     M anipulation  |
\*---------------------------------------------------------------------------*/
FoamFile
{
    version     2.0;
    format      ascii;
    class       volScalarField;
    location    "0";
    object      alphat;
}
// * * * * * * * * * * * * * * * * * * * * * * * * * * * * * * * * * * * * * //

dimensions      [1 -1 -1 0 0 0 0];

internalField   uniform 0;

boundaryField
{
    inletAir
    {
        type            zeroGradient;
    }
    atmosphere
    {
        type            zeroGradient;
    }
    outlet
    {
        type            zeroGradient;
    }
    inletJet
    {
        type            zeroGradient;
    }
    inletSlot1
    {
        type            zeroGradient;
    }
    inletSlot2
    {
        type            zeroGradient;
    }
    jetWall
    {
        type            compressible::alphatWallFunction;
        Prt             0.85;
        value           nonuniform List<scalar> 
352
(
2.89409e-06
2.83705e-06
3.4486e-06
4.56255e-06
5.15205e-06
4.95388e-06
4.37745e-06
3.99867e-06
4.15225e-06
4.44437e-06
2.87943e-06
3.40417e-06
4.67774e-06
4.53502e-06
4.03242e-06
3.62121e-06
2.99027e-06
2.33795e-06
1.85429e-06
1.58584e-06
1.50437e-06
1.62377e-06
8.68281e-07
7.83199e-07
7.20554e-07
6.18168e-07
5.86317e-07
6.28257e-07
7.20983e-07
7.89237e-07
7.32944e-07
5.70125e-07
3.31749e-07
3.38202e-07
4.41101e-07
5.73291e-07
8.4511e-07
1.07747e-06
1.19239e-06
1.19017e-06
1.09613e-06
9.6896e-07
8.80069e-07
8.39601e-07
3.97819e-07
3.44712e-07
2.72482e-07
2.11546e-07
1.82005e-07
2.08697e-07
2.69079e-07
3.18894e-07
3.40715e-07
3.57177e-07
4.01094e-07
4.02082e-07
3.48075e-07
2.90715e-07
3.35694e-07
4.56368e-07
5.91638e-07
6.61275e-07
6.42099e-07
5.63129e-07
4.81938e-07
4.33045e-07
1.05344e-06
1.04581e-06
9.84601e-07
9.33286e-07
9.21472e-07
9.81616e-07
1.10199e-06
1.21528e-06
1.29968e-06
1.33061e-06
1.32769e-06
1.30808e-06
1.3041e-06
1.23153e-06
1.20513e-06
1.20931e-06
1.217e-06
1.18809e-06
1.12665e-06
1.06036e-06
1.02035e-06
9.89932e-07
2.82499e-06
2.85514e-06
2.78672e-06
2.33987e-06
1.92814e-06
1.79124e-06
1.90644e-06
2.41047e-06
3.69217e-06
5.49405e-06
3.18107e-06
2.53582e-06
3.40461e-06
2.7833e-06
2.22124e-06
1.99763e-06
2.13964e-06
2.45753e-06
3.13357e-06
3.51494e-06
3.32342e-06
2.90898e-06
5.81089e-07
5.93219e-07
6.25279e-07
6.28455e-07
6.22652e-07
6.43053e-07
7.00978e-07
7.91784e-07
9.45793e-07
1.00851e-06
1.01357e-06
9.70551e-07
8.82022e-07
6.62241e-07
5.5731e-07
5.24425e-07
5.60183e-07
6.44385e-07
7.87278e-07
8.60647e-07
9.23006e-07
9.28514e-07
2.63427e-07
2.81053e-07
3.13101e-07
3.72466e-07
4.25346e-07
4.60631e-07
4.48966e-07
4.18133e-07
4.00653e-07
3.88297e-07
4.91204e-07
4.77035e-07
3.84508e-07
3.73918e-07
4.2157e-07
4.48801e-07
4.10613e-07
3.69837e-07
3.55381e-07
3.92265e-07
4.47038e-07
4.68291e-07
9.95173e-07
1.04538e-06
1.11507e-06
1.21842e-06
1.31237e-06
1.35673e-06
1.33439e-06
1.24142e-06
1.14457e-06
1.04204e-06
1.05432e-06
1.09703e-06
1.16113e-06
1.25529e-06
1.35024e-06
1.37929e-06
1.32753e-06
1.23595e-06
1.12796e-06
1.06417e-06
1.06458e-06
1.10231e-06
1.65929e-06
1.85513e-06
1.9418e-06
1.71876e-06
1.57962e-06
1.69443e-06
1.97875e-06
2.30006e-06
2.50621e-06
2.58339e-06
1.70461e-06
1.70895e-06
3.16497e-06
2.31008e-06
2.01716e-06
1.86351e-06
1.80485e-06
1.98372e-06
2.32512e-06
2.57617e-06
2.62717e-06
2.58354e-06
7.47725e-07
7.74344e-07
7.46211e-07
7.15711e-07
7.35635e-07
7.58008e-07
7.52776e-07
7.18726e-07
6.67239e-07
5.60363e-07
4.38538e-07
4.7994e-07
4.53277e-07
4.9756e-07
5.64837e-07
6.58019e-07
7.50997e-07
8.17621e-07
8.32237e-07
7.77956e-07
6.75995e-07
6.09814e-07
4.64546e-07
4.74177e-07
4.34593e-07
4.28428e-07
4.63622e-07
5.04559e-07
5.17668e-07
4.97825e-07
4.53009e-07
3.58435e-07
3.31742e-07
2.77515e-07
1.93471e-07
2.21973e-07
2.90739e-07
3.73432e-07
4.50656e-07
4.83908e-07
4.66162e-07
4.10727e-07
3.38824e-07
3.04253e-07
1.30339e-06
1.29137e-06
1.26182e-06
1.30267e-06
1.3929e-06
1.49277e-06
1.53963e-06
1.50807e-06
1.41284e-06
1.25785e-06
1.12427e-06
1.00551e-06
9.22166e-07
9.65889e-07
1.04609e-06
1.14371e-06
1.19978e-06
1.20592e-06
1.16349e-06
1.10685e-06
1.04605e-06
1.03736e-06
2.06861e-06
2.96221e-06
4.2275e-06
4.82807e-06
4.40119e-06
3.70256e-06
3.388e-06
3.57522e-06
3.77286e-06
3.1213e-06
1.54897e-06
1.26255e-06
1.78633e-06
2.42054e-06
4.78513e-06
6.9852e-06
7.34811e-06
5.49452e-06
2.78427e-06
1.52459e-06
1.25734e-06
1.35467e-06
8.44352e-07
8.61975e-07
8.63136e-07
8.73672e-07
9.21883e-07
9.68738e-07
9.82475e-07
9.51126e-07
8.6706e-07
7.29653e-07
5.6032e-07
5.57086e-07
5.19123e-07
5.89379e-07
6.90589e-07
8.5098e-07
9.4106e-07
8.44905e-07
7.29144e-07
6.03417e-07
6.02143e-07
6.79088e-07
4.09826e-07
3.85125e-07
3.5824e-07
3.44519e-07
3.70221e-07
4.0114e-07
4.17122e-07
3.94317e-07
3.4517e-07
3.09142e-07
3.22806e-07
3.18272e-07
2.48188e-07
2.36891e-07
2.81771e-07
3.42845e-07
3.76634e-07
3.53904e-07
3.23154e-07
3.27028e-07
3.83574e-07
4.4407e-07
9.54625e-07
9.12504e-07
8.71861e-07
8.64482e-07
9.03942e-07
9.59092e-07
1.00798e-06
1.02562e-06
1.03859e-06
1.05974e-06
1.07864e-06
1.06132e-06
9.5582e-07
8.47736e-07
7.60646e-07
7.23349e-07
7.36396e-07
8.04968e-07
9.23822e-07
1.08087e-06
1.21142e-06
1.32129e-06
)
;
    }
    burnerSlot1Wall
    {
        type            compressible::alphatWallFunction;
        Prt             0.85;
        value           nonuniform List<scalar> 
2200
(
2.23163e-08
2.30027e-08
2.37714e-08
2.47916e-08
2.62964e-08
2.75406e-08
2.97028e-08
3.16874e-08
3.29917e-08
3.5747e-08
3.86089e-08
4.09876e-08
4.38682e-08
4.60063e-08
4.8108e-08
5.021e-08
5.23611e-08
5.50675e-08
5.80154e-08
6.11278e-08
6.35947e-08
6.5476e-08
1.09224e-07
1.10908e-07
1.11742e-07
1.13611e-07
1.15417e-07
1.17893e-07
1.20224e-07
1.23211e-07
1.25596e-07
1.29042e-07
1.31951e-07
1.34618e-07
1.37648e-07
1.40095e-07
1.4303e-07
1.45794e-07
1.48845e-07
1.5205e-07
1.54842e-07
1.58098e-07
1.60335e-07
1.62517e-07
9.76149e-09
1.02691e-08
1.10037e-08
1.20949e-08
1.34414e-08
1.51016e-08
1.66798e-08
1.82956e-08
1.95378e-08
2.02643e-08
2.06341e-08
1.97374e-08
1.77617e-08
1.53632e-08
1.26468e-08
9.78679e-09
7.14716e-09
5.19988e-09
4.63889e-09
5.67262e-09
8.08302e-09
1.12308e-08
1.04745e-08
1.15923e-08
1.29114e-08
1.4676e-08
1.67147e-08
1.8937e-08
2.13731e-08
2.39258e-08
2.61791e-08
2.81606e-08
2.97054e-08
3.02847e-08
3.01713e-08
2.97552e-08
2.90907e-08
2.81722e-08
2.73296e-08
2.66152e-08
2.63547e-08
2.64954e-08
2.7005e-08
2.76673e-08
8.56108e-09
8.58169e-09
8.93277e-09
9.85789e-09
1.10795e-08
1.25769e-08
1.42989e-08
1.60348e-08
1.74977e-08
1.84375e-08
1.88828e-08
1.84611e-08
1.71942e-08
1.52754e-08
1.2876e-08
1.01214e-08
7.38043e-09
5.24882e-09
4.82303e-09
6.54541e-09
1.01545e-08
1.44815e-08
6.0592e-09
6.59399e-09
7.33563e-09
8.48534e-09
1.01337e-08
1.21154e-08
1.43996e-08
1.64752e-08
1.81577e-08
1.90931e-08
1.92104e-08
1.85985e-08
1.73488e-08
1.53778e-08
1.30026e-08
1.02768e-08
7.55853e-09
5.34382e-09
4.81727e-09
6.59119e-09
1.05728e-08
1.53828e-08
7.10578e-09
7.38147e-09
8.1858e-09
9.5052e-09
1.10037e-08
1.27139e-08
1.45114e-08
1.58965e-08
1.67675e-08
1.69144e-08
1.62637e-08
1.52294e-08
1.39502e-08
1.21074e-08
9.78868e-09
7.09271e-09
4.09648e-09
1.33122e-09
2.58077e-10
3.45903e-09
8.81922e-09
1.51931e-08
6.95415e-09
7.5068e-09
8.38288e-09
9.64631e-09
1.11799e-08
1.2691e-08
1.40698e-08
1.48344e-08
1.5081e-08
1.46901e-08
1.37224e-08
1.26203e-08
1.14168e-08
9.86039e-09
8.01581e-09
6.03488e-09
3.87155e-09
2.16219e-09
2.03249e-09
5.05817e-09
1.01138e-08
1.60799e-08
7.16879e-09
7.98133e-09
8.93671e-09
1.01203e-08
1.14054e-08
1.2522e-08
1.33134e-08
1.34113e-08
1.29663e-08
1.19973e-08
1.0711e-08
9.88351e-09
9.57783e-09
9.29586e-09
8.79226e-09
8.17923e-09
7.35828e-09
6.86019e-09
7.4632e-09
1.00631e-08
1.40393e-08
1.86206e-08
6.95768e-09
8.31445e-09
9.58666e-09
1.05958e-08
1.13144e-08
1.17673e-08
1.20074e-08
1.15973e-08
1.0675e-08
9.39827e-09
8.33214e-09
8.01071e-09
8.39594e-09
8.9914e-09
9.63832e-09
1.0154e-08
1.04419e-08
1.06175e-08
1.14976e-08
1.34698e-08
1.60411e-08
1.87084e-08
6.53626e-09
8.37832e-09
9.95063e-09
1.07729e-08
1.09178e-08
1.08525e-08
1.08102e-08
1.02594e-08
9.36022e-09
8.16564e-09
7.5444e-09
7.87325e-09
9.20571e-09
1.07003e-08
1.23706e-08
1.36977e-08
1.44483e-08
1.46245e-08
1.48294e-08
1.56448e-08
1.65551e-08
1.73656e-08
5.69172e-09
7.64528e-09
9.33554e-09
1.01841e-08
1.01803e-08
9.90487e-09
9.86423e-09
9.33805e-09
8.64404e-09
7.40585e-09
6.87862e-09
7.18264e-09
8.7018e-09
1.0479e-08
1.25108e-08
1.40671e-08
1.4716e-08
1.45828e-08
1.3829e-08
1.34974e-08
1.32357e-08
1.3041e-08
4.86689e-09
6.34581e-09
7.59163e-09
8.56252e-09
9.18412e-09
9.12126e-09
9.3312e-09
8.76519e-09
8.46317e-09
7.21516e-09
6.77405e-09
6.8569e-09
8.3924e-09
1.00803e-08
1.20292e-08
1.32285e-08
1.35174e-08
1.31562e-08
1.20712e-08
1.13207e-08
1.04975e-08
1.00329e-08
4.20932e-09
4.86855e-09
5.40314e-09
6.2995e-09
7.71864e-09
7.7576e-09
7.84518e-09
6.863e-09
6.71626e-09
5.82145e-09
5.78659e-09
5.93483e-09
7.20317e-09
8.62009e-09
9.89655e-09
1.06355e-08
1.05215e-08
1.03536e-08
9.70718e-09
9.61351e-09
8.89202e-09
8.38148e-09
3.3198e-09
3.41527e-09
3.2452e-09
3.68745e-09
5.30194e-09
5.61799e-09
5.7896e-09
4.45028e-09
4.21174e-09
3.74955e-09
4.57836e-09
4.93822e-09
6.13163e-09
6.971e-09
7.64249e-09
8.02026e-09
8.01639e-09
8.11376e-09
8.03271e-09
8.97104e-09
8.7675e-09
8.24502e-09
2.68192e-09
2.66937e-09
2.39615e-09
2.65914e-09
4.18867e-09
4.31972e-09
4.47646e-09
3.1226e-09
2.84805e-09
2.73414e-09
3.87005e-09
4.62086e-09
5.3559e-09
5.77502e-09
5.18007e-09
5.46505e-09
5.32814e-09
6.22961e-09
6.2932e-09
8.01999e-09
8.49109e-09
8.47953e-09
3.88048e-09
3.85166e-09
2.5331e-09
2.80619e-09
2.64418e-09
2.61122e-09
2.80457e-09
1.89932e-09
1.61066e-09
9.59293e-10
2.07464e-09
2.52714e-09
2.91158e-09
2.31135e-09
1.6286e-09
1.24249e-09
1.19069e-09
1.73536e-09
2.28591e-09
4.45924e-09
5.35979e-09
6.50893e-09
2.66374e-09
2.84744e-09
1.63938e-09
1.12572e-09
1.84044e-09
2.56537e-09
3.75153e-09
3.11872e-09
3.30587e-09
3.00784e-09
3.96234e-09
3.56362e-09
2.25867e-09
1.33378e-09
1.08432e-09
1.00397e-09
6.89541e-10
9.52156e-10
2.02481e-09
4.60918e-09
5.90288e-09
7.37152e-09
2.49262e-09
2.96946e-09
1.71599e-09
1.40442e-09
4.46107e-10
1.15213e-09
1.56393e-09
9.63977e-10
1.28733e-09
1.71312e-09
2.58074e-09
8.6761e-10
9.90792e-10
2.9238e-09
5.03645e-09
3.58308e-09
2.70443e-09
2.65022e-09
4.37429e-09
5.21593e-09
5.15588e-09
5.41227e-09
2.31796e-09
1.19636e-09
8.27227e-10
5.70469e-10
2.29407e-09
2.80921e-09
4.80872e-09
4.89845e-09
7.0461e-09
9.67435e-09
9.93912e-09
6.16537e-09
1.71897e-09
4.95274e-10
3.36965e-09
2.71359e-09
1.57422e-09
1.01205e-09
4.89696e-09
7.80307e-09
8.17827e-09
8.61865e-09
2.65704e-09
2.02751e-09
5.64135e-10
4.46271e-10
6.97206e-10
1.08931e-09
2.17791e-09
8.98975e-10
1.63828e-09
3.58221e-09
3.37195e-09
1.24477e-09
3.74983e-09
1.07212e-08
1.28981e-08
1.12675e-08
6.17985e-09
5.87626e-09
8.69435e-09
1.09572e-08
1.04221e-08
1.08427e-08
2.38093e-08
1.35644e-08
5.78838e-09
3.43475e-09
4.72093e-09
8.94683e-09
8.59468e-09
7.61397e-09
1.33061e-08
2.6531e-08
3.28499e-08
2.82842e-08
1.52482e-08
2.47094e-09
3.34197e-09
7.93856e-09
8.15037e-09
6.11027e-09
7.19112e-09
1.4929e-08
1.93197e-08
1.90442e-08
5.57512e-08
3.9995e-08
1.53952e-08
7.66793e-09
1.43118e-08
2.45653e-08
1.62455e-08
1.1399e-08
1.7526e-08
4.34311e-08
5.92921e-08
4.80208e-08
2.14345e-08
8.56332e-09
7.76252e-09
2.21113e-08
2.93568e-08
2.03496e-08
4.29575e-09
1.52335e-08
1.84906e-08
2.39008e-08
1.40561e-07
1.17416e-07
7.32739e-08
5.4705e-08
5.54714e-08
8.31068e-08
7.72537e-08
8.00458e-08
1.04407e-07
1.23251e-07
1.51972e-07
1.62079e-07
1.39309e-07
1.08488e-07
1.18331e-07
1.63755e-07
1.63875e-07
1.67858e-07
1.01478e-07
8.11644e-08
1.17274e-07
1.20467e-07
2.56961e-08
2.23349e-08
1.13459e-08
4.05317e-09
4.86584e-09
6.35425e-09
7.23636e-09
8.65096e-09
9.4609e-09
1.16193e-08
2.97106e-08
2.71611e-08
1.72723e-08
1.32585e-08
1.79683e-08
2.88671e-08
4.07406e-08
3.62383e-08
8.08128e-09
8.56777e-08
1.51432e-07
1.10618e-07
2.7934e-08
2.91246e-08
3.05593e-08
3.17594e-08
3.22762e-08
3.28454e-08
3.25273e-08
3.18931e-08
3.07475e-08
2.94211e-08
2.76764e-08
2.55892e-08
2.33245e-08
2.17759e-08
2.07115e-08
1.96495e-08
1.95819e-08
1.99238e-08
2.043e-08
2.13367e-08
2.16981e-08
2.2232e-08
1.34458e-07
1.35908e-07
1.37199e-07
1.37938e-07
1.37267e-07
1.35734e-07
1.32769e-07
1.28754e-07
1.23646e-07
1.18646e-07
1.13001e-07
1.08274e-07
1.04943e-07
1.02041e-07
1.01167e-07
1.00604e-07
1.01537e-07
1.02379e-07
1.04084e-07
1.05345e-07
1.06632e-07
1.08694e-07
2.67415e-08
3.1069e-08
3.54814e-08
3.93031e-08
4.20411e-08
4.32822e-08
4.30035e-08
4.11335e-08
3.76731e-08
3.298e-08
2.75633e-08
2.09022e-08
1.41912e-08
9.15604e-09
6.19691e-09
5.26191e-09
5.62092e-09
6.47481e-09
7.48042e-09
8.39246e-09
8.90744e-09
9.48839e-09
3.97105e-08
4.45206e-08
4.92245e-08
5.30838e-08
5.54358e-08
5.58387e-08
5.4072e-08
5.02596e-08
4.45475e-08
3.74849e-08
2.97153e-08
2.15259e-08
1.41324e-08
8.48183e-09
4.86285e-09
3.04476e-09
2.9706e-09
3.86959e-09
5.26226e-09
6.74925e-09
8.24016e-09
9.45601e-09
1.11924e-08
1.68526e-08
2.31869e-08
2.94298e-08
3.48279e-08
3.87883e-08
4.10695e-08
4.14913e-08
4.00703e-08
3.68673e-08
3.18878e-08
2.52624e-08
1.86256e-08
1.3322e-08
1.00455e-08
8.68161e-09
8.24765e-09
8.40308e-09
8.65008e-09
8.94285e-09
8.90034e-09
8.82822e-09
6.85317e-09
1.20862e-08
1.82953e-08
2.4741e-08
3.07086e-08
3.54149e-08
3.84609e-08
3.96906e-08
3.89009e-08
3.60528e-08
3.13411e-08
2.43946e-08
1.66143e-08
9.75965e-09
4.88029e-09
2.08261e-09
1.26158e-09
1.91488e-09
2.98511e-09
4.08751e-09
4.94183e-09
5.57242e-09
6.22582e-09
9.41111e-09
1.42021e-08
1.989e-08
2.56292e-08
3.0777e-08
3.48521e-08
3.76752e-08
3.89982e-08
3.82052e-08
3.49182e-08
2.89112e-08
2.15507e-08
1.46768e-08
9.75064e-09
6.85851e-09
5.5602e-09
5.39514e-09
5.68455e-09
6.33853e-09
6.76371e-09
7.04239e-09
1.05496e-08
1.19417e-08
1.50511e-08
1.94457e-08
2.41168e-08
2.83965e-08
3.20594e-08
3.50601e-08
3.70296e-08
3.72772e-08
3.4797e-08
2.9026e-08
2.15313e-08
1.40637e-08
8.2876e-09
4.60976e-09
3.03647e-09
3.04486e-09
3.72639e-09
4.79459e-09
5.69068e-09
6.44552e-09
1.97553e-08
1.97681e-08
2.10729e-08
2.38402e-08
2.69946e-08
2.99188e-08
3.22742e-08
3.43976e-08
3.61417e-08
3.67191e-08
3.48946e-08
2.96305e-08
2.22152e-08
1.47025e-08
8.69587e-09
4.49214e-09
2.53476e-09
2.42386e-09
3.2189e-09
4.47416e-09
5.53295e-09
6.46351e-09
2.63218e-08
2.54712e-08
2.56112e-08
2.73539e-08
2.93946e-08
3.13149e-08
3.26288e-08
3.38186e-08
3.47502e-08
3.49771e-08
3.31615e-08
2.81174e-08
2.07558e-08
1.32663e-08
7.30492e-09
3.15316e-09
1.24746e-09
1.26587e-09
2.18902e-09
3.48608e-09
4.64684e-09
5.8636e-09
3.10995e-08
2.97917e-08
2.94264e-08
3.10044e-08
3.29488e-08
3.47356e-08
3.5491e-08
3.58586e-08
3.58439e-08
3.52104e-08
3.28949e-08
2.75964e-08
2.00365e-08
1.23507e-08
6.45058e-09
2.56802e-09
8.74978e-10
7.88817e-10
1.51121e-09
2.67306e-09
3.77057e-09
5.12332e-09
2.85577e-08
2.72795e-08
2.72529e-08
2.97477e-08
3.24837e-08
3.4454e-08
3.49162e-08
3.49402e-08
3.45122e-08
3.32234e-08
3.03185e-08
2.46338e-08
1.71865e-08
9.80235e-09
4.557e-09
1.48174e-09
4.17703e-10
4.35779e-10
9.75058e-10
1.92107e-09
2.92098e-09
4.22902e-09
2.07831e-08
1.95488e-08
2.02762e-08
2.41446e-08
2.81122e-08
3.06346e-08
3.15646e-08
3.19661e-08
3.19159e-08
3.06261e-08
2.75735e-08
2.17638e-08
1.45434e-08
7.50953e-09
3.11331e-09
8.31365e-10
1.75037e-10
2.59528e-10
5.8147e-10
1.33341e-09
2.2855e-09
3.57101e-09
1.30195e-08
1.10467e-08
1.11665e-08
1.41886e-08
1.78211e-08
2.05165e-08
2.22451e-08
2.32776e-08
2.3882e-08
2.31839e-08
2.11344e-08
1.61217e-08
9.91911e-09
4.08096e-09
1.33621e-09
2.32521e-10
2.83681e-10
5.41949e-10
5.26978e-10
9.3026e-10
1.80082e-09
3.11903e-09
8.45007e-09
5.94167e-09
4.34599e-09
4.95713e-09
6.75524e-09
9.1651e-09
1.14015e-08
1.3089e-08
1.43589e-08
1.48177e-08
1.41153e-08
1.01041e-08
4.8603e-09
8.42458e-10
1.90489e-10
1.27745e-09
1.70257e-09
2.0856e-09
1.65504e-09
1.46965e-09
1.43916e-09
2.53866e-09
7.01897e-09
4.43627e-09
2.24858e-09
8.10814e-10
1.34566e-09
3.05796e-09
4.64978e-09
6.02671e-09
7.46168e-09
8.51392e-09
8.33265e-09
4.49179e-09
8.08822e-10
1.01374e-09
2.43258e-09
4.44753e-09
4.42861e-09
4.68902e-09
3.62822e-09
3.47192e-09
2.18602e-09
2.50511e-09
6.32566e-09
5.50957e-09
3.83776e-09
2.65826e-09
1.55397e-09
1.369e-09
1.58729e-09
2.5639e-09
3.89245e-09
6.03891e-09
5.57148e-09
2.4664e-09
2.26986e-09
6.15533e-09
8.52576e-09
1.22674e-08
1.2432e-08
1.26628e-08
1.05339e-08
9.19032e-09
5.972e-09
5.11524e-09
7.64453e-09
6.99485e-09
4.7e-09
3.76246e-09
3.17266e-09
3.43741e-09
3.70187e-09
3.71764e-09
3.62557e-09
5.72414e-09
4.85752e-09
2.70685e-09
4.29894e-09
8.56593e-09
1.17264e-08
1.61392e-08
1.52754e-08
1.6345e-08
1.29651e-08
1.09671e-08
5.28634e-09
3.89894e-09
1.29787e-08
1.29066e-08
8.4527e-09
9.48597e-09
8.35778e-09
8.05558e-09
7.30576e-09
7.28219e-09
6.07323e-09
8.42691e-09
7.16424e-09
5.58353e-09
7.60805e-09
1.34469e-08
1.87523e-08
2.48926e-08
2.53064e-08
2.73736e-08
2.35298e-08
1.80743e-08
9.30348e-09
4.7734e-09
8.50489e-09
5.88761e-09
3.85236e-09
4.9501e-09
5.15213e-09
4.14537e-09
3.32727e-09
4.59926e-09
4.02601e-09
6.41556e-09
4.29304e-09
1.20357e-09
4.3817e-09
9.71162e-09
1.49601e-08
2.00226e-08
1.92564e-08
2.22212e-08
1.71132e-08
1.27515e-08
5.21881e-09
1.50206e-09
1.13024e-08
7.28767e-09
3.11713e-09
7.38133e-09
5.53658e-09
3.72263e-09
2.08404e-09
3.9852e-09
4.72305e-09
9.9298e-09
8.31815e-09
3.681e-09
5.11276e-09
1.33419e-08
2.31769e-08
3.00397e-08
3.12889e-08
3.40184e-08
2.97884e-08
1.98254e-08
1.10368e-08
3.17728e-09
3.72149e-09
8.88624e-09
7.93234e-09
9.2309e-09
4.91716e-09
4.59931e-09
5.01787e-09
3.41002e-09
4.58532e-10
2.99625e-09
4.28798e-09
7.09756e-09
1.90289e-08
2.44545e-08
2.31827e-08
2.26317e-08
2.00744e-08
1.91901e-08
1.45518e-08
1.65935e-08
2.27736e-08
2.68532e-08
3.37374e-09
3.21394e-09
1.54492e-08
7.70354e-09
7.78618e-09
2.8086e-09
2.8277e-09
2.44565e-09
3.27677e-09
4.51488e-09
1.22274e-08
1.66552e-08
2.97517e-08
4.98296e-08
4.33571e-08
3.01259e-08
1.74007e-08
1.23809e-08
1.85598e-08
3.33451e-08
5.26895e-08
7.48521e-08
1.20912e-07
1.14878e-07
7.76894e-08
1.10046e-07
1.16845e-07
5.91667e-08
4.79636e-08
8.17871e-08
1.03911e-07
8.22223e-08
6.97764e-08
8.28089e-08
1.29651e-07
1.27143e-07
1.07843e-07
9.47838e-08
8.98592e-08
5.85485e-08
8.64389e-08
1.43898e-07
1.72228e-07
1.60206e-07
8.75342e-08
5.42558e-08
1.67364e-08
5.05753e-08
6.66414e-08
1.17001e-07
1.36592e-07
1.54431e-07
9.82548e-08
5.00278e-08
1.29844e-08
1.46766e-08
1.83048e-08
1.93773e-08
2.04973e-08
1.11114e-08
1.1223e-08
7.92466e-09
1.84398e-08
2.78816e-08
2.78284e-08
2.61233e-08
3.78411e-08
3.90508e-08
4.12377e-08
4.18929e-08
4.25044e-08
4.34126e-08
4.4552e-08
4.51749e-08
4.55816e-08
4.62864e-08
4.59595e-08
4.57248e-08
4.60433e-08
4.38054e-08
4.17333e-08
3.91817e-08
3.66382e-08
3.37555e-08
3.14416e-08
2.96199e-08
2.83656e-08
2.80583e-08
1.2891e-07
1.29928e-07
1.34319e-07
1.35444e-07
1.39952e-07
1.42759e-07
1.46706e-07
1.49895e-07
1.53372e-07
1.56951e-07
1.57801e-07
1.59359e-07
1.58074e-07
1.56108e-07
1.52473e-07
1.48419e-07
1.44119e-07
1.40418e-07
1.37366e-07
1.35111e-07
1.33805e-07
1.33749e-07
6.32641e-09
7.70931e-09
1.0954e-08
1.47828e-08
1.94417e-08
2.40474e-08
2.8422e-08
3.19339e-08
3.42216e-08
3.54724e-08
3.56116e-08
3.38598e-08
3.12025e-08
2.80913e-08
2.50349e-08
2.21232e-08
1.98318e-08
1.82806e-08
1.77283e-08
1.8254e-08
1.99985e-08
2.29487e-08
4.11083e-09
7.72221e-09
1.19987e-08
1.70126e-08
2.21075e-08
2.71403e-08
3.14385e-08
3.47291e-08
3.69488e-08
3.84791e-08
3.94257e-08
3.91883e-08
3.77401e-08
3.60218e-08
3.408e-08
3.21245e-08
3.04062e-08
2.92949e-08
2.90609e-08
2.99692e-08
3.20793e-08
3.54258e-08
5.77721e-09
7.87155e-09
1.1188e-08
1.51414e-08
1.93545e-08
2.31015e-08
2.58962e-08
2.76075e-08
2.85831e-08
2.867e-08
2.80396e-08
2.61793e-08
2.34463e-08
2.04056e-08
1.71338e-08
1.36177e-08
1.01684e-08
7.02159e-09
4.54009e-09
3.35372e-09
4.07093e-09
6.7764e-09
5.47948e-09
7.881e-09
1.11723e-08
1.49801e-08
1.86293e-08
2.17743e-08
2.40734e-08
2.5375e-08
2.58622e-08
2.55977e-08
2.48121e-08
2.30054e-08
2.04909e-08
1.77909e-08
1.50024e-08
1.21147e-08
9.26594e-09
6.49832e-09
3.92761e-09
1.85794e-09
1.1928e-09
3.05429e-09
6.90221e-09
9.48115e-09
1.27456e-08
1.61649e-08
1.93266e-08
2.17806e-08
2.35408e-08
2.44613e-08
2.4868e-08
2.45569e-08
2.39149e-08
2.24973e-08
2.06392e-08
1.87432e-08
1.69757e-08
1.52332e-08
1.35644e-08
1.18306e-08
9.90487e-09
7.88321e-09
6.02549e-09
5.17162e-09
5.73788e-09
8.48985e-09
1.17495e-08
1.48102e-08
1.7499e-08
1.94887e-08
2.10986e-08
2.20835e-08
2.27285e-08
2.27173e-08
2.24113e-08
2.14135e-08
2.02993e-08
1.94021e-08
1.87757e-08
1.8264e-08
1.77971e-08
1.72289e-08
1.61569e-08
1.4653e-08
1.26771e-08
1.11074e-08
5.19079e-09
8.05961e-09
1.13424e-08
1.42605e-08
1.68564e-08
1.87873e-08
2.06922e-08
2.21331e-08
2.34367e-08
2.3922e-08
2.41242e-08
2.3611e-08
2.32139e-08
2.32093e-08
2.3734e-08
2.4525e-08
2.52653e-08
2.59388e-08
2.57577e-08
2.50065e-08
2.31244e-08
2.13464e-08
3.65461e-09
6.22544e-09
9.20238e-09
1.18767e-08
1.44935e-08
1.65914e-08
1.89701e-08
2.10298e-08
2.31775e-08
2.43384e-08
2.50934e-08
2.48764e-08
2.47787e-08
2.52837e-08
2.6515e-08
2.82192e-08
2.97397e-08
3.133e-08
3.18224e-08
3.17834e-08
3.01716e-08
2.84215e-08
2.77177e-09
4.77598e-09
7.42709e-09
1.0049e-08
1.29898e-08
1.55822e-08
1.87925e-08
2.16999e-08
2.4873e-08
2.68863e-08
2.8318e-08
2.83674e-08
2.82878e-08
2.88112e-08
3.02955e-08
3.24547e-08
3.41605e-08
3.60617e-08
3.65723e-08
3.68453e-08
3.52413e-08
3.35933e-08
2.14414e-09
3.30913e-09
5.23828e-09
7.46964e-09
1.0255e-08
1.31761e-08
1.69904e-08
2.08259e-08
2.49425e-08
2.78204e-08
2.98221e-08
2.99015e-08
2.9306e-08
2.91556e-08
2.99609e-08
3.17548e-08
3.28997e-08
3.44705e-08
3.44535e-08
3.45855e-08
3.28284e-08
3.11574e-08
2.7941e-09
3.33844e-09
4.71956e-09
6.47789e-09
8.81029e-09
1.17199e-08
1.59154e-08
2.05941e-08
2.53736e-08
2.88839e-08
3.13736e-08
3.14366e-08
2.9873e-08
2.82326e-08
2.74133e-08
2.80867e-08
2.8093e-08
2.88609e-08
2.78908e-08
2.74889e-08
2.53973e-08
2.3578e-08
4.76806e-09
4.6691e-09
5.13569e-09
6.3004e-09
7.72177e-09
1.05942e-08
1.43523e-08
1.897e-08
2.35522e-08
2.74475e-08
3.02889e-08
3.08806e-08
2.86301e-08
2.55105e-08
2.25535e-08
2.17715e-08
2.06631e-08
2.06134e-08
1.92037e-08
1.86737e-08
1.71654e-08
1.56308e-08
6.30279e-09
5.67552e-09
4.94416e-09
5.23225e-09
5.72026e-09
8.44131e-09
1.13434e-08
1.50616e-08
1.86758e-08
2.2322e-08
2.51414e-08
2.68316e-08
2.48839e-08
2.1183e-08
1.6593e-08
1.44646e-08
1.2357e-08
1.20816e-08
1.09344e-08
1.10414e-08
1.05911e-08
1.03387e-08
8.12533e-09
7.32701e-09
5.29845e-09
5.49022e-09
5.17128e-09
8.59515e-09
1.0434e-08
1.36713e-08
1.67694e-08
2.04003e-08
2.25366e-08
2.45458e-08
2.32436e-08
1.98573e-08
1.45287e-08
1.13003e-08
8.25355e-09
7.6849e-09
6.95793e-09
7.29965e-09
7.57646e-09
7.8662e-09
7.81889e-09
7.10031e-09
3.65974e-09
3.89556e-09
2.97314e-09
6.47401e-09
6.78707e-09
9.36232e-09
1.19472e-08
1.57788e-08
1.70539e-08
1.89261e-08
1.77685e-08
1.53472e-08
1.0558e-08
7.36745e-09
4.39422e-09
3.60708e-09
3.02491e-09
2.62143e-09
3.51259e-09
5.03274e-09
8.25028e-09
8.72592e-09
4.72991e-09
6.06066e-09
4.20921e-09
8.77179e-09
8.14154e-09
1.15214e-08
1.47423e-08
1.88875e-08
2.05281e-08
2.24032e-08
2.06066e-08
1.7082e-08
1.22434e-08
9.30696e-09
5.79144e-09
4.08538e-09
3.14519e-09
2.59199e-09
3.90632e-09
5.75749e-09
6.27535e-09
7.51052e-09
2.21005e-09
3.61991e-09
1.656e-09
5.61836e-09
4.29967e-09
7.51828e-09
7.19127e-09
8.9441e-09
1.11076e-08
1.6186e-08
1.64146e-08
1.41499e-08
1.05949e-08
9.28333e-09
7.27289e-09
6.16532e-09
7.11001e-09
9.08723e-09
1.11157e-08
1.35952e-08
8.45124e-09
1.24601e-08
7.57329e-09
9.5812e-09
4.23495e-09
8.05882e-09
5.53618e-09
9.63771e-09
9.5937e-09
1.29838e-08
1.81593e-08
2.51342e-08
2.53232e-08
1.86158e-08
1.38396e-08
1.17756e-08
8.0786e-09
5.83766e-09
6.65711e-09
7.76969e-09
1.06292e-08
9.84125e-09
3.60057e-09
8.29673e-09
1.67786e-09
3.18183e-09
2.50642e-10
3.50214e-09
3.42786e-09
7.99615e-09
7.10316e-09
2.79264e-09
3.01067e-09
1.33171e-08
2.01778e-08
1.74556e-08
1.24598e-08
1.18584e-08
9.30506e-09
8.83982e-09
1.07994e-08
1.87097e-08
2.34556e-08
2.47636e-08
2.06788e-08
3.5583e-08
3.48665e-08
2.88238e-08
1.40132e-08
1.20721e-08
8.15741e-09
8.90656e-09
6.50866e-09
7.39674e-09
1.40582e-08
2.69656e-08
3.55277e-08
2.24299e-08
1.64102e-08
1.59305e-08
1.60795e-08
1.43229e-08
1.5819e-08
1.15534e-08
6.14819e-09
5.5852e-10
1.17774e-09
1.54427e-08
2.60222e-08
3.00536e-08
1.57984e-08
4.04588e-09
6.8202e-09
1.19962e-08
1.80819e-08
8.75536e-09
2.11327e-08
4.77973e-08
6.09783e-08
3.8338e-08
2.71488e-08
2.06655e-08
2.5606e-08
2.3323e-08
2.48153e-08
1.15689e-08
1.25264e-08
1.95395e-08
7.8217e-08
1.02731e-07
1.67816e-07
1.46094e-07
1.34778e-07
1.34466e-07
1.41215e-07
9.60739e-08
6.98768e-08
9.20132e-08
1.28876e-07
1.31602e-07
1.58031e-07
1.54552e-07
9.07776e-08
7.9102e-08
8.79056e-08
8.72358e-08
1.22207e-07
1.47482e-07
1.24722e-07
1.30672e-07
1.87934e-07
1.08108e-07
5.8675e-08
2.92701e-08
4.87011e-08
1.13921e-07
1.96984e-07
1.74248e-07
1.05037e-07
2.32945e-08
6.24171e-09
1.54382e-08
2.15648e-08
1.82979e-08
8.46317e-09
1.34194e-08
1.69511e-08
1.41907e-08
1.58995e-08
4.33286e-08
6.38379e-08
1.16117e-07
6.61153e-08
6.64105e-08
6.63395e-08
6.72648e-08
6.63113e-08
6.45914e-08
6.33033e-08
6.14496e-08
5.93278e-08
5.66178e-08
5.55887e-08
5.27141e-08
5.32265e-08
4.99335e-08
4.84872e-08
4.52455e-08
4.14123e-08
3.88139e-08
3.65469e-08
3.51036e-08
3.50796e-08
3.72699e-08
1.63143e-07
1.62749e-07
1.61145e-07
1.58866e-07
1.56439e-07
1.54477e-07
1.51755e-07
1.50073e-07
1.4817e-07
1.47719e-07
1.46561e-07
1.47191e-07
1.46172e-07
1.44659e-07
1.42271e-07
1.39326e-07
1.35359e-07
1.31485e-07
1.28043e-07
1.25902e-07
1.25473e-07
1.26479e-07
1.45188e-08
1.73043e-08
1.91923e-08
2.00331e-08
1.97135e-08
1.84732e-08
1.66012e-08
1.4797e-08
1.30012e-08
1.20256e-08
1.18486e-08
1.24278e-08
1.37305e-08
1.56439e-08
1.78181e-08
1.88209e-08
1.83796e-08
1.63234e-08
1.34483e-08
1.03647e-08
7.83687e-09
6.37593e-09
2.80757e-08
2.78225e-08
2.67226e-08
2.47448e-08
2.17784e-08
1.86892e-08
1.53239e-08
1.24394e-08
9.91825e-09
8.47948e-09
7.95502e-09
8.10399e-09
9.56207e-09
1.16404e-08
1.3572e-08
1.41661e-08
1.30363e-08
1.05297e-08
6.89304e-09
3.46292e-09
1.07627e-09
1.64871e-09
1.8403e-08
2.105e-08
2.19547e-08
2.14049e-08
1.94927e-08
1.68503e-08
1.38425e-08
1.13604e-08
9.23669e-09
8.36492e-09
8.27605e-09
9.01529e-09
1.09873e-08
1.4115e-08
1.68797e-08
1.82322e-08
1.79021e-08
1.57151e-08
1.21793e-08
8.90698e-09
6.36394e-09
5.3496e-09
1.97007e-08
2.24065e-08
2.30745e-08
2.18782e-08
1.92402e-08
1.60225e-08
1.27831e-08
1.01099e-08
7.95504e-09
7.00013e-09
6.97701e-09
7.95122e-09
1.03089e-08
1.40321e-08
1.6997e-08
1.84069e-08
1.75373e-08
1.46e-08
1.07492e-08
7.3818e-09
5.02565e-09
4.50859e-09
2.0768e-08
2.41572e-08
2.47051e-08
2.31904e-08
2.02562e-08
1.68391e-08
1.34716e-08
1.08647e-08
8.87423e-09
8.13666e-09
8.21611e-09
9.36058e-09
1.20067e-08
1.59297e-08
1.86757e-08
1.96763e-08
1.78709e-08
1.44032e-08
1.06138e-08
7.65784e-09
5.75511e-09
5.69049e-09
2.0975e-08
2.3727e-08
2.36743e-08
2.17766e-08
1.85544e-08
1.5014e-08
1.17102e-08
9.31193e-09
7.59921e-09
7.05667e-09
7.23143e-09
8.58978e-09
1.14912e-08
1.54651e-08
1.77991e-08
1.78789e-08
1.52484e-08
1.1597e-08
8.07767e-09
5.37362e-09
3.8703e-09
4.0413e-09
2.20034e-08
2.3591e-08
2.26327e-08
2.03493e-08
1.70117e-08
1.38501e-08
1.08996e-08
9.02678e-09
7.73967e-09
7.59874e-09
7.95377e-09
9.51015e-09
1.2422e-08
1.60399e-08
1.72052e-08
1.59857e-08
1.27759e-08
9.36154e-09
6.32065e-09
3.97612e-09
2.78075e-09
3.1984e-09
2.00107e-08
2.00835e-08
1.85262e-08
1.64175e-08
1.36876e-08
1.13674e-08
9.1754e-09
8.04698e-09
7.37235e-09
7.75215e-09
8.32372e-09
9.97268e-09
1.24847e-08
1.50866e-08
1.46437e-08
1.24973e-08
9.40633e-09
6.63036e-09
4.20391e-09
2.18642e-09
1.0812e-09
1.63193e-09
1.6841e-08
1.59389e-08
1.43547e-08
1.30742e-08
1.13821e-08
1.01812e-08
8.97797e-09
8.92464e-09
9.05082e-09
1.01517e-08
1.10634e-08
1.27139e-08
1.42884e-08
1.50439e-08
1.27763e-08
1.00242e-08
7.1754e-09
4.92407e-09
3.00432e-09
1.26567e-09
4.16758e-10
1.08258e-09
1.18554e-08
1.07548e-08
9.75807e-09
9.46466e-09
8.98869e-09
8.91662e-09
8.7576e-09
9.51153e-09
1.03481e-08
1.20413e-08
1.3495e-08
1.51382e-08
1.56655e-08
1.43639e-08
1.08248e-08
7.76278e-09
5.27212e-09
3.53322e-09
2.07194e-09
7.836e-10
5.40468e-10
1.10192e-09
8.72314e-09
7.6221e-09
6.92528e-09
7.36429e-09
7.96581e-09
8.91065e-09
9.66665e-09
1.10723e-08
1.24167e-08
1.45479e-08
1.65897e-08
1.8424e-08
1.81892e-08
1.52969e-08
1.11638e-08
7.86382e-09
5.67826e-09
4.003e-09
2.81249e-09
1.81868e-09
1.93833e-09
2.16867e-09
6.8198e-09
5.4116e-09
4.79697e-09
5.63601e-09
7.15546e-09
8.91187e-09
1.02872e-08
1.15733e-08
1.29759e-08
1.50493e-08
1.76607e-08
1.95182e-08
1.94735e-08
1.63753e-08
1.30155e-08
9.90249e-09
8.1002e-09
6.28149e-09
5.2957e-09
4.45828e-09
4.67496e-09
4.56045e-09
6.25968e-09
4.61131e-09
3.90216e-09
4.86034e-09
6.99845e-09
9.19873e-09
1.06756e-08
1.16186e-08
1.30291e-08
1.49633e-08
1.76816e-08
1.95466e-08
1.95266e-08
1.76733e-08
1.53624e-08
1.30133e-08
1.09978e-08
9.07966e-09
7.75707e-09
6.97049e-09
6.83693e-09
6.4808e-09
6.77592e-09
4.85727e-09
3.94273e-09
4.44568e-09
7.20897e-09
9.30706e-09
1.08792e-08
1.14474e-08
1.312e-08
1.46151e-08
1.74826e-08
1.91313e-08
2.02252e-08
2.02828e-08
1.99877e-08
1.84428e-08
1.6511e-08
1.43863e-08
1.28287e-08
1.17252e-08
1.03292e-08
9.13301e-09
5.54281e-09
4.16425e-09
3.46972e-09
4.10035e-09
8.12026e-09
1.00107e-08
1.16517e-08
1.16007e-08
1.34041e-08
1.3791e-08
1.56449e-08
1.71134e-08
1.84784e-08
2.07319e-08
2.04888e-08
2.17939e-08
1.98506e-08
2.02923e-08
1.75438e-08
1.69327e-08
1.29823e-08
1.07639e-08
6.7397e-09
5.03156e-09
4.28193e-09
4.83021e-09
1.01897e-08
1.08078e-08
1.22568e-08
1.15664e-08
1.32899e-08
1.25915e-08
1.3914e-08
1.52241e-08
1.76582e-08
2.12073e-08
2.26242e-08
2.59081e-08
2.50411e-08
2.55634e-08
2.10088e-08
1.97609e-08
1.49434e-08
1.22353e-08
3.94751e-09
3.70782e-09
3.64178e-09
4.77846e-09
1.10977e-08