/*--------------------------------*- C++ -*----------------------------------*\
  =========                 |
  \\      /  F ield         | OpenFOAM: The Open Source CFD Toolbox
   \\    /   O peration     | Website:  https://openfoam.org
    \\  /    A nd           | Version:  7
     \\/     M anipulation  |
\*---------------------------------------------------------------------------*/
FoamFile
{
    version     2.0;
    format      ascii;
    class       volScalarField;
    location    "0";
    object      nut;
}
// * * * * * * * * * * * * * * * * * * * * * * * * * * * * * * * * * * * * * //

dimensions      [0 2 -1 0 0 0 0];

internalField   uniform 0;

boundaryField
{
    inletAir
    {
        type            zeroGradient;
    }
    atmosphere
    {
        type            zeroGradient;
    }
    outlet
    {
        type            zeroGradient;
    }
    inletJet
    {
        type            zeroGradient;
    }
    inletSlot1
    {
        type            zeroGradient;
    }
    inletSlot2
    {
        type            zeroGradient;
    }
    jetWall
    {
        type            nutUSpaldingWallFunction;
        Cmu             0.09;
        kappa           0.41;
        E               9.8;
        value           nonuniform List<scalar> 
352
(
2.36499e-06
2.31901e-06
2.82275e-06
3.74067e-06
4.22816e-06
4.06615e-06
3.59187e-06
3.27989e-06
3.40636e-06
3.64669e-06
2.36038e-06
2.79309e-06
3.8465e-06
3.73497e-06
3.32546e-06
2.98994e-06
2.47166e-06
1.93353e-06
1.53369e-06
1.31134e-06
1.24399e-06
1.34355e-06
7.03655e-07
6.34705e-07
5.84448e-07
5.01973e-07
4.76521e-07
5.10799e-07
5.86198e-07
6.41633e-07
5.95883e-07
4.63509e-07
2.69558e-07
2.75004e-07
3.59258e-07
4.67641e-07
6.90544e-07
8.81874e-07
9.77427e-07
9.76464e-07
8.99616e-07
7.95149e-07
7.22174e-07
6.89291e-07
3.20513e-07
2.77758e-07
2.19675e-07
1.70654e-07
1.4691e-07
1.68531e-07
2.1736e-07
2.57671e-07
2.75371e-07
2.88737e-07
3.24284e-07
3.25295e-07
2.81912e-07
2.35764e-07
2.7267e-07
3.71243e-07
4.81967e-07
5.39214e-07
5.23837e-07
4.59476e-07
3.93281e-07
3.53504e-07
8.47041e-07
8.41093e-07
7.92142e-07
7.51147e-07
7.41945e-07
7.90716e-07
8.88096e-07
9.79842e-07
1.04834e-06
1.07367e-06
1.07178e-06
1.05662e-06
1.05438e-06
9.96881e-07
9.76841e-07
9.8154e-07
9.89035e-07
9.66436e-07
9.17012e-07
8.63345e-07
8.30994e-07
8.06494e-07
2.32266e-06
2.34603e-06
2.28786e-06
1.91854e-06
1.5789e-06
1.4657e-06
1.56008e-06
1.97434e-06
3.02933e-06
4.51562e-06
2.60782e-06
2.07455e-06
2.78302e-06
2.27054e-06
1.80877e-06
1.62535e-06
1.74129e-06
2.00251e-06
2.55823e-06
2.87377e-06
2.71741e-06
2.3771e-06
4.73694e-07
4.83322e-07
5.09137e-07
5.11237e-07
5.05978e-07
5.2218e-07
5.69071e-07
6.43044e-07
7.68873e-07
8.20704e-07
8.23536e-07
7.87254e-07
7.14878e-07
5.3592e-07
4.50375e-07
4.23538e-07
4.52494e-07
5.21008e-07
6.37495e-07
6.97745e-07
7.48477e-07
7.52617e-07
2.13554e-07
2.27709e-07
2.53533e-07
3.01399e-07
3.43962e-07
3.723e-07
3.62743e-07
3.37797e-07
3.23732e-07
3.1381e-07
3.96641e-07
3.84825e-07
3.09976e-07
3.01143e-07
3.39229e-07
3.60981e-07
3.30236e-07
2.97558e-07
2.86122e-07
3.16006e-07
3.60209e-07
3.77293e-07
8.05383e-07
8.45505e-07
9.01361e-07
9.84378e-07
1.05974e-06
1.09505e-06
1.07661e-06
1.00128e-06
9.22913e-07
8.39986e-07
8.49513e-07
8.83372e-07
9.34337e-07
1.00947e-06
1.08518e-06
1.10813e-06
1.0664e-06
9.92902e-07
9.0631e-07
8.55262e-07
8.55765e-07
8.86235e-07
1.37462e-06
1.5381e-06
1.61049e-06
1.42433e-06
1.30713e-06
1.40012e-06
1.63326e-06
1.89715e-06
2.06658e-06
2.13033e-06
1.40449e-06
1.40899e-06
2.6133e-06
1.90502e-06
1.66122e-06
1.53297e-06
1.484e-06
1.63168e-06
1.91346e-06
2.1201e-06
2.16116e-06
2.12431e-06
6.1495e-07
6.37147e-07
6.14058e-07
5.88467e-07
6.04147e-07
6.21806e-07
6.16918e-07
5.88574e-07
5.4615e-07
4.58555e-07
3.58602e-07
3.92631e-07
3.71134e-07
4.07042e-07
4.61623e-07
5.37339e-07
6.13036e-07
6.67564e-07
6.79664e-07
6.35164e-07
5.51608e-07
4.97277e-07
3.80389e-07
3.88292e-07
3.55824e-07
3.50562e-07
3.79067e-07
4.12186e-07
4.22538e-07
4.06018e-07
3.69229e-07
2.92e-07
2.7007e-07
2.25926e-07
1.57532e-07
1.80651e-07
2.36475e-07
3.03582e-07
3.66237e-07
3.93219e-07
3.78748e-07
3.33565e-07
2.74994e-07
2.46769e-07
1.06631e-06
1.05639e-06
1.03194e-06
1.06482e-06
1.13791e-06
1.21866e-06
1.25596e-06
1.22923e-06
1.15074e-06
1.02379e-06
9.14449e-07
8.17632e-07
7.49658e-07
7.84926e-07
8.49765e-07
9.28734e-07
9.73958e-07
9.78672e-07
9.43888e-07
8.97481e-07
8.47645e-07
8.40054e-07
1.71381e-06
2.45835e-06
3.51652e-06
4.02001e-06
3.66423e-06
3.08003e-06
2.81657e-06
2.97184e-06
3.13447e-06
2.58932e-06
1.28179e-06
1.04415e-06
1.47976e-06
2.00961e-06
3.98862e-06
5.84511e-06
6.15715e-06
4.59537e-06
2.31932e-06
1.26587e-06
1.04192e-06
1.12163e-06
6.93853e-07
7.09142e-07
7.11029e-07
7.20162e-07
7.59916e-07
7.98272e-07
8.09414e-07
7.83521e-07
7.14035e-07
6.00328e-07
4.6026e-07
4.57431e-07
4.26758e-07
4.85362e-07
5.70347e-07
7.04756e-07
7.80199e-07
6.99615e-07
6.02019e-07
4.9705e-07
4.95331e-07
5.5831e-07
3.34748e-07
3.14788e-07
2.93045e-07
2.81961e-07
3.03078e-07
3.28432e-07
3.41583e-07
3.22945e-07
2.82665e-07
2.53058e-07
2.6402e-07
2.60267e-07
2.0307e-07
1.94015e-07
2.31114e-07
2.81668e-07
3.09672e-07
2.90803e-07
2.65173e-07
2.68056e-07
3.14193e-07
3.63623e-07
7.78052e-07
7.44065e-07
7.11313e-07
7.0562e-07
7.38151e-07
7.83466e-07
8.23699e-07
8.38287e-07
8.48926e-07
8.66133e-07
8.8133e-07
8.67122e-07
7.81151e-07
6.9315e-07
6.22342e-07
5.92276e-07
6.03257e-07
6.5943e-07
7.56558e-07
8.8481e-07
9.91341e-07
1.08105e-06
)
;
    }
    burnerSlot1Wall
    {
        type            nutUSpaldingWallFunction;
        Cmu             0.09;
        kappa           0.41;
        E               9.8;
        value           nonuniform List<scalar> 
2200
(
1.85842e-08
1.91542e-08
1.97929e-08
2.06415e-08
2.18944e-08
2.29315e-08
2.47333e-08
2.63889e-08
2.74794e-08
2.97785e-08
3.21681e-08
3.41584e-08
3.65692e-08
3.83617e-08
4.01236e-08
4.18854e-08
4.36893e-08
4.59565e-08
4.84274e-08
5.10362e-08
5.31069e-08
5.46884e-08
9.20995e-08
9.35137e-08
9.42126e-08
9.57901e-08
9.73202e-08
9.94235e-08
1.01411e-07
1.03959e-07
1.06006e-07
1.08954e-07
1.11454e-07
1.13753e-07
1.1636e-07
1.18475e-07
1.21e-07
1.23375e-07
1.25985e-07
1.28718e-07
1.31091e-07
1.33844e-07
1.35725e-07
1.37552e-07
8.27349e-09
8.70247e-09
9.32392e-09
1.02478e-08
1.13889e-08
1.27964e-08
1.41358e-08
1.55086e-08
1.65661e-08
1.71872e-08
1.75066e-08
1.67523e-08
1.50809e-08
1.30487e-08
1.07447e-08
8.31693e-09
6.075e-09
4.42052e-09
3.94392e-09
4.82286e-09
6.87189e-09
9.54726e-09
8.90316e-09
9.85101e-09
1.09696e-08
1.24668e-08
1.41973e-08
1.60853e-08
1.81566e-08
2.03289e-08
2.22486e-08
2.39394e-08
2.526e-08
2.57606e-08
2.56719e-08
2.53249e-08
2.47655e-08
2.39883e-08
2.3274e-08
2.26672e-08
2.24453e-08
2.25635e-08
2.29956e-08
2.3557e-08
7.28776e-09
7.30308e-09
7.59981e-09
8.38519e-09
9.42329e-09
1.06968e-08
1.21623e-08
1.36409e-08
1.48884e-08
1.56919e-08
1.60752e-08
1.57208e-08
1.46459e-08
1.30146e-08
1.09724e-08
8.62654e-09
6.29114e-09
4.47435e-09
4.11142e-09
5.57932e-09
8.65457e-09
1.23404e-08
5.16209e-09
5.61575e-09
6.2454e-09
7.22256e-09
8.62473e-09
1.03111e-08
1.22559e-08
1.40245e-08
1.54599e-08
1.62601e-08
1.63641e-08
1.58473e-08
1.47863e-08
1.31095e-08
1.10869e-08
8.76421e-09
6.44682e-09
4.55809e-09
4.10884e-09
5.62128e-09
9.01545e-09
1.31142e-08
6.05828e-09
6.29115e-09
6.97468e-09
8.09701e-09
9.37215e-09
1.0828e-08
1.23592e-08
1.35405e-08
1.42851e-08
1.44133e-08
1.3862e-08
1.29838e-08
1.18961e-08
1.03269e-08
8.35079e-09
6.05184e-09
3.49571e-09
1.13604e-09
2.2023e-10
2.95138e-09
7.52335e-09
1.29573e-08
5.93189e-09
6.40124e-09
7.14625e-09
8.22136e-09
9.52702e-09
1.08142e-08
1.19894e-08
1.26424e-08
1.28547e-08
1.25239e-08
1.17013e-08
1.07641e-08
9.73986e-09
8.41378e-09
6.84105e-09
5.15121e-09
3.305e-09
1.84585e-09
1.73503e-09
4.31722e-09
8.63017e-09
1.3717e-08
6.11682e-09
6.80823e-09
7.62136e-09
8.62901e-09
9.72346e-09
1.06748e-08
1.13497e-08
1.14343e-08
1.10565e-08
1.02318e-08
9.13659e-09
8.43241e-09
8.17329e-09
7.93414e-09
7.50553e-09
6.98313e-09
6.2828e-09
5.85762e-09
6.372e-09
8.59034e-09
1.19815e-08
1.58862e-08
5.93728e-09
7.09346e-09
8.17724e-09
9.03661e-09
9.64852e-09
1.00343e-08
1.02392e-08
9.89038e-09
9.10492e-09
8.017e-09
7.10864e-09
6.83556e-09
7.16557e-09
7.67496e-09
8.22824e-09
8.66939e-09
8.91561e-09
9.06537e-09
9.81563e-09
1.14971e-08
1.36883e-08
1.59595e-08
5.57772e-09
7.14841e-09
8.48877e-09
9.18936e-09
9.31245e-09
9.25638e-09
9.22057e-09
8.75117e-09
7.98472e-09
6.96621e-09
6.43678e-09
6.71811e-09
7.85623e-09
9.13292e-09
1.05596e-08
1.16934e-08
1.23343e-08
1.24838e-08
1.26566e-08
1.33496e-08
1.41227e-08
1.48105e-08
4.85718e-09
6.5235e-09
7.96534e-09
8.6893e-09
8.68606e-09
8.45069e-09
8.41586e-09
7.9669e-09
7.3748e-09
6.31838e-09
5.86859e-09
6.12822e-09
7.42509e-09
8.94252e-09
1.06772e-08
1.2006e-08
1.25595e-08
1.24441e-08
1.17984e-08
1.15126e-08
1.12867e-08
1.11189e-08
4.154e-09
5.41581e-09
6.47924e-09
7.30853e-09
7.83939e-09
7.78515e-09
7.96345e-09
7.4798e-09
7.22161e-09
6.15626e-09
5.77946e-09
5.84993e-09
7.16027e-09
8.60096e-09
1.02643e-08
1.12875e-08
1.15333e-08
1.12233e-08
1.02954e-08
9.65307e-09
8.9492e-09
8.55205e-09
3.59412e-09
4.15673e-09
4.61344e-09
5.37926e-09
6.59101e-09
6.62319e-09
6.69671e-09
5.85749e-09
5.73183e-09
4.96787e-09
4.93759e-09
5.06354e-09
6.14556e-09
7.35459e-09
8.44365e-09
9.07366e-09
8.97522e-09
8.8304e-09
8.2775e-09
8.19606e-09
7.57957e-09
7.14356e-09
2.83609e-09
2.91753e-09
2.77226e-09
3.1499e-09
4.52845e-09
4.7974e-09
4.94301e-09
3.79907e-09
3.5953e-09
3.2006e-09
3.90769e-09
4.21419e-09
5.23216e-09
5.94809e-09
6.5207e-09
6.8425e-09
6.83813e-09
6.91992e-09
6.8495e-09
7.64847e-09
7.47398e-09
7.02782e-09
2.292e-09
2.28125e-09
2.04764e-09
2.27197e-09
3.5782e-09
3.68966e-09
3.82313e-09
2.66676e-09
2.43219e-09
2.33471e-09
3.30419e-09
3.94466e-09
4.57181e-09
4.92907e-09
4.4207e-09
4.66337e-09
4.54595e-09
5.31415e-09
5.36716e-09
6.83855e-09
7.23963e-09
7.22908e-09
3.31643e-09
3.29184e-09
2.16484e-09
2.39784e-09
2.25925e-09
2.23112e-09
2.39628e-09
1.62278e-09
1.37602e-09
8.19366e-10
1.77167e-09
2.15791e-09
2.4861e-09
1.97347e-09
1.39029e-09
1.0605e-09
1.01617e-09
1.48076e-09
1.95002e-09
3.80304e-09
4.57063e-09
5.55021e-09
2.27649e-09
2.43354e-09
1.40108e-09
9.62049e-10
1.5729e-09
2.19238e-09
3.20588e-09
2.66519e-09
2.82518e-09
2.57e-09
3.38473e-09
3.04373e-09
1.92893e-09
1.13901e-09
9.25902e-10
8.57191e-10
5.88647e-10
8.12649e-10
1.72768e-09
3.93192e-09
5.0349e-09
6.28698e-09
2.13052e-09
2.53817e-09
1.46676e-09
1.20043e-09
3.81284e-10
9.84545e-10
1.3365e-09
8.23951e-10
1.10052e-09
1.46434e-09
2.20527e-09
7.412e-10
8.46335e-10
2.49741e-09
4.30196e-09
3.06037e-09
2.30961e-09
2.26275e-09
3.7338e-09
4.45125e-09
4.39921e-09
4.61705e-09
1.98146e-09
1.02272e-09
7.07202e-10
4.87692e-10
1.96077e-09
2.4005e-09
4.11007e-09
4.18809e-09
6.0256e-09
8.2725e-09
8.49585e-09
5.26839e-09
1.4688e-09
4.2317e-10
2.87912e-09
2.31837e-09
1.34489e-09
8.64493e-10
4.1823e-09
6.66281e-09
6.98138e-09
7.35488e-09
2.2718e-09
1.73357e-09
4.82449e-10
3.81657e-10
5.96117e-10
9.31195e-10
1.86231e-09
7.68981e-10
1.40166e-09
3.06475e-09
2.88389e-09
1.06429e-09
3.206e-09
9.16524e-09
1.10258e-08
9.63045e-09
5.28225e-09
5.02321e-09
7.43218e-09
9.36394e-09
8.9035e-09
9.25871e-09
2.03741e-08
1.1607e-08
4.95479e-09
2.94051e-09
4.04102e-09
7.65809e-09
7.35686e-09
6.52015e-09
1.13966e-08
2.27252e-08
2.81312e-08
2.42163e-08
1.30527e-08
2.11489e-09
2.86048e-09
6.79389e-09
6.97604e-09
5.23119e-09
6.15704e-09
1.27782e-08
1.65307e-08
1.62867e-08
4.78447e-08
3.43227e-08
1.3216e-08
6.58435e-09
1.22873e-08
2.10893e-08
1.39452e-08
9.79151e-09
1.50613e-08
3.73302e-08
5.09463e-08
4.12563e-08
1.84102e-08
7.35433e-09
6.66836e-09
1.89929e-08
2.52204e-08
1.74873e-08
3.69237e-09
1.30937e-08
1.58914e-08
2.05256e-08
1.21688e-07
1.01617e-07
6.34161e-08
4.73649e-08
4.8029e-08
7.19531e-08
6.68873e-08
6.93529e-08
9.0537e-08
1.0698e-07
1.31899e-07
1.40611e-07
1.20779e-07
9.40889e-08
1.02629e-07
1.42151e-07
1.42367e-07
1.4578e-07
8.80628e-08
7.04168e-08
1.01789e-07
1.04449e-07
2.20479e-08
1.91743e-08
9.74716e-09
3.4815e-09
4.17509e-09
5.44719e-09
6.20633e-09
7.42503e-09
8.12525e-09
9.97701e-09
2.54988e-08
2.33088e-08
1.48124e-08
1.13607e-08
1.53988e-08
2.47407e-08
3.4949e-08
3.11113e-08
6.94698e-09
7.3713e-08
1.30064e-07
9.49413e-08
2.33535e-08
2.43455e-08
2.55406e-08
2.65389e-08
2.69654e-08
2.74347e-08
2.71621e-08
2.66254e-08
2.56612e-08
2.45458e-08
2.30813e-08
2.13334e-08
1.944e-08
1.8145e-08
1.72553e-08
1.63685e-08
1.63114e-08
1.65959e-08
1.70174e-08
1.77721e-08
1.80723e-08
1.85156e-08
1.13939e-07
1.15144e-07
1.16213e-07
1.16814e-07
1.16219e-07
1.14893e-07
1.12352e-07
1.08921e-07
1.04562e-07
1.00293e-07
9.54774e-08
9.14391e-08
8.85818e-08
8.60904e-08
8.53178e-08
8.48189e-08
8.55976e-08
8.63128e-08
8.77625e-08
8.88356e-08
8.99244e-08
9.1661e-08
2.27557e-08
2.64341e-08
3.01843e-08
3.34305e-08
3.57535e-08
3.68024e-08
3.65574e-08
3.49598e-08
3.201e-08
2.80125e-08
2.3402e-08
1.77382e-08
1.20375e-08
7.76295e-09
5.25222e-09
4.459e-09
4.76333e-09
5.48768e-09
6.34098e-09
7.1147e-09
7.55128e-09
8.04307e-09
3.38556e-08
3.79521e-08
4.19559e-08
4.52399e-08
4.72391e-08
4.75768e-08
4.60656e-08
4.28114e-08
3.79375e-08
3.19146e-08
2.52917e-08
1.8315e-08
1.202e-08
7.2116e-09
4.13361e-09
2.58796e-09
2.52509e-09
3.28977e-09
4.47452e-09
5.7394e-09
7.00686e-09
8.03932e-09
9.54739e-09
1.43747e-08
1.97764e-08
2.50995e-08
2.97022e-08
3.30783e-08
3.50217e-08
3.53785e-08
3.41623e-08
3.14254e-08
2.71744e-08
2.15222e-08
1.58631e-08
1.13437e-08
8.55242e-09
7.39124e-09
7.0229e-09
7.15686e-09
7.36838e-09
7.61779e-09
7.58058e-09
7.51741e-09
5.84748e-09
1.03123e-08
1.561e-08
2.11097e-08
2.62014e-08
3.02164e-08
3.28142e-08
3.38611e-08
3.31841e-08
3.07496e-08
2.67258e-08
2.07978e-08
1.41618e-08
8.3179e-09
4.15909e-09
1.77498e-09
1.07543e-09
1.63272e-09
2.5456e-09
3.4855e-09
4.21302e-09
4.74907e-09
5.31376e-09
8.03251e-09
1.21222e-08
1.69781e-08
2.18777e-08
2.62717e-08
2.97498e-08
3.21581e-08
3.32851e-08
3.26036e-08
2.97939e-08
2.46647e-08
1.83826e-08
1.2518e-08
8.31639e-09
5.85038e-09
4.744e-09
4.60432e-09
4.85185e-09
5.40943e-09
5.77072e-09
6.00644e-09
9.00547e-09
1.01945e-08
1.28501e-08
1.66038e-08
2.05939e-08
2.42494e-08
2.73771e-08
2.99375e-08
3.16157e-08
3.1823e-08
2.97018e-08
2.47726e-08
1.8374e-08
1.20004e-08
7.0719e-09
3.93421e-09
2.59215e-09
2.59995e-09
3.18213e-09
4.09379e-09
4.85757e-09
5.5e-09
1.68658e-08
1.68785e-08
1.7995e-08
2.0361e-08
2.30574e-08
2.5556e-08
2.75677e-08
2.93798e-08
3.08658e-08
3.1354e-08
2.97924e-08
2.5295e-08
1.89625e-08
1.25487e-08
7.42238e-09
3.83506e-09
2.16456e-09
2.07028e-09
2.74946e-09
3.82106e-09
4.724e-09
5.51677e-09
2.24724e-08
2.17491e-08
2.18727e-08
2.33652e-08
2.51113e-08
2.6753e-08
2.78747e-08
2.88888e-08
2.96813e-08
2.98706e-08
2.83157e-08
2.40063e-08
1.77191e-08
1.13246e-08
6.23619e-09
2.69237e-09
1.0654e-09
1.08129e-09
1.86981e-09
2.97718e-09
3.9675e-09
5.00494e-09
2.65477e-08
2.54361e-08
2.513e-08
2.64836e-08
2.81491e-08
2.96773e-08
3.03218e-08
3.06329e-08
3.06164e-08
3.00708e-08
2.80894e-08
2.35628e-08
1.71058e-08
1.05438e-08
5.50731e-09
2.19293e-09
7.4732e-10
6.73781e-10
1.29073e-09
2.28262e-09
3.21904e-09
4.37284e-09
2.43665e-08
2.32816e-08
2.32674e-08
2.54064e-08
2.77495e-08
2.94353e-08
2.98296e-08
2.98477e-08
2.94783e-08
2.83731e-08
2.58886e-08
2.10324e-08
1.46727e-08
8.36855e-09
3.891e-09
1.26544e-09
3.56782e-10
3.72221e-10
8.32741e-10
1.64031e-09
2.49355e-09
3.60948e-09
1.77223e-08
1.6674e-08
1.73019e-08
2.06134e-08
2.40098e-08
2.61676e-08
2.69623e-08
2.73041e-08
2.72586e-08
2.61535e-08
2.35437e-08
1.85815e-08
1.24164e-08
6.41154e-09
2.65866e-09
7.10129e-10
1.49532e-10
2.21704e-10
4.96637e-10
1.13864e-09
1.9513e-09
3.04835e-09
1.10971e-08
9.41757e-09
9.52382e-09
1.21071e-08
1.52129e-08
1.75177e-08
1.89953e-08
1.9877e-08
2.03925e-08
1.97948e-08
1.80436e-08
1.37636e-08
8.46833e-09
3.48449e-09
1.14122e-09
1.98648e-10
2.42396e-10
4.6306e-10
4.50201e-10
7.94591e-10
1.53799e-09
2.66349e-09
7.20136e-09
5.06424e-09
3.70524e-09
4.2275e-09
5.76252e-09
7.82064e-09
9.73102e-09
1.11718e-08
1.22557e-08
1.26469e-08
1.20479e-08
8.62508e-09
4.14915e-09
7.19325e-10
1.62703e-10
1.0915e-09
1.45506e-09
1.7825e-09
1.4144e-09
1.25579e-09
1.22962e-09
2.16886e-09
5.98195e-09
3.78058e-09
1.91641e-09
6.91099e-10
1.14721e-09
2.60777e-09
3.96619e-09
5.1411e-09
6.365e-09
7.26255e-09
7.10885e-09
3.83283e-09
6.90286e-10
8.65426e-10
2.07756e-09
3.80001e-09
3.78517e-09
4.00854e-09
3.10168e-09
2.96762e-09
1.86827e-09
2.14089e-09
5.39008e-09
4.69352e-09
3.26933e-09
2.26477e-09
1.32416e-09
1.16675e-09
1.35297e-09
2.18577e-09
3.31867e-09
5.14893e-09
4.75106e-09
2.10357e-09
1.93646e-09
5.2537e-09
7.28038e-09
1.04804e-08
1.06251e-08
1.08253e-08
9.00625e-09
7.8567e-09
5.1047e-09
4.37191e-09
6.51139e-09
5.95591e-09
4.00197e-09
3.2042e-09
2.70219e-09
2.92762e-09
3.15306e-09
3.1675e-09
3.09014e-09
4.87962e-09
4.14134e-09
2.308e-09
3.6667e-09
7.31031e-09
1.00121e-08
1.37865e-08
1.30536e-08
1.39707e-08
1.10835e-08
9.37581e-09
4.51894e-09
3.33253e-09
1.1053e-08
1.09878e-08
7.19578e-09
8.07621e-09
7.116e-09
6.85853e-09
6.22109e-09
6.20317e-09
5.17594e-09
7.18373e-09
6.10806e-09
4.76076e-09
6.48922e-09
1.14757e-08
1.60109e-08
2.12643e-08
2.16254e-08
2.33956e-08
2.01138e-08
1.54523e-08
7.95346e-09
4.0804e-09
7.24326e-09
5.01301e-09
3.27974e-09
4.21423e-09
4.38663e-09
3.53013e-09
2.83454e-09
3.91888e-09
3.43189e-09
5.47037e-09
3.66092e-09
1.02637e-09
3.73775e-09
8.2882e-09
1.27733e-08
1.71047e-08
1.6455e-08
1.89913e-08
1.46284e-08
1.09019e-08
4.46168e-09
1.28408e-09
9.63047e-09
6.20863e-09
2.65504e-09
6.28721e-09
4.71729e-09
3.17342e-09
1.77756e-09
3.39879e-09
4.0285e-09
8.47147e-09
7.09699e-09
3.14059e-09
4.36351e-09
1.13902e-08
1.97929e-08
2.56628e-08
2.67339e-08
2.90742e-08
2.54682e-08
1.69549e-08
9.4386e-09
2.71682e-09
3.1742e-09
7.57851e-09
6.76469e-09
7.87389e-09
4.19627e-09
3.9277e-09
4.28747e-09
2.91311e-09
3.91652e-10
2.55969e-09
3.66331e-09
6.06356e-09
1.62593e-08
2.08995e-08
1.98157e-08
1.93472e-08
1.71598e-08
1.64123e-08
1.24541e-08
1.42075e-08
1.94998e-08
2.29863e-08
2.8881e-09
2.75026e-09
1.32221e-08
6.59821e-09
6.6729e-09
2.40746e-09
2.4248e-09
2.09725e-09
2.80971e-09
3.87201e-09
1.04826e-08
1.42764e-08
2.54988e-08
4.27126e-08
3.71604e-08
2.58157e-08
1.49089e-08
1.062e-08
1.59372e-08
2.86497e-08
4.52677e-08
6.42843e-08
1.04381e-07
9.91236e-08
6.70668e-08
9.50862e-08
1.01005e-07
5.11313e-08
4.14637e-08
7.07064e-08
8.98119e-08
7.11351e-08
6.03683e-08
7.1641e-08
1.12132e-07
1.0995e-07
9.32777e-08
8.19305e-08
7.76275e-08
5.06597e-08
7.48779e-08
1.24734e-07
1.4936e-07
1.38845e-07
7.49626e-08
4.64533e-08
1.43412e-08
4.3379e-08
5.72199e-08
1.00496e-07
1.17371e-07
1.32645e-07
8.44145e-08
4.29692e-08
1.11517e-08
1.25966e-08
1.56958e-08
1.66161e-08
1.7575e-08
9.50792e-09
9.59395e-09
6.79241e-09
1.58288e-08
2.39404e-08
2.38754e-08
2.24159e-08
3.1667e-08
3.26799e-08
3.4511e-08
3.50599e-08
3.55715e-08
3.6332e-08
3.72866e-08
3.78086e-08
3.81503e-08
3.87403e-08
3.8467e-08
3.827e-08
3.85362e-08
3.66606e-08
3.49232e-08
3.27836e-08
3.0651e-08
2.82356e-08
2.62969e-08
2.47713e-08
2.37198e-08
2.34605e-08
1.08939e-07
1.09856e-07
1.13618e-07
1.14606e-07
1.18448e-07
1.20845e-07
1.24203e-07
1.2692e-07
1.29882e-07
1.32932e-07
1.33673e-07
1.3502e-07
1.33961e-07
1.32326e-07
1.29275e-07
1.25861e-07
1.22227e-07
1.19087e-07
1.16488e-07
1.14559e-07
1.13432e-07
1.13363e-07
5.37174e-09
6.55016e-09
9.31202e-09
1.2571e-08
1.65355e-08
2.04546e-08
2.41773e-08
2.71666e-08
2.91149e-08
3.01817e-08
3.03032e-08
2.88159e-08
2.65579e-08
2.3913e-08
2.13136e-08
1.88363e-08
1.6886e-08
1.55648e-08
1.50938e-08
1.55399e-08
1.70229e-08
1.95313e-08
3.49715e-09
6.57386e-09
1.02189e-08
1.44933e-08
1.88366e-08
2.31259e-08
2.67888e-08
2.95931e-08
3.14861e-08
3.27923e-08
3.36022e-08
3.34034e-08
3.21732e-08
3.07123e-08
2.90602e-08
2.73954e-08
2.59317e-08
2.49849e-08
2.47849e-08
2.55584e-08
2.73556e-08
3.02061e-08
4.92177e-09
6.70991e-09
9.54042e-09
1.2914e-08
1.65079e-08
1.97028e-08
2.20846e-08
2.35423e-08
2.43731e-08
2.44472e-08
2.39107e-08
2.23264e-08
1.99978e-08
1.74065e-08
1.46174e-08
1.16189e-08
8.67648e-09
5.9916e-09
3.87405e-09
2.86156e-09
3.47321e-09
5.7809e-09
4.67176e-09
6.72215e-09
9.53192e-09
1.27817e-08
1.58947e-08
1.85762e-08
2.05346e-08
2.16418e-08
2.2055e-08
2.18284e-08
2.1159e-08
1.96198e-08
1.74772e-08
1.51765e-08
1.27997e-08
1.03374e-08
7.90739e-09
5.54589e-09
3.35198e-09
1.58558e-09
1.01788e-09
2.60621e-09
5.88732e-09
8.08964e-09
1.08767e-08
1.3795e-08
1.6492e-08
1.85838e-08
2.00826e-08
2.08647e-08
2.1209e-08
2.09423e-08
2.03946e-08
1.91867e-08
1.76043e-08
1.59897e-08
1.44845e-08
1.29999e-08
1.15774e-08
1.00985e-08
8.45492e-09
6.72908e-09
5.14311e-09
4.41406e-09
4.89484e-09
7.244e-09
1.00262e-08
1.26379e-08
1.49313e-08
1.66271e-08
1.7998e-08
1.88355e-08
1.93835e-08
1.93722e-08
1.91108e-08
1.82609e-08
1.73127e-08
1.65504e-08
1.60193e-08
1.55859e-08
1.51901e-08
1.4707e-08
1.37927e-08
1.25088e-08
1.08217e-08
9.4815e-09
4.42799e-09
6.87603e-09
9.67713e-09
1.21666e-08
1.43805e-08
1.60265e-08
1.76499e-08
1.8877e-08
1.99868e-08
2.03996e-08
2.05715e-08
2.01346e-08
1.9798e-08
1.97974e-08
2.02492e-08
2.09285e-08
2.15643e-08
2.21423e-08
2.19892e-08
2.13483e-08
1.97412e-08
1.82233e-08
3.11713e-09
5.31018e-09
7.84967e-09
1.01308e-08
1.23626e-08
1.41514e-08
1.61794e-08
1.79352e-08
1.97661e-08
2.07556e-08
2.13991e-08
2.12148e-08
2.11332e-08
2.15669e-08
2.26215e-08
2.40801e-08
2.53821e-08
2.67428e-08
2.71651e-08
2.71326e-08
2.57567e-08
2.42633e-08
2.36385e-09
4.07324e-09
6.33442e-09
8.57067e-09
1.10786e-08
1.32893e-08
1.6027e-08
1.85067e-08
2.12134e-08
2.29314e-08
2.41534e-08
2.41963e-08
2.41294e-08
2.45779e-08
2.58475e-08
2.76936e-08
2.91525e-08
3.07773e-08
3.12143e-08
3.14476e-08
3.00788e-08
2.86732e-08
1.82855e-09
2.82213e-09
4.46741e-09
6.37033e-09
8.74555e-09
1.12366e-08
1.44899e-08
1.77619e-08
2.12749e-08
2.37323e-08
2.54423e-08
2.55113e-08
2.50037e-08
2.4876e-08
2.55643e-08
2.70963e-08
2.80738e-08
2.94135e-08
2.93972e-08
2.95078e-08
2.80072e-08
2.65818e-08
2.38316e-09
2.84749e-09
4.02546e-09
5.52491e-09
7.51375e-09
9.99506e-09
1.35737e-08
1.75655e-08
2.16449e-08
2.46435e-08
2.67722e-08
2.68291e-08
2.54953e-08
2.40944e-08
2.3394e-08
2.39675e-08
2.39711e-08
2.46231e-08
2.37912e-08
2.3444e-08
2.16567e-08
2.01041e-08
4.06815e-09
3.98379e-09
4.38168e-09
5.37478e-09
6.58655e-09
9.03606e-09
1.22413e-08
1.61803e-08
2.0091e-08
2.34183e-08
2.58487e-08
2.63593e-08
2.44406e-08
2.17768e-08
1.925e-08
1.85804e-08
1.76321e-08
1.75859e-08
1.63789e-08
1.59226e-08
1.46329e-08
1.33229e-08
5.38026e-09
4.84495e-09
4.22016e-09
4.46519e-09
4.88061e-09
7.20101e-09
9.6751e-09
1.28454e-08
1.59289e-08
1.90424e-08
2.14534e-08
2.29029e-08
2.12446e-08
1.80852e-08
1.41645e-08
1.23459e-08
1.05454e-08
1.03079e-08
9.3264e-09
9.41523e-09
9.02882e-09
8.81166e-09
6.9398e-09
6.25824e-09
4.52484e-09
4.68746e-09
4.41385e-09
7.33421e-09
8.90039e-09
1.16595e-08
1.43021e-08
1.74018e-08
1.9228e-08
2.09481e-08
1.98416e-08
1.69521e-08
1.24018e-08
9.6446e-09
7.0431e-09
6.5565e-09
5.93527e-09
6.2259e-09
6.46066e-09
6.70574e-09
6.68058e-09
6.067e-09
3.12672e-09
3.32755e-09
2.53894e-09
5.52684e-09
5.79169e-09
7.98717e-09
1.01925e-08
1.34624e-08
1.45507e-08
1.6149e-08
1.51631e-08
1.3098e-08
9.01034e-09
6.2866e-09
3.74898e-09
3.07709e-09
2.5804e-09
2.23609e-09
2.99559e-09
4.2902e-09
7.04988e-09
7.45703e-09
4.04195e-09
5.17873e-09
3.59598e-09
7.49175e-09
6.95022e-09
9.83299e-09
1.25817e-08
1.6119e-08
1.75166e-08
1.91135e-08
1.75799e-08
1.45732e-08
1.04448e-08
7.93912e-09
4.94012e-09
3.48492e-09
2.68303e-09
2.21086e-09
3.33086e-09
4.9067e-09
5.36248e-09
6.41875e-09
1.88884e-09
3.09379e-09
1.41517e-09
4.80017e-09
3.67185e-09
6.41906e-09
6.13937e-09
7.63484e-09
9.4796e-09
1.38094e-08
1.40017e-08
1.20688e-08
9.03608e-09
7.91745e-09
6.20345e-09
5.25937e-09
6.06533e-09
7.75021e-09
9.47643e-09
1.1584e-08
7.22252e-09
1.06497e-08
6.47327e-09
8.18994e-09
3.61996e-09
6.88771e-09
4.73022e-09
8.23341e-09
8.19379e-09
1.10864e-08
1.55005e-08
2.14447e-08
2.15989e-08
1.58752e-08
1.18011e-08
1.00419e-08
6.89052e-09
4.97999e-09
5.67885e-09
6.62587e-09
9.06063e-09
8.38509e-09
3.07836e-09
7.0942e-09
1.4348e-09
2.72096e-09
2.14355e-10
2.9952e-09
2.93163e-09
6.83808e-09
6.07153e-09
2.38602e-09
2.57095e-09
1.13656e-08
1.72136e-08
1.48877e-08
1.06258e-08
1.01142e-08
7.9383e-09
7.54226e-09
9.21346e-09
1.5959e-08
2.00007e-08
2.11084e-08
1.76988e-08
3.04642e-08
2.98565e-08
2.46812e-08
1.20007e-08
1.03402e-08
6.98774e-09
7.62957e-09
5.57223e-09
6.32826e-09
1.20189e-08
2.30372e-08
3.03401e-08
1.91498e-08
1.40086e-08
1.36006e-08
1.37321e-08
1.22323e-08
1.35087e-08
9.86339e-09
5.2481e-09
4.76573e-10
1.01173e-09
1.32728e-08
2.23773e-08
2.58374e-08
1.35829e-08
3.47898e-09
5.86681e-09
1.03202e-08
1.55442e-08
7.51735e-09
1.8123e-08
4.09497e-08
5.22363e-08
3.28406e-08
2.3249e-08
1.76982e-08
2.19395e-08
1.9983e-08
2.12634e-08
9.9138e-09
1.07349e-08
1.67369e-08
6.77876e-08
8.91126e-08
1.45709e-07
1.26859e-07
1.17003e-07
1.16689e-07
1.22591e-07
8.34166e-08
6.06428e-08
7.97098e-08
1.11482e-07
1.13728e-07
1.36655e-07
1.33741e-07
7.84359e-08
6.83121e-08
7.59543e-08
7.53857e-08
1.05609e-07
1.27505e-07
1.07886e-07
1.12964e-07
1.61462e-07
9.28637e-08
5.03666e-08
2.51288e-08
4.18466e-08
9.79087e-08
1.69351e-07
1.4988e-07
9.0313e-08
2.00013e-08
5.34848e-09
1.32166e-08
1.84457e-08
1.56475e-08
7.24804e-09
1.15042e-08
1.45366e-08
1.21662e-08
1.36282e-08
3.71078e-08
5.46654e-08
9.94248e-08
5.52336e-08
5.54927e-08
5.54455e-08
5.62319e-08
5.5446e-08
5.40186e-08
5.29504e-08
5.14076e-08
4.96383e-08
4.7375e-08
4.65173e-08
4.41119e-08
4.45416e-08
4.17854e-08
4.05753e-08
3.78616e-08
3.46521e-08
3.24769e-08
3.05797e-08
2.93726e-08
2.93542e-08
3.11889e-08
1.3806e-07
1.37706e-07
1.36331e-07
1.34387e-07
1.32319e-07
1.30646e-07
1.28329e-07
1.26889e-07
1.25257e-07
1.24846e-07
1.23835e-07
1.24341e-07
1.23453e-07
1.22153e-07
1.20115e-07
1.17603e-07
1.14233e-07
1.10951e-07
1.08047e-07
1.06261e-07
1.05936e-07
1.06833e-07
1.23409e-08
1.47072e-08
1.63105e-08
1.70239e-08
1.67515e-08
1.56967e-08
1.41048e-08
1.257e-08
1.10421e-08
1.02104e-08
1.00561e-08
1.0543e-08
1.16433e-08
1.32607e-08
1.50985e-08
1.59444e-08
1.55682e-08
1.38257e-08
1.13915e-08
8.78201e-09
6.64375e-09
5.40917e-09
2.39024e-08
2.36837e-08
2.27447e-08
2.10604e-08
1.8535e-08
1.59046e-08
1.30394e-08
1.0583e-08
8.43568e-09
7.20895e-09
6.75982e-09
6.88301e-09
8.11789e-09
9.87884e-09
1.1515e-08
1.2017e-08
1.10574e-08
8.9316e-09
5.84804e-09
2.9392e-09
9.14097e-10
1.40142e-09
1.56794e-08
1.79322e-08
1.87012e-08
1.82317e-08
1.66027e-08
1.43519e-08
1.17894e-08
9.67405e-09
7.86358e-09
7.11847e-09
7.03941e-09
7.66458e-09
9.33741e-09
1.19915e-08
1.4337e-08
1.54833e-08
1.52027e-08
1.33467e-08
1.03468e-08
7.57082e-09
5.41317e-09
4.55404e-09
1.67918e-08
1.90946e-08
1.96611e-08
1.86406e-08
1.63927e-08
1.36514e-08
1.0891e-08
8.61237e-09
6.77506e-09
5.95938e-09
5.93689e-09
6.76293e-09
8.76517e-09
1.19276e-08
1.44454e-08
1.56425e-08
1.49042e-08
1.24103e-08
9.14059e-09
6.28073e-09
4.27908e-09
3.84164e-09
1.7707e-08
2.0592e-08
2.10554e-08
1.97628e-08
1.72623e-08
1.43508e-08
1.14809e-08
9.25833e-09
7.56039e-09
6.9295e-09
6.99402e-09
7.96495e-09
1.02132e-08
1.3547e-08
1.58804e-08
1.67312e-08
1.51978e-08
1.22523e-08
9.03284e-09
6.52097e-09
4.9038e-09
4.85149e-09
1.78872e-08
2.02287e-08
2.01798e-08
1.85606e-08
1.58147e-08
1.2798e-08
9.98235e-09
7.9375e-09
6.47623e-09
6.01181e-09
6.1581e-09
7.31199e-09
9.77863e-09
1.31574e-08
1.5142e-08
1.52105e-08
1.29748e-08
9.87084e-09
6.87836e-09
4.57813e-09
3.29905e-09
3.44635e-09
1.87662e-08
2.01147e-08
1.92941e-08
1.73465e-08
1.45024e-08
1.18088e-08
9.29446e-09
7.6975e-09
6.59872e-09
6.47642e-09
6.77613e-09
8.09868e-09
1.05749e-08
1.3652e-08
1.46427e-08
1.36056e-08
1.08756e-08
7.9718e-09
5.38471e-09
3.38885e-09
2.37095e-09
2.72784e-09
1.70656e-08
1.71238e-08
1.57938e-08
1.39961e-08
1.16706e-08
9.69451e-09
7.82701e-09
6.86502e-09
6.28883e-09
6.61087e-09
7.09532e-09
8.49726e-09
1.06338e-08
1.28468e-08
1.24686e-08
1.06415e-08
8.01095e-09
5.64855e-09
3.58265e-09
1.86391e-09
9.21947e-10
1.39179e-09
1.43601e-08
1.35888e-08
1.22374e-08
1.11467e-08
9.7063e-09
8.68518e-09
7.66132e-09
7.61692e-09
7.72424e-09
8.66164e-09
9.43599e-09
1.08391e-08
1.21763e-08
1.28167e-08
1.08838e-08
8.53945e-09
6.1136e-09
4.19644e-09
2.56097e-09
1.07911e-09
3.55377e-10
9.23209e-10
1.01069e-08
9.16809e-09
8.31861e-09
8.06974e-09
7.66616e-09
7.60774e-09
7.47528e-09
8.12091e-09
8.83528e-09
1.02788e-08
1.15158e-08
1.29126e-08
1.33568e-08
1.22432e-08
9.22532e-09
6.61571e-09
4.49364e-09
3.01201e-09
1.76654e-09
6.68168e-10
4.60886e-10
9.39709e-10
7.43533e-09
6.49705e-09
5.90385e-09
6.27948e-09
6.79462e-09
7.60383e-09
8.25274e-09
9.45567e-09
1.06046e-08
1.2423e-08
1.41625e-08
1.57219e-08
1.5515e-08
1.30434e-08
9.51791e-09
6.70443e-09
4.84155e-09
3.41346e-09
2.39844e-09
1.55102e-09
1.65315e-09
1.84966e-09
5.81244e-09
4.6127e-09
4.08954e-09
4.8062e-09
6.10423e-09
7.60588e-09
8.78331e-09
9.88416e-09
1.10831e-08
1.28529e-08
1.50799e-08
1.66597e-08
1.66148e-08
1.39674e-08
1.11004e-08
8.44575e-09
6.90906e-09
5.35799e-09
4.5172e-09
3.80307e-09
3.98821e-09
3.89081e-09
5.33549e-09
3.93081e-09
3.32706e-09
4.14538e-09
5.97124e-09
7.85153e-09
9.11487e-09
9.92182e-09
1.11275e-08
1.27794e-08
1.50989e-08
1.6686e-08
1.6663e-08
1.50786e-08
1.31066e-08
1.1103e-08
9.38381e-09
7.74724e-09
6.61878e-09
5.94806e-09
5.83477e-09
5.53158e-09
5.77647e-09
4.1412e-09
3.36227e-09
3.79233e-09
6.15165e-09
7.9444e-09
9.28785e-09
9.77379e-09
1.12029e-08
1.24805e-08
1.4929e-08
1.63329e-08
1.7262e-08
1.7309e-08
1.70571e-08
1.57394e-08
1.40913e-08
1.22786e-08
1.09503e-08
1.00099e-08
8.81933e-09
7.79916e-09
4.72621e-09
3.55096e-09
2.95928e-09
3.49814e-09
6.93002e-09
8.54524e-09
9.9467e-09
9.90332e-09
1.14434e-08
1.17747e-08
1.33584e-08
1.46109e-08
1.57736e-08
1.76948e-08
1.74858e-08
1.85996e-08
1.69427e-08
1.73229e-08
1.49808e-08
1.44625e-08
1.10897e-08
9.19558e-09
5.74757e-09
4.2908e-09
3.65217e-09
4.1212e-09
8.69685e-09
9.2254e-09
1.04628e-08
9.8739e-09
1.13454e-08
1.07494e-08
1.18792e-08
1.29977e-08
1.50747e-08
1.81014e-08
1.93076e-08
2.21103e-08
2.13735e-08
2.18252e-08
1.79414e-08
1.68802e-08
1.27673e-08
1.04544e-08
3.36691e-09