/*--------------------------------*- C++ -*----------------------------------*\
  =========                 |
  \\      /  F ield         | OpenFOAM: The Open Source CFD Toolbox
   \\    /   O peration     | Website:  https://openfoam.org
    \\  /    A nd           | Version:  7
     \\/     M anipulation  |
\*---------------------------------------------------------------------------*/
FoamFile
{
    version     2.0;
    format      ascii;
    class       volScalarField;
    location    "0.06";
    object      alphat;
}
// * * * * * * * * * * * * * * * * * * * * * * * * * * * * * * * * * * * * * //

dimensions      [1 -1 -1 0 0 0 0];

internalField   nonuniform List<scalar> 
815
(
0.000191383610918
0.000190991919954
0.000192244323301
0.000198898034141
0.000199608305131
0.000200942409191
0.000205687315965
0.000205797526463
0.000207232163335
0.000209045200628
0.000210016168536
0.000211530775072
0.000228261329367
0.000228166060067
0.000229481198329
0.000261107290308
0.000261487887057
0.000262009361482
0.000214586316256
0.000213693338854
0.000213125045799
0.000117752648826
0.000117756840242
0.000117671237468
0.000108699172107
0.000108643091483
0.000108723907659
0.000172122217276
0.000172200491175
0.000172182350013
0.000260547731686
0.000260426034018
0.000260089106198
0.000325593168637
0.000325372145462
0.00032476830329
0.000364876351535
0.000364716299116
0.000364042961008
0.000388458851653
0.00038803577726
0.000387328597181
0.000400926976362
0.000400733415938
0.00040012683754
0.000407353245858
0.000406954775409
0.000406416473329
0.000408812795893
0.000408559899307
0.000408139680774
0.000407198598149
0.000407018975092
0.000406712723465
0.000403224658365
0.0004031009661
0.000402899441006
0.000397388844844
0.000397302655284
0.000397181766191
0.000389880426
0.000389859647765
0.000389819523975
0.000381224631952
0.000381123450416
0.000381122355318
0.000371313564477
0.00037125061279
0.000371287307084
0.000360681982602
0.000360621149108
0.000360686871318
0.000349738774734
0.000349688177097
0.00034977156738
0.000338992408972
0.000338947656879
0.000339045790026
0.000328897823993
0.000328839340664
0.000328938413467
0.000318844362343
0.00031877306693
0.000318879379509
0.000300590868028
0.000300497239991
0.000300663224853
0.000229059747138
0.000229121111842
0.000229476904302
0.000126577952699
0.000126540309557
0.0001266630301
0.00019331072366
0.00020268772755
0.000208710453327
0.000213603002206
0.000230732647498
0.000262814637465
0.000211970483545
0.000117608009922
0.000108858041998
0.000172281838276
0.00025964030929
0.000323945460573
0.00036312891858
0.000386368317809
0.000399347422361
0.000405732937762
0.000407650934554
0.000406405477856
0.000402755572667
0.000397176593241
0.000389945837957
0.000381315781651
0.000371556250252
0.000361008102495
0.00035012258816
0.000339414311836
0.00032931121255
0.000319262628523
0.000301115124553
0.000230099140892
0.000126903900148
7.4147869353e-05
7.17035079163e-05
6.96969797271e-05
7.04259546299e-05
7.4975084491e-05
9.10768868239e-05
0.000138992380782
0.000195980888751
0.0001980672266
0.000194707489675
0.000182839112206
0.000163368113347
0.000146456516025
0.000116711407623
8.38357177839e-05
6.38092712288e-05
5.54781863449e-05
5.58781237266e-05
6.29003538085e-05
6.96921387671e-05
7.19505219093e-05
7.16637136989e-05
7.19863534398e-05
7.428791707e-05
7.90025891533e-05
9.07518590133e-05
0.000134977631176
0.000205461334395
0.000207193437345
0.000203043785063
0.000190867814822
0.000174458043285
0.000158165035909
0.000127437465547
9.38228951506e-05
7.43686133244e-05
6.81759387719e-05
6.95006412385e-05
7.4021040291e-05
7.76257469799e-05
7.87637508439e-05
7.88307477015e-05
7.97505741676e-05
8.30776660291e-05
8.92507180324e-05
9.88416345008e-05
0.000137025026503
0.000211671401253
0.000214361610166
0.000211949277082
0.000202414998995
0.000189747755709
0.00017750679135
0.000151030714291
0.000119252704376
9.98242670699e-05
9.32849892766e-05
9.27663811886e-05
9.29869814502e-05
9.17003947229e-05
8.9304347334e-05
8.75866958371e-05
8.845842858e-05
9.34379153288e-05
0.0001030361452
0.00011409876424
0.00014749073812
0.000217181534694
0.000221537659403
0.000222298444579
0.000217232645648
0.000208055122056
0.000202875914666
0.000186363276072
0.000160674555822
0.000141129340844
0.000128280042414
0.000117875164125
0.00010817747747
9.97093878436e-05
9.37883037804e-05
9.18525764964e-05
9.51578233399e-05
0.000104502378642
0.000119041982855
0.000132910950504
0.000163789188926
0.00023389365508
0.000239010563544
0.000242746335673
0.000242490261793
0.000236865899451
0.000230176336196
0.000216386076269
0.00019186834451
0.000163793395669
0.00013884808464
0.000119556604897
0.000105771799669
9.68640071867e-05
9.32610578691e-05
9.58395281478e-05
0.000104699305098
0.000119391062344
0.00013743819305
0.000152848187961
0.000182793683493
0.00026401457957
0.000265239483327
0.000264205516399
0.000258332245009
0.00024544567655
0.000228248737061
0.000203746929631
0.000172906187566
0.000143188151633
0.000120368993086
0.00010491662953
9.64905652671e-05
9.53513258882e-05
0.00010147756923
0.000113584121116
0.000128528780425
0.000144149629855
0.000160400522407
0.000176936209784
0.000208054152253
0.000209842229468
0.000205264815947
0.000199015955568
0.000188611340622
0.000173321463933
0.000154402813118
0.000135203317534
0.000117454947126
0.000104051332457
9.64407962271e-05
9.5144489479e-05
0.000100686781362
0.000113319676225
0.000131741418185
0.000151766897046
0.000168647258971
0.00018152644161
0.000194883288471
0.00021556390911
0.000252620260942
0.000117287517103
0.000116009816237
0.000113503678531
0.000109728234605
0.000105074824539
0.000100311588564
9.68916636149e-05
9.55120716169e-05
9.71406324454e-05
0.000103048726675
0.000114602796769
0.000132503255292
0.000155863033064
0.00018105516951
0.000203293460192
0.000220023053464
0.000232933700831
0.000248857081845
0.00027833393022
0.000328308441581
0.000109249181597
0.000110250795139
0.000111219613931
0.000111964590137
0.000112647010674
0.000113739224114
0.000115657831698
0.000119555875185
0.000126856605615
0.000139172853268
0.000157374473314
0.000181120048603
0.000208220747496
0.000235394555991
0.000259582064522
0.000280606685098
0.000300973573341
0.000327853907792
0.000372309103451
0.000433480359769
0.00017252394272
0.000173420619533
0.000173766884351
0.000172883978963
0.000170666613959
0.000167833090524
0.000165908451202
0.00016705724175
0.000173208105942
0.000185587873133
0.000204463561804
0.000228914325477
0.000257191799348
0.000287409302724
0.000318276884943
0.000350458403763
0.000386394785099
0.000432372762717
0.000494778420513
0.000552643310786
0.000258740839254
0.000256764577954
0.000252926288081
0.000246378091641
0.000237139397596
0.000226623073222
0.00021743960991
0.000212544578811
0.000214210323855
0.000223586060684
0.000240846513946
0.000265530553386
0.000296867019996
0.000334196012157
0.000377464100201
0.000427653899674
0.000486881654998
0.000558073065469
0.000636001989305
0.000666934878011
0.0003221316553
0.00031794914462
0.000311186169922
0.000300920394222
0.0002870845649
0.000271183846153
0.000256242398728
0.000245829468932
0.000242783958284
0.000248716146885
0.000264374389548
0.000290228523658
0.000326780646917
0.000374808150584
0.000435474376301
0.000510136049926
0.000599415593275
0.000699378254786
0.000785687435397
0.00076594639187
0.000361063057485
0.000356217853935
0.000348540034844
0.000336947963713
0.000321083206804
0.000302187214546
0.000283262114459
0.000268268773902
0.000260754357115
0.000263117223396
0.000277024779106
0.000304222161857
0.000346973628431
0.000408085551074
0.000490422708107
0.000595614933478
0.000720872005731
0.000850894472196
0.000936565816938
0.000850512025743
0.000384363205129
0.000379672604077
0.000372173627317
0.000360593805799
0.000344212045093
0.000323849310035
0.000302249166349
0.000283529108658
0.00027183878058
0.000270420141378
0.000282000978329
0.000309907035172
0.00035880803493
0.000434527694618
0.000542481208128
0.000684059135621
0.000850150488394
0.00100889584077
0.00108500898139
0.000926070626673
0.000397628014922
0.00039351503587
0.000386775375037
0.000375953310073
0.000359983044851
0.000339228525894
0.000316036919346
0.000294450868044
0.000279003857554
0.000273659387887
0.000282175736142
0.000309659908804
0.00036391281189
0.000455181403636
0.000592666672889
0.000776464445092
0.000986506120231
0.00117026632625
0.00122954414372
0.000997942680762
0.000404366492008
0.000401023405748
0.000395315182008
0.000385642058622
0.000370650412318
0.00035027687532
0.000326416051791
0.00030286361557
0.000284300357735
0.00027519316147
0.000280169802067
0.000306174739065
0.000364911553449
0.000472892289799
0.000644294090357
0.000875422733903
0.00112970247986
0.0013326208779
0.00137028153028
0.00106887061506
0.000406661393996
0.000404134919067
0.000399556113307
0.000391209373143
0.000377523519368
0.000358077367555
0.000334327880386
0.000309723931159
0.000288885140652
0.000276538546054
0.00027795623562
0.000301898434241
0.000364724627557
0.000491157295531
0.000701300668669
0.000983461022311
0.0012792443447
0.00149444357613
0.00150703296183
0.0011396033907
0.000405789759263
0.000404062678264
0.000400598537113
0.000393607256664
0.000381371266536
0.000363202654317
0.000340184193147
0.000315390396663
0.000293237523643
0.000278501576086
0.000276923700161
0.000299027629453
0.000366591032386
0.000514647345492
0.000769038961882
0.00110376455398
0.00143530610972
0.00165506332652
0.00163959022681
0.00120958395941
0.000402480610855
0.000401493684649
0.000399066149897
0.000393369508889
0.000382607283474
0.000365918145602
0.000344097174128
0.000319865314375
0.000297368823659
0.000281323301764
0.000277820026649
0.000299212388765
0.00037372332115
0.000548802960411
0.000853359371916
0.00123907324433
0.00159801634491
0.00181443558198
0.00176798164807
0.00127822182551
0.000397192730053
0.000396857782915
0.000395347797014
0.000390827464995
0.000381480099693
0.00036635374458
0.000346048974005
0.000323004754136
0.000301090850837
0.000284909147762
0.000280932583859
0.000303751912284
0.00038968732548
0.000600115791254
0.000960050939499
0.00139146803761
0.00176754047235
0.00197278692329
0.00189257988508
0.00134481362538
0.000390212446784
0.00039043079394
0.000389700752362
0.000386208650606
0.000378169208266
0.000364617410245
0.000346052400389
0.000324705618987
0.000304196697422
0.000289045321976
0.000286354731936
0.000313930320798
0.000418821240086
0.000675797430072
0.0010940075985
0.00156211713294
0.00194394523983
0.00213055536512
0.00201346312624
0.00140867823128
0.000381774829576
0.000382442297325
0.000382346302376
0.0003797261683
0.000372875943688
0.00036088368829
0.000344221844892
0.000324980945991
0.000306582499875
0.000293608353445
0.000294342917994
0.000331668679965
0.000467176069447
0.000783571682264
0.00125833230744
0.00175054721968
0.00212697799558
0.00228782008369
0.0021304281301
0.00146935301582
0.000372156485441
0.000373163499688
0.000373560200785
0.000371667628677
0.000365900631168
0.000355451544876
0.000340822414556
0.000324016606103
0.000308355435504
0.000298786731382
0.000305804618586
0.000360778218596
0.000543708701081
0.000930765674886
0.00145356381933
0.00195574826663
0.00231582514434
0.00244366100859
0.00224212070896
0.0015249176144
0.000361702017576
0.000362951523155
0.000363716914027
0.00036243603142
0.00035767669405
0.00034877248591
0.000336291524723
0.000322214121169
0.000309936589283
0.000305357596402
0.000323132146183
0.000408915167177
0.000660312340967
0.00112162277055
0.00167780505577
0.00217539581479
0.00250808969001
0.00259556126396
0.00234581402538
0.00157386507018
0.000350869634148
0.000352275121645
0.000353315314625
0.000352567718903
0.000348782885743
0.000341455044776
0.000331250843387
0.0003202229743
0.000312197905456
0.000315161904711
0.000351778599688
0.000489551509382
0.000828537890935
0.00135612785836
0.00192717987389
0.00240487504783
0.00269904683048
0.00273811365552
0.00243529300115
0.00160902895037
0.000340184971498
0.000341687166545
0.000342943670051
0.000342698567092
0.000339900195531
0.000334217858325
0.000326461652192
0.000318963395127
0.000316700336248
0.000332045244342
0.0004029684533
0.000620481619962
0.0010540555551
0.0016280733473
0.00219281241449
0.00263489355761
0.00287873399623
0.00286019170547
0.002498432914
0.00162231183934
0.000330092176051
0.000331666725746
0.00033312613683
0.000333400420612
0.000331642197417
0.000327714394142
0.000322675655899
0.000319583772667
0.000326025470558
0.000363559460968
0.000494701949972
0.00081464076843
0.00132994547542
0.00192176141248
0.00245795912916
0.00284799560797
0.00302788549929
0.00294048431516
0.00251395009235
0.00159905453405
0.000320078900444
0.000321767906782
0.000323490481903
0.000324357784769
0.000323724979928
0.000321691183985
0.000319811653236
0.000322787054247
0.000343744402979
0.000421763269788
0.000642192752183
0.00106532190899
0.00162917314339
0.00220626020147
0.00269061833149
0.00301027863078
0.00311094646718
0.002943462953
0.00244935526763
0.00151399425608
0.000302113196677
0.000304190179619
0.000306431677149
0.00030804534006
0.000308545936997
0.000308327927505
0.00030986798765
0.000321143268921
0.00036597248815
0.000507099315174
0.000828020253126
0.00132421102819
0.00189284346977
0.00242206304445
0.00283014485667
0.00305950209126
0.00306479283494
0.00280652965192
0.00224614941144
0.00132428004363
0.000231435871538
0.000234126285569
0.000236772405792
0.000238431694093
0.0002386618673
0.000238162763217
0.000240685539244
0.000259594702218
0.000336119727144
0.000551185817055
0.000951843108966
0.00147153053185
0.00199988948864
0.00244840907181
0.00275510887145
0.00287506381548
0.00277456802392
0.00242969171255
0.00183451546671
0.00101014320099
0.000127489999286
0.000128536579451
0.00012918868513
0.000128901039145
0.000127527887392
0.000125701344726
0.000126004158606
0.000137934055269
0.000197288379983
0.000395372346353
0.000787368395308
0.00127137720795
0.00172550822464
0.00207495135201
0.00227104194137
0.00228520529131
0.00210363973899
0.00173325185101
0.00121127052475
0.000634929939831
0.000125590463696
7.90165096973e-05
0.000129632516087
8.54379527397e-05
0.000135606210405
9.38795999706e-05
0.000141837017873
0.000107241337363
0.000132908814485
0.000127894995022
0.0001072846856
0.000194822855154
9.36389355761e-05
5.50768583684e-05
0.000100890748549
6.03297620899e-05
0.000117172852906
6.50660191707e-05
0.00013717374441
6.94391914645e-05
0.000155403947575
7.33375598691e-05
0.000168975851701
7.67143614807e-05
0.000178070787678
7.97651865289e-05
0.000184956053758
8.27357843907e-05
0.000191350622047
8.57200589283e-05
0.000198515754405
8.87401441228e-05
0.000206658529063
9.17978761662e-05
0.00021575049875
9.48736655363e-05
0.000225248077352
9.79498022664e-05
0.000234898677324
0.000100996657301
0.000244312171924
0.000103983588151
0.000253273233336
0.000106875439685
0.000261737465565
0.000109631764041
0.000269080680505
0.0001121996352
0.000275463419138
0.000114514497021
0.000279206517309
0.00011647299558
0.000280041754879
0.000117982248602
0.000275530335116
0.000118919238
0.000261276171087
0.000119199610221
0.00023410450945
0.000118850078551
0.000199966842076
0.000118038213797
0.000178742870307
0.00011618784814
)
;

boundaryField
{
    inletfuel
    {
        type            calculated;
        value           nonuniform 0();
    }
    inletair
    {
        type            calculated;
        value           nonuniform 0();
    }
    outlet
    {
        type            calculated;
        value           nonuniform List<scalar> 
26
(
0.000126762306039
0.000126743267446
0.000126868952126
0.000127115759444
0.000127704162826
0.000128752513997
0.000129405697873
0.000129117419013
0.000127741836482
0.000125911992456
0.000126215067378
0.000138164552588
0.000197617499482
0.000396030552543
0.000788676934268
0.00127348652014
0.00172836831115
0.000327085326076
0.000312417266875
0.00029835712465
0.000285181992945
0.00027315640649
0.000262847427854
0.000256649913925
0.000275287492334
0.000296976547122
)
;
    }
    axis
    {
        type            empty;
    }
    leftside
    {
        type            compressible::alphatWallFunction;
        Prt             0.85;
        value           nonuniform List<scalar> 
32
(
0
0
0
0
0
0
1.74906084273e-06
3.29520839718e-06
4.57324766049e-06
5.72667630763e-06
6.77034087085e-06
7.70100579489e-06
8.56583808552e-06
9.43228442959e-06
1.03252336437e-05
1.12503083525e-05
1.22079187391e-05
1.31935291808e-05
1.42021637579e-05
1.52261555528e-05
1.62564471553e-05
1.72830462232e-05
1.82929619878e-05
1.92685269105e-05
2.01855068144e-05
2.10073817874e-05
2.16927153459e-05
2.21820523696e-05
2.24202113111e-05
2.2393212479e-05
2.21721283777e-05
2.16532123281e-05
)
;
    }
    burnerwall
    {
        type            compressible::alphatWallFunction;
        Prt             0.85;
        value           nonuniform 0();
    }
    front
    {
        type            wedge;
    }
    back
    {
        type            wedge;
    }
    procBoundary1to0
    {
        type            processor;
        value           nonuniform List<scalar> 
27
(
0.00019255289707
0.000193276968037
0.000193780363
0.000194605089835
8.61697968504e-05
8.27232316692e-05
7.65143932167e-05
7.44916348599e-05
7.91160371091e-05
9.82665566646e-05
0.000145494807833
0.000195800878494
0.000196563883185
0.00019393184664
0.000184397478718
0.000165109484702
0.000139476970844
0.000119022956227
8.811657328e-05
6.70591850475e-05
5.42268700961e-05
4.83113542976e-05
5.57973800175e-05
6.94808936747e-05
6.94808936747e-05
0.000123454738272
7.37318868737e-05
)
;
    }
}


// ************************************************************************* //
