/*--------------------------------*- C++ -*----------------------------------*\
  =========                 |
  \\      /  F ield         | OpenFOAM: The Open Source CFD Toolbox
   \\    /   O peration     | Website:  https://openfoam.org
    \\  /    A nd           | Version:  7
     \\/     M anipulation  |
\*---------------------------------------------------------------------------*/
FoamFile
{
    version     2.0;
    format      ascii;
    class       volScalarField;
    location    "0.06";
    object      dQ;
}
// * * * * * * * * * * * * * * * * * * * * * * * * * * * * * * * * * * * * * //

dimensions      [1 2 -3 0 0 0 0];

internalField   nonuniform List<scalar> 
815
(
0.000423677857373
0.00134802017799
0.00255872963031
0.000577108934501
0.00184205883727
0.00348062530037
0.00063424462512
0.00200020727832
0.00371542843813
0.000622666019531
0.00194895756339
0.00354025050558
0.00067138545996
0.00206085372561
0.00363043463817
0.00148815377021
0.00452160184364
0.0077401969535
0.00850149363644
0.0256552563485
0.0436011656808
0.00350577882268
0.0104300702514
0.0170692219277
0.000943701649487
0.00280794021327
0.00460850152738
0.000221710919524
0.000661196511106
0.00108798762075
6.34494483597e-05
0.000189294510156
0.000312068379207
2.43992343295e-05
7.28537380734e-05
0.000120314469171
1.12466112721e-05
3.36092897979e-05
5.55798542869e-05
5.63972321206e-06
1.6851802673e-05
2.7901605464e-05
2.92270939936e-06
8.74251437353e-06
1.44937107576e-05
1.53436318596e-06
4.58929838039e-06
7.616378971e-06
8.0380526432e-07
2.40597943052e-06
3.99731008971e-06
4.17899953041e-07
1.25128658391e-06
2.08050816222e-06
2.14266530172e-07
6.41704873617e-07
1.06762062792e-06
1.07959899274e-07
3.23370613993e-07
5.38259081746e-07
5.33967964079e-08
1.59957433517e-07
2.66354581289e-07
2.59848427564e-08
7.78360000217e-08
1.29666956365e-07
1.25733543936e-08
3.76751631451e-08
6.28001092093e-08
6.24299034255e-09
1.87100837092e-08
3.12034462723e-08
3.39314164638e-09
1.01711684965e-08
1.69672822208e-08
2.21277732125e-09
6.63255658246e-09
1.10588495401e-08
1.80770587734e-09
5.41593750371e-09
9.0180695522e-09
1.74568468554e-09
5.22631155568e-09
8.68681857306e-09
1.83696777142e-09
5.49431909476e-09
9.11493922945e-09
2.19098892953e-09
6.55377734092e-09
1.08582900555e-08
3.14734994102e-09
9.414434323e-09
1.55968966291e-08
0.003607973352
0.00489964222344
0.00511703498371
0.00475472859663
0.00467822285005
0.00963556035544
0.053671886338
0.0199674414001
0.00540213987031
0.00127953970264
0.000368336637805
0.000142463102375
6.59539961168e-05
3.31676435137e-05
1.7261761309e-05
9.08449128846e-06
4.77541314372e-06
2.48849087119e-06
1.27825139334e-06
6.44991601574e-07
3.19392710803e-07
1.55597805931e-07
7.54251337011e-08
3.75042394148e-08
2.04000282139e-08
1.32855974875e-08
1.08119987559e-08
1.03881388129e-08
1.0870814692e-08
1.29168853005e-08
1.85375828995e-08
0.0023666750324
0.00221599887853
0.00203326076443
0.001723822132
0.00128664863805
0.000800983457645
0.000367876375398
0.0181453225609
0.0484938684762
0.126386025822
0.332580598906
0.916991688633
0.548031233278
0.271851436825
0.129198569651
0.0580461709154
0.0248524232512
0.0105961044172
0.00612851737669
0.00508115735948
0.00481074146684
0.00454697175709
0.00408592146473
0.00340886801446
0.00255433213747
0.0015815781047
0.00069657525974
0.0243904968786
0.0642853892434
0.166810059482
0.441380114614
0.675635092876
0.349667814862
0.170565806515
0.0768927405488
0.035184823464
0.0189204465472
0.0131717496932
0.011395526316
0.0106945120818
0.0100677791486
0.00908005421495
0.00774694017718
0.00617813666562
0.00450564722521
0.00279847142268
0.00118113207217
0.0246984326074
0.0625166367588
0.156977878997
0.403334883874
0.574114053019
0.300547336725
0.152350093816
0.0790753151985
0.0478795592022
0.035481081808
0.0295405822861
0.0260041338583
0.0227911745842
0.0195584684003
0.016197592742
0.0128009388185
0.00958614262133
0.00673585337337
0.00410910728189
0.00168464952926
0.0220100965773
0.0522420630343
0.122428382603
0.290824336747
0.591622166179
0.341993796364
0.203989730195
0.133554636087
0.0997530852941
0.0781623779629
0.0618014521815
0.0486175652863
0.0380597491199
0.0295726235836
0.0225892277163
0.0167622827375
0.0119265600879
0.00807544143672
0.00481120167638
0.00193283223775
0.0202844136081
0.0436042647395
0.0928302146584
0.200934203142
0.455688816569
0.521099511856
0.341031121737
0.238930366418
0.174250844769
0.128282147084
0.0940633876775
0.0686490611222
0.0493214037406
0.0345393373001
0.0237254156567
0.0162556068106
0.0112717117134
0.0077084092422
0.00456606207138
0.00182064456523
0.0389316454983
0.0738899802517
0.138055296647
0.264136865138
0.537903588787
0.610282551469
0.440365426208
0.318409540225
0.225141850221
0.153932361009
0.101220701353
0.0640271719502
0.0397924359086
0.0251144189684
0.0164207856445
0.0113086989413
0.0082138341577
0.00595582497089
0.00363900272936
0.0014799231561
0.213078892205
0.380845618265
0.446841225088
0.459269662078
0.414941612536
0.342022028089
0.264997306421
0.191310672124
0.128113847632
0.0810517796701
0.0503515209778
0.0315479247191
0.020174530362
0.0133015941155
0.0092372625388
0.00680510981261
0.0053053446369
0.00409971510082
0.00263956522559
0.00110571598214
0.0701546834383
0.0990223407422
0.120082715443
0.128271199804
0.121751007975
0.10265720875
0.0791697964692
0.0572709499081
0.0400491370437
0.0275954689603
0.0189488960115
0.0130783161405
0.00916138192732
0.00663184505906
0.00503572399492
0.00401375345377
0.00332270540517
0.0026899836727
0.00181298363055
0.000743197974137
0.019083361554
0.0267614430794
0.0320756833201
0.0338389169791
0.0319766165231
0.0275906961838
0.0224466349078
0.0176146748056
0.0135746227886
0.010332937413
0.00780947333297
0.00590341815642
0.00451837583673
0.00353906094441
0.00286695851094
0.00239936271668
0.00205385039672
0.00169802314158
0.00115456524973
0.000452291635814
0.00455010050848
0.00648567726384
0.00798614886855
0.00877468579025
0.00879287301033
0.00821531124701
0.00732094347872
0.00632117456854
0.00534071787412
0.00443489626141
0.00363307249831
0.00295928237188
0.0024168209938
0.00199484524162
0.00168028476943
0.00144306964168
0.00124823323369
0.00102626110554
0.000679458942977
0.000253167240522
0.00132294608576
0.00194038537775
0.00249382710165
0.00289952016688
0.00311137577655
0.00313490962722
0.00301218165445
0.00279222144965
0.00251539707019
0.00221246950879
0.00190870729719
0.00162635763121
0.00137923003188
0.00117276537953
0.00100707776448
0.00087095961351
0.000745148599873
0.000593871046576
0.000373769273934
0.000132878269566
0.000515582520181
0.000771805070461
0.00102243175701
0.00123614848642
0.00138807815376
0.00146723009175
0.00147632168734
0.00142742072805
0.00133573577372
0.00121589662544
0.00108159856964
0.000946264992081
0.00082029388176
0.000709022199874
0.000613055620028
0.000526566072232
0.000438548432531
0.000332472421302
0.000196056302639
6.68202856662e-05
0.000239909104293
0.000363918921731
0.000491766952499
0.000610077894037
0.000705651592307
0.000769267011409
0.000797556385533
0.000792765335335
0.000760553642213
0.000707925436108
0.000642426452253
0.000571866182879
0.00050272292961
0.000438287357871
0.000378451536007
0.00031964350256
0.000256240067769
0.000182489078415
0.000100035357938
3.29137668318e-05
0.00012117794627
0.000185678197189
0.000254619324706
0.000321937896184
0.00038077704142
0.000425133211955
0.000451258488562
0.000458422246034
0.000448486483969
0.000424868106389
0.000391783640268
0.00035371406663
0.00031434825056
0.000275377430587
0.00023631841183
0.00019508606367
0.000149509647553
9.94840345133e-05
5.0615205793e-05
1.62077305424e-05
6.33140467687e-05
9.78555937186e-05
0.000135873098808
0.000174604476131
0.000210527952984
0.000240034110253
0.000260220305617
0.000269656015812
0.000268626049502
0.000258746343459
0.000242346868298
0.000221893240458
0.000199276204586
0.000175152875125
0.000148964222609
0.000119723046503
8.74127036537e-05
5.4331319093e-05
2.58049340224e-05
8.10908959912e-06
3.34422076621e-05
5.20888250941e-05
7.31303634902e-05
9.5344713656e-05
0.000116983590539
0.000136004304461
0.000150447221318
0.000158980103175
0.000161299371765
0.000158097120695
0.000150614319772
0.000140101933789
0.000127329828663
0.00011230782133
9.45236245302e-05
7.37744398622e-05
5.12707390794e-05
2.99251436816e-05
1.34154378972e-05
4.17420998087e-06
1.7638135901e-05
2.76640738047e-05
3.92249805189e-05
5.18116011352e-05
6.45992363946e-05
7.65021513306e-05
8.63193121019e-05
9.30582463632e-05
9.62803241332e-05
9.62149704611e-05
9.34731105091e-05
8.85931816674e-05
8.17062050242e-05
7.24113354501e-05
6.02442539408e-05
4.55824546951e-05
3.02001123433e-05
1.66852848402e-05
7.15503668653e-06
2.22317375487e-06
9.21642254723e-06
1.4543552721e-05
2.08036263798e-05
2.78052675218e-05
3.51860963139e-05
4.24098678942e-05
4.88040136471e-05
5.37277375628e-05
5.68030432593e-05
5.80473525871e-05
5.77154647001e-05
5.59579601841e-05
5.25683417625e-05
4.68869380806e-05
3.8496722702e-05
2.82031644625e-05
1.78750175706e-05
9.43742326217e-06
3.92546071385e-06
1.22551786978e-06
4.74507442853e-06
7.52794948142e-06
1.08533250173e-05
1.46628910796e-05
1.88140793447e-05
2.30660993324e-05
2.70782074793e-05
3.04860684926e-05
3.30321836238e-05
3.46633357354e-05
3.54405377251e-05
3.53178344575e-05
3.39358651422e-05
3.04794627862e-05
2.46233071988e-05
1.74523656913e-05
1.06328425186e-05
5.41749807599e-06
2.21188152501e-06
6.96985563064e-07
2.399050234e-06
3.82418221668e-06
5.55298928484e-06
7.57741599002e-06
9.85244619028e-06
1.22850118373e-05
1.47241830203e-05
1.69919045341e-05
1.89447065036e-05
2.05243108445e-05
2.16979985787e-05
2.23365660504e-05
2.20294593043e-05
1.98795327115e-05
1.57329796196e-05
1.07909378197e-05
6.35590996854e-06
3.1541124824e-06
1.27513997128e-06
4.06618072126e-07
1.18998948422e-06
1.90509131406e-06
2.78493662707e-06
3.8370877823e-06
5.05570231891e-06
6.41562188289e-06
7.86484117359e-06
9.33508199687e-06
1.07644936531e-05
1.21115364631e-05
1.33101983057e-05
1.42179014635e-05
1.44090699486e-05
1.29779203425e-05
1.00131741818e-05
6.65581296697e-06
3.81344033125e-06
1.85756607259e-06
7.47719003618e-07
2.41443011822e-07
5.80750872046e-07
9.3364067592e-07
1.37392160012e-06
1.9118070921e-06
2.55468120525e-06
3.30503687528e-06
4.15668273636e-06
5.09744191557e-06
6.11269408756e-06
7.1786540041e-06
8.23094910557e-06
9.15079918908e-06
9.48960080801e-06
8.43891137211e-06
6.32582534233e-06
4.08760391064e-06
2.29104790458e-06
1.10243772454e-06
4.4329446788e-07
1.44846110977e-07
2.82047010828e-07
4.5534813866e-07
6.74703995093e-07
9.48893761726e-07
1.28793049064e-06
1.70306879332e-06
2.20553068444e-06
2.80639943412e-06
3.51251011247e-06
4.31264738401e-06
5.16228874788e-06
5.97240641636e-06
6.25742178115e-06
5.42862811513e-06
3.95054128386e-06
2.491836821e-06
1.37392983189e-06
6.5592285207e-07
2.63814216818e-07
8.70078028137e-08
1.40483593699e-07
2.27689819729e-07
3.39656539211e-07
4.82912065897e-07
6.66315046361e-07
9.01746878695e-07
1.20405865314e-06
1.59002497353e-06
2.07252872784e-06
2.64876193606e-06
3.30132416286e-06
3.9466027112e-06
4.08879348612e-06
3.43081471297e-06
2.42898490567e-06
1.50265611468e-06
8.19278567925e-07
3.89178020728e-07
1.56580535141e-07
5.19472548762e-08
7.64734936099e-08
1.24170406178e-07
1.85956713859e-07
2.66326100616e-07
3.71929711405e-07
5.12272558265e-07
6.99992291576e-07
9.49673055247e-07
1.27321366255e-06
1.67511570409e-06
2.1610554242e-06
2.61490110123e-06
2.61616110948e-06
2.11708532186e-06
1.46429698134e-06
8.93200211222e-07
4.833490053e-07
2.28779298458e-07
9.19356781148e-08
3.05105785853e-08
4.97173868799e-08
8.0432989987e-08
1.19942871377e-07
1.71103758925e-07
2.38297698381e-07
3.27926773553e-07
4.48614023791e-07
6.10360172281e-07
8.22531078304e-07
1.0974625087e-06
1.44508540138e-06
1.70760862395e-06
1.6240814622e-06
1.27091841728e-06
8.63330517442e-07
5.21718501433e-07
2.80939487617e-07
1.32536377094e-07
5.30671867221e-08
1.75158531835e-08
4.02796748287e-08
6.45158307918e-08
9.48391734859e-08
1.32789513386e-07
1.80749041939e-07
2.42212684478e-07
3.21901993548e-07
4.2559006124e-07
5.61440059744e-07
7.47466764934e-07
9.71915602376e-07
1.0815933243e-06
9.74851035814e-07
7.42053159027e-07
4.97535140662e-07
2.9883694954e-07
1.60332058477e-07
7.53310912262e-08
2.99631792068e-08
9.75713161256e-09
3.84818932645e-08
6.08561975046e-08
8.77767080399e-08
1.19706006384e-07
1.5738267742e-07
2.01953182772e-07
2.55132826681e-07
3.19982981356e-07
4.05274236652e-07
5.25973800455e-07
6.43281467901e-07
6.61778997837e-07
5.68291207161e-07
4.23081868805e-07
2.81002938121e-07
1.68047694871e-07
8.98546862689e-08
4.1988367062e-08
1.64885682564e-08
5.19768550038e-09
4.00387014135e-08
6.25270666663e-08
8.85426463247e-08
1.17710636027e-07
1.49550450344e-07
1.83560000669e-07
2.19499246907e-07
2.5901974596e-07
3.10280566064e-07
3.75812134058e-07
4.15948247679e-07
3.95454430169e-07
3.25520770034e-07
2.37732468022e-07
1.56559043645e-07
9.31421278039e-08
4.94869889196e-08
2.28511642114e-08
8.74434903396e-09
2.59114413695e-09
4.72913675497e-08
7.29436675447e-08
1.01716558833e-07
1.32799631446e-07
1.65066502565e-07
1.96949391136e-07
2.26228048263e-07
2.50323309502e-07
2.68619416e-07
2.79512985184e-07
2.71186359124e-07
2.37541591817e-07
1.8711818122e-07
1.33563251434e-07
8.67783149184e-08
5.10206272334e-08
2.66963490185e-08
1.20207441756e-08
4.3918903798e-09
1.17441572353e-09
6.77204092051e-08
1.0408238832e-07
1.44747501469e-07
1.88677139514e-07
2.34114553341e-07
2.7781908917e-07
3.13663304798e-07
3.29230361951e-07
3.05115309007e-07
2.48841879255e-07
1.96651137082e-07
1.52698668616e-07
1.12526284821e-07
7.72477511006e-08
4.8916870779e-08
2.81365967514e-08
1.43552806483e-08
6.24052664751e-09
2.15098981722e-09
5.03945279655e-10
4.36374644197e-05
3.14093828233e-05
7.76773543277e-05
5.38527247493e-05
0.000121847861952
7.78509407136e-05
0.000161039328792
9.0069667823e-05
0.000179535075982
7.71014141857e-05
0.000162273236959
3.62438565017e-05
0.000124761171644
5.21603215336e-05
8.01604307825e-05
2.27623635259e-05
4.90940256344e-05
1.14813833081e-05
2.97633105409e-05
6.53692998049e-06
1.75207031657e-05
3.84390175156e-06
9.87265643062e-06
2.18807701317e-06
5.34094491571e-06
1.18956749752e-06
2.8160721413e-06
6.28790518658e-07
1.47456752906e-06
3.30580575741e-07
7.80988062753e-07
1.76157810429e-07
4.23033117639e-07
9.63013231403e-08
2.35835556223e-07
5.43060996421e-08
1.35402470675e-07
3.15617181191e-08
7.98478880082e-08
1.88229842341e-08
4.80587661962e-08
1.14368471083e-08
2.92852209264e-08
7.01622683316e-09
1.79314345863e-08
4.31516292366e-09
1.09162005164e-08
2.62838567348e-09
6.56394208065e-09
1.5768403028e-09
3.84760141512e-09
9.169946729e-10
2.18864295645e-09
5.15089724107e-10
1.18835008429e-09
2.73633210942e-10
5.98962342837e-10
1.31937132081e-10
2.67374675087e-10
5.46786013e-11
9.95123319588e-11
1.86713357466e-11
3.09833324111e-11
5.62427252934e-12
)
;

boundaryField
{
    inletfuel
    {
        type            zeroGradient;
    }
    inletair
    {
        type            zeroGradient;
    }
    outlet
    {
        type            zeroGradient;
    }
    axis
    {
        type            empty;
    }
    leftside
    {
        type            zeroGradient;
    }
    burnerwall
    {
        type            zeroGradient;
    }
    front
    {
        type            wedge;
    }
    back
    {
        type            wedge;
    }
    procBoundary1to0
    {
        type            processor;
        value           nonuniform List<scalar> 
27
(
0.00022581887658
0.000724357262597
0.00137668182361
0.00195250158832
0.00134346223482
0.00109416608177
0.000983076545143
0.000825030337678
0.000612884152369
0.000382834394853
0.000181968052731
0.00989304576459
0.0265955154336
0.0685750523031
0.173494179896
0.452439204186
1.09473137168
0.532346704681
0.275309525518
0.13382694849
0.0567872593757
0.0189548446823
0.00595254795179
0.00293346064735
0.00293346064735
2.24942748912e-05
1.65183662728e-05
)
;
    }
}


// ************************************************************************* //
