/*--------------------------------*- C++ -*----------------------------------*\
  =========                 |
  \\      /  F ield         | OpenFOAM: The Open Source CFD Toolbox
   \\    /   O peration     | Website:  https://openfoam.org
    \\  /    A nd           | Version:  7
     \\/     M anipulation  |
\*---------------------------------------------------------------------------*/
FoamFile
{
    version     2.0;
    format      ascii;
    class       volScalarField;
    location    "0.06";
    object      ed::R_H2O;
}
// * * * * * * * * * * * * * * * * * * * * * * * * * * * * * * * * * * * * * //

dimensions      [1 -3 -1 0 0 0 0];

internalField   nonuniform List<scalar> 
815
(
0.27231869858
0.288775209062
0.32879052872
0.356094906447
0.378829422549
0.429390316058
0.375972898435
0.395200538678
0.440380308229
0.354709324643
0.37005987058
0.403273039119
0.367581589798
0.376089305596
0.397482502545
0.783009974944
0.793014401922
0.814463357108
4.30106975164
4.32649085694
4.41171950065
1.72142425238
1.70720155984
1.67644369237
0.450519349841
0.44683846722
0.440030510874
0.102375300095
0.101770037363
0.100477435988
0.02825138614
0.0280950830981
0.027790481486
0.0104626736736
0.0104135420306
0.0103185403243
0.00464202006381
0.00462407603311
0.00458814591501
0.00224001808371
0.00223110784077
0.00221645048287
0.00111694007735
0.00111368214854
0.00110779561789
0.000564145779486
0.00056245828925
0.000560077590374
0.000284325493654
0.000283685992662
0.000282793789868
0.000142209885758
0.000141936954939
0.000141600438811
7.01455165041e-05
7.00264862907e-05
6.99038068109e-05
3.40012002715e-05
3.39479779695e-05
3.39048591035e-05
1.61782729468e-05
1.61548570432e-05
1.61404775382e-05
7.57393679438e-06
7.56247427591e-06
7.55910584674e-06
3.52562688379e-06
3.52145539163e-06
3.52196680072e-06
1.68406770259e-06
1.68238153767e-06
1.68348468061e-06
8.80537372202e-07
8.7982947894e-07
8.80638621965e-07
5.52405942636e-07
5.51929229061e-07
5.52166468149e-07
4.341281991e-07
4.33556351179e-07
4.33154556434e-07
4.03291453134e-07
4.024667475e-07
4.01376990969e-07
4.08234059967e-07
4.07007880494e-07
4.05134510525e-07
4.68371000678e-07
4.67006078856e-07
4.64246196432e-07
6.47176421721e-07
6.45286645146e-07
6.41434324255e-07
0.38669751894
0.504201781185
0.505953124173
0.45184352951
0.42732970548
0.845939273576
4.53134495641
1.63645515408
0.430402395058
0.0985995584343
0.0273693907519
0.0101947434012
0.00454291940524
0.00219845861201
0.0011008820059
0.000557412356088
0.000281896662356
0.000141321680257
6.983582341e-05
3.39002753805e-05
1.61495418996e-05
7.56874468606e-06
3.52955847405e-06
1.68836545112e-06
8.83477762894e-07
5.53503519439e-07
4.33325414323e-07
4.00504879496e-07
4.03167239386e-07
4.60809863754e-07
6.36126442387e-07
0.00207816977754
0.00159553615887
0.00120483973812
0.000843461500141
0.000521351488834
0.000269363041528
0.000102784841057
0.522256156629
0.872707468254
1.54980828847
2.92434050746
5.98314526021
2.72402443133
1.04970872981
0.392880851599
0.140333760928
0.0481303380528
0.016539212828
0.00774622212467
0.00522234779323
0.00403729912058
0.00312899482209
0.002314612497
0.00159535606945
0.000990848567082
0.000509918655436
0.000186883974319
0.674132656057
1.11128646361
1.96554683996
3.73092214425
4.24086597344
1.67253788266
0.633383938001
0.224600561358
0.0815967745861
0.0350958706472
0.0196636447603
0.0137630409927
0.0104993487926
0.00807119792709
0.00596976796563
0.00419346057074
0.00276365786002
0.00167167667108
0.000864191702964
0.000304178041899
0.655993345986
1.03871445959
1.77810375074
3.27766138456
3.46408368309
1.38099934401
0.542879559819
0.221366978557
0.106301544257
0.0629532407532
0.0421594642864
0.0300235848294
0.0213982752571
0.0150021160209
0.010192238867
0.00663247563872
0.00410419148171
0.00239195062941
0.00121557450421
0.000416489383755
0.561909542214
0.834444463378
1.33326840188
2.2720603419
3.43016704524
1.50862242031
0.696999359034
0.358111122013
0.212003458258
0.132754464756
0.084475905415
0.0538078970189
0.0342850862815
0.0217792052582
0.013651757393
0.00833987332884
0.0049005604002
0.00275064229411
0.00136551103524
0.000459075818457
0.497821302215
0.66963704887
0.972084861086
1.50943077469
2.53964407311
2.20761109133
1.11818279301
0.6145613039
0.355356481482
0.20924029819
0.123606703848
0.0731168025383
0.042790599059
0.024509502685
0.013815304125
0.00778891781885
0.00445670053005
0.00252446699453
0.00124584415776
0.000415843655074
0.918406124115
1.09091113383
1.39006318702
1.90814750378
2.88308243182
2.48641043225
1.38867930534
0.788081156925
0.442245516689
0.242114012
0.128396289162
0.0658715650873
0.0333517649688
0.0172099785909
0.00922810974607
0.00522612277751
0.00313036292452
0.00187907191193
0.000956224112562
0.000325249282506
4.83455059467
5.41001910035
4.331931569
3.197528595
2.14605424235
1.34625232174
0.808195745314
0.458393570201
0.243766202274
0.123488776727
0.0618313023234
0.0313909576212
0.0163383109452
0.00880090293467
0.00500969230895
0.00303414842271
0.00195058072008
0.00124774522501
0.000668625491155
0.000233825371069
1.54545864671
1.36627320416
1.13120171581
0.86813344605
0.612285462489
0.392878785929
0.234633894928
0.133199098027
0.0738591326432
0.0406911135383
0.0224924654763
0.0125672536149
0.00716054610276
0.00423325564405
0.00263445704259
0.00172650199195
0.00117887731109
0.000790030155319
0.000442670705984
0.000151207634329
0.408634317631
0.358835094949
0.293527871309
0.222351134932
0.156000002154
0.102321063786
0.0643924077521
0.0396133777307
0.0241849790983
0.0147086312921
0.00894374383099
0.00547101888651
0.00340520311272
0.00217808222853
0.00144623099645
0.00099538946925
0.000702938691689
0.000481000662606
0.000271601538968
8.85191201579e-05
0.0942296258113
0.0840899849046
0.0706460829681
0.0557142666961
0.0414327883911
0.0294134232293
0.0202663609545
0.0137124050376
0.00917522003736
0.0060857003328
0.00401017748032
0.00264296106729
0.00175521637799
0.00118316352978
0.000816965242955
0.000577102218094
0.000411848607846
0.000280178488066
0.000153903515528
4.76548862354e-05
0.0264179895708
0.0242573570292
0.0212689147677
0.0177475303024
0.0141313301314
0.0108168694926
0.00803497998845
0.005835876077
0.00416311847365
0.00292460260436
0.00202942217742
0.00139914103705
0.000964892300677
0.000670087819688
0.000471739409775
0.000335582744185
0.00023685932314
0.000156148050613
8.14795831828e-05
2.40540178064e-05
0.00991535694236
0.00929205388135
0.00839760524714
0.00728644212809
0.00607109663528
0.00487513838344
0.00379216904431
0.00287279538566
0.00212875713366
0.00154767863904
0.00110738994011
0.000783921398238
0.00055264123637
0.000390147754311
0.000276563369449
0.000195385454047
0.000134227009662
8.41470440084e-05
4.11187987959e-05
1.16319473473e-05
0.00444097417108
0.00421728179651
0.00388783448722
0.00346148036022
0.00297085307657
0.00246043174701
0.00197207499209
0.00153590514784
0.0011668520974
0.000867494422779
0.00063323993943
0.000456120285585
0.00032609126301
0.000232202949039
0.000164373172207
0.000114180336472
7.54881679889e-05
4.44434289725e-05
2.01809017818e-05
5.50968078924e-06
0.00215857252134
0.0020706399694
0.0019371429311
0.00175783840801
0.00154277555008
0.00130862137617
0.00107388683912
0.000854820908106
0.000662284958763
0.00050114401947
0.00037173894304
0.000271579687505
0.00019628475645
0.000140441115677
9.87980724401e-05
6.70703350102e-05
4.23838697287e-05
2.33087337941e-05
9.82084949759e-06
2.60902420655e-06
0.00108516794187
0.00104999554213
0.000994645569414
0.000917351325616
0.000820780317553
0.000710987379822
0.000595925743784
0.000483902463908
0.000381771636315
0.000293740378564
0.000221323648474
0.000163982954151
0.000119768086403
8.59762551222e-05
5.993681445e-05
3.96083071956e-05
2.38415145098e-05
1.22449039733e-05
4.81535917228e-06
1.25527318303e-06
0.000551459755203
0.000537739952669
0.000515067922712
0.000481966789357
0.000438826885605
0.00038762038794
0.000331525658068
0.00027453146872
0.000220602741596
0.000172725488412
0.000132378171892
9.96478169958e-05
7.36516413455e-05
5.30540960447e-05
3.65982917048e-05
2.34836305575e-05
1.34526741973e-05
6.48706006762e-06
2.40755565651e-06
6.21372165524e-07
0.00027981826125
0.000274758935519
0.000265792474516
0.000251981070721
0.000233144738296
0.000209782711443
0.000183019725657
0.000154624565751
0.000126709389387
0.000101154773611
7.90611079291e-05
6.06397883801e-05
4.54816912319e-05
3.29172214576e-05
2.24441153181e-05
1.39593799573e-05
7.62240928372e-06
3.4787976035e-06
1.23486623609e-06
3.18244108665e-07
0.000140663324447
0.000138964657054
0.000135619341873
0.000130099835394
0.000122176044934
0.000111889604083
9.95598994873e-05
8.58964794521e-05
7.19302334317e-05
5.87232157013e-05
4.69747130795e-05
3.68570274344e-05
2.81579115488e-05
2.05087550017e-05
1.37987195673e-05
8.308818966e-06
4.33956280198e-06
1.89240568402e-06
6.51517547446e-07
1.68698640446e-07
6.96709908421e-05
6.91996040177e-05
6.80678796855e-05
6.60041326698e-05
6.28501314158e-05
5.8548136458e-05
5.31464543182e-05
4.68936965748e-05
4.02462062687e-05
3.37408951149e-05
2.77548827993e-05
2.2383183338e-05
1.74902251919e-05
1.28271112383e-05
8.4908695666e-06
4.94578103713e-06
2.48277982133e-06
1.04473753415e-06
3.53032194864e-07
9.22601445246e-08
3.38872654726e-05
3.38186212506e-05
3.35042359114e-05
3.28148238177e-05
3.16642768738e-05
3.00000883566e-05
2.7803547661e-05
2.51464654871e-05
2.22077604163e-05
1.92216458637e-05
1.63492738349e-05
1.36201605689e-05
1.09235998708e-05
8.04866687678e-06
5.21878695101e-06
2.94134297205e-06
1.427348931e-06
5.84945180639e-07
1.95711048619e-07
5.17568013406e-08
1.61706406658e-05
1.62077151075e-05
1.61651314884e-05
1.59861779953e-05
1.56316325499e-05
1.50725508095e-05
1.42877502725e-05
1.32911218931e-05
1.21401011421e-05
1.09127701911e-05
9.64887028569e-06
8.34081227433e-06
6.87365472986e-06
5.05451836544e-06
3.19480713957e-06
1.7448597035e-06
8.23583197595e-07
3.31278432993e-07
1.10353925449e-07
2.95513110986e-08
7.59206247073e-06
7.64139812774e-06
7.67210545615e-06
7.66262387486e-06
7.59892154929e-06
7.46996184818e-06
7.26467263763e-06
6.98218718023e-06
6.63218100884e-06
6.22259418034e-06
5.740231132e-06
5.16426212687e-06
4.35464819651e-06
3.16138656754e-06
1.94118068325e-06
1.03054996788e-06
4.75814424621e-07
1.89057922435e-07
6.29100168577e-08
1.70467194344e-08
3.54711820205e-06
3.58526782094e-06
3.6245298558e-06
3.6587903606e-06
3.6854839193e-06
3.70306048988e-06
3.7082373579e-06
3.698037921e-06
3.66623086194e-06
3.596207493e-06
3.46325559165e-06
3.24223567327e-06
2.76195417872e-06
1.95594623863e-06
1.16585350498e-06
6.04129134387e-07
2.7438236322e-07
1.0815995919e-07
3.59989483607e-08
9.84587737789e-09
1.69965849477e-06
1.72466077114e-06
1.75533641027e-06
1.79130490221e-06
1.8342649857e-06
1.88621604044e-06
1.94749645154e-06
2.01555759167e-06
2.08096622321e-06
2.12469385266e-06
2.13043862599e-06
2.06078877363e-06
1.73577416082e-06
1.18877474873e-06
6.89311558677e-07
3.503082246e-07
1.57321421034e-07
6.1704496548e-08
2.05437710292e-08
5.65212709228e-09
8.90072850817e-07
9.04807585062e-07
9.24505163215e-07
9.50365453351e-07
9.84954438695e-07
1.03080555216e-06
1.08914469566e-06
1.15803372114e-06
1.22973607308e-06
1.29250298752e-06
1.3414075304e-06
1.31324830178e-06
1.06806936055e-06
7.05403806961e-07
3.99567668127e-07
2.00213239896e-07
8.92400633837e-08
3.48757231389e-08
1.15975155409e-08
3.1918648943e-09
5.56668813115e-07
5.63826079979e-07
5.73644539572e-07
5.87360306283e-07
6.07070636905e-07
6.34762296566e-07
6.71454305348e-07
7.15937713638e-07
7.64175257315e-07
8.14497954161e-07
8.62731032785e-07
8.2475459394e-07
6.37587672406e-07
4.0717309347e-07
2.26505878591e-07
1.12437166643e-07
4.98696483286e-08
1.94252190304e-08
6.43628945884e-09
1.76182748894e-09
4.33853029457e-07
4.35054334999e-07
4.36334617025e-07
4.38498778371e-07
4.42944851906e-07
4.51002051853e-07
4.63453292356e-07
4.80184698212e-07
5.01715548612e-07
5.33561250141e-07
5.58041660657e-07
5.02350311117e-07
3.67985880497e-07
2.28575178686e-07
1.25500171145e-07
6.19184361959e-08
2.73624873917e-08
1.06150171559e-08
3.49397667711e-09
9.43598299724e-10
3.98725362793e-07
3.94766516781e-07
3.88477508448e-07
3.80250969505e-07
3.71000085308e-07
3.61716067574e-07
3.5332494938e-07
3.47261822846e-07
3.48336676165e-07
3.61097169924e-07
3.55190570942e-07
2.95547026708e-07
2.06251538774e-07
1.25294533957e-07
6.81455029009e-08
3.347521572e-08
1.47429737556e-08
5.68841249966e-09
1.84857469232e-09
4.83285144484e-10
3.99069981427e-07
3.901684999e-07
3.76949745931e-07
3.59673788352e-07
3.39106706726e-07
3.16240927822e-07
2.92383909563e-07
2.7037219082e-07
2.56497515389e-07
2.48126945793e-07
2.20848215062e-07
1.69808707552e-07
1.13586943229e-07
6.76875192569e-08
3.65018816498e-08
1.78382164482e-08
7.80648956259e-09
2.97643160942e-09
9.42558093391e-10
2.31638956411e-10
4.53409233914e-07
4.37832561061e-07
4.16537841777e-07
3.90315618129e-07
3.60019765076e-07
3.26365965776e-07
2.8984582999e-07
2.51314574135e-07
2.13565931377e-07
1.77473883e-07
1.38454770894e-07
9.80745924947e-08
6.27774180553e-08
3.65629127526e-08
1.94529001622e-08
9.39489763617e-09
4.04913176035e-09
1.50544243763e-09
4.55166481019e-10
1.00942204137e-10
6.24529463008e-07
6.00923729385e-07
5.70152483397e-07
5.33395996869e-07
4.91134427065e-07
4.42801572069e-07
3.86520742365e-07
3.17903710879e-07
2.33305617045e-07
1.51949378566e-07
9.65492333655e-08
6.06237474228e-08
3.63013617055e-08
2.03338495218e-08
1.05441990909e-08
4.981973697e-09
2.09365120506e-09
7.51501251532e-10
2.14347259825e-10
4.16471838294e-11
5.34070405007e-05
3.76398883973e-05
9.13510422648e-05
6.2025801523e-05
0.000137681375862
8.61775873679e-05
0.000174846701223
9.58302632976e-05
0.000187362019237
7.88592706491e-05
0.000162839765472
3.56443604828e-05
0.000120405275538
4.93360207409e-05
7.44084265347e-05
2.07097806923e-05
4.38333533063e-05
1.00486833936e-05
2.55599676262e-05
5.50340638067e-06
1.44713332824e-05
3.11275806708e-06
7.84233010094e-06
1.70422078295e-06
4.08006771291e-06
8.91096283226e-07
2.0688182399e-06
4.53003297482e-07
1.04175981316e-06
2.29046220934e-07
5.30600722352e-07
1.17378871631e-07
2.76384860331e-07
6.17099209115e-08
1.48170175395e-07
3.34656191872e-08
8.18058553326e-08
1.87038788712e-08
4.63897090207e-08
1.0726892564e-08
2.68488128346e-08
6.26758552813e-09
1.57321840335e-08
3.69743510935e-09
9.26269638612e-09
2.18671526036e-09
5.42213610638e-09
1.28079067376e-09
3.13498386907e-09
7.38870214829e-10
1.76697164474e-09
4.13178187347e-10
9.66455875089e-10
2.23174975346e-10
5.04569274432e-10
1.14006708024e-10
2.44541129461e-10
5.28617187664e-11
1.04969415916e-10
2.10679674112e-11
3.75690164668e-11
6.91871001343e-12
1.1248977744e-11
2.00427012712e-12
)
;

boundaryField
{
    inletfuel
    {
        type            calculated;
        value           nonuniform 0();
    }
    inletair
    {
        type            calculated;
        value           nonuniform 0();
    }
    outlet
    {
        type            calculated;
        value           uniform 0;
    }
    axis
    {
        type            empty;
    }
    leftside
    {
        type            calculated;
        value           uniform 0;
    }
    burnerwall
    {
        type            calculated;
        value           nonuniform 0();
    }
    front
    {
        type            wedge;
    }
    back
    {
        type            wedge;
    }
    procBoundary1to0
    {
        type            processor;
        value           uniform 0;
    }
}


// ************************************************************************* //
