/*--------------------------------*- C++ -*----------------------------------*\
  =========                 |
  \\      /  F ield         | OpenFOAM: The Open Source CFD Toolbox
   \\    /   O peration     | Website:  https://openfoam.org
    \\  /    A nd           | Version:  7
     \\/     M anipulation  |
\*---------------------------------------------------------------------------*/
FoamFile
{
    version     2.0;
    format      ascii;
    class       volScalarField;
    location    "0.06";
    object      ed::R_H2;
}
// * * * * * * * * * * * * * * * * * * * * * * * * * * * * * * * * * * * * * //

dimensions      [1 -3 -1 0 0 0 0];

internalField   nonuniform List<scalar> 
815
(
-0.0304743001111
-0.0323158946906
-0.0367938790033
-0.0398494231344
-0.0423935689098
-0.0480516741032
-0.0420739045842
-0.0442256072849
-0.0492815283929
-0.0396943671799
-0.0414121968632
-0.0451289745615
-0.041134860519
-0.0420869313311
-0.0444809744414
-0.0876241003312
-0.0887436632248
-0.0911439460581
-0.481318730934
-0.484163524172
-0.493701184567
-0.192638990856
-0.191047375579
-0.187605362639
-0.0504161555725
-0.0500042399668
-0.0492423837083
-0.0114564869593
-0.011388753975
-0.011244103158
-0.00316152076326
-0.00314402939807
-0.00310994242207
-0.00117084379132
-0.00116534562891
-0.00115471429686
-0.000519473371766
-0.000517465313635
-0.000513444490947
-0.000250673140307
-0.000249676023991
-0.000248035766727
-0.000124993132314
-0.000124628548095
-0.00012396980559
-6.31317198566e-05
-6.29428783112e-05
-6.26764620409e-05
-3.18179415076e-05
-3.17463770309e-05
-3.16465335173e-05
-1.59142459183e-05
-1.58837031178e-05
-1.58460446921e-05
-7.84975667313e-06
-7.83643638897e-06
-7.82270772727e-06
-3.80496376714e-06
-3.79900783237e-06
-3.79418254028e-06
-1.81045792166e-06
-1.80783752403e-06
-1.80622836038e-06
-8.47574639927e-07
-8.46291906757e-07
-8.459149568e-07
-3.94541440954e-07
-3.9407462283e-07
-3.94131852958e-07
-1.88458540834e-07
-1.882698476e-07
-1.8839329674e-07
-9.8538074247e-08
-9.84588562138e-08
-9.85494047788e-08
-6.1817952887e-08
-6.17646054207e-08
-6.17911540757e-08
-4.85818751891e-08
-4.85178815476e-08
-4.84729180042e-08
-4.5131035214e-08
-4.5038745088e-08
-4.4916793978e-08
-4.56841462738e-08
-4.55469285159e-08
-4.53372857739e-08
-5.24138757729e-08
-5.22611318098e-08
-5.19522823415e-08
-7.24234090542e-08
-7.22119303023e-08
-7.17808295973e-08
-0.0432740619937
-0.0564235819153
-0.0566195690145
-0.0505643402137
-0.0478210778734
-0.0946663135258
-0.507088080358
-0.183130375343
-0.0481649325732
-0.0110339559869
-0.0030628195272
-0.00114086058572
-0.000508383339292
-0.00024602235496
-0.000123196125751
-6.2378204338e-05
-3.15461388944e-05
-1.58148497287e-05
-7.81509992594e-06
-3.79366959075e-06
-1.80724272358e-06
-8.46993607968e-07
-3.94981412436e-07
-1.88939487898e-07
-9.88671238087e-08
-6.19407791382e-08
-4.84920381549e-08
-4.48191988188e-08
-4.51171348573e-08
-5.15677335248e-08
-7.1186841796e-08
-0.000232561222614
-0.000178551263637
-0.000134829697545
-9.43890339572e-05
-5.83427499358e-05
-3.01435421408e-05
-1.15023173567e-05
-0.0584439883672
-0.0976618551552
-0.173434006346
-0.327253437668
-0.669554331814
-0.304836716917
-0.117469490815
-0.0439660186465
-0.0157042948889
-0.00538610963521
-0.00185084953017
-0.000866854531053
-0.000584415961025
-0.000451801017265
-0.000350155636582
-0.000259020758553
-0.000178531110416
-0.000110882641388
-5.70633387242e-05
-2.09135779109e-05
-0.0754399935903
-0.124360454783
-0.219957955865
-0.417515366032
-0.474581521869
-0.187168276175
-0.0708799370475
-0.0251343185306
-0.00913122973119
-0.00392746476955
-0.00220049454858
-0.00154017716682
-0.00117494798464
-0.00090322151644
-0.000668057322273
-0.000469276537392
-0.000309271965053
-0.000187071900787
-9.67088835507e-05
-3.4039575631e-05
-0.0734100823804
-0.116239157782
-0.198981809223
-0.366792428197
-0.387654341472
-0.154543146255
-0.060751886361
-0.0247724587934
-0.0118958601772
-0.0070448924796
-0.00471792856637
-0.00335984175627
-0.00239461140731
-0.00167883802436
-0.00114058031143
-0.000742218783168
-0.000459286723899
-0.000267675417486
-0.000136030990314
-4.66079727166e-05
-0.0628814698147
-0.0933799666921
-0.149201731719
-0.254258885235
-0.38385884081
-0.168825029756
-0.0779989319691
-0.0400750512626
-0.0237246176823
-0.0148561204983
-0.00945342390074
-0.00602146679847
-0.00383673252746
-0.00243724004514
-0.00152772378102
-0.000933288107049
-0.000548405780165
-0.000307815435393
-0.000152809899981
-5.13736821539e-05
-0.05570956326
-0.0749369048075
-0.10878285606
-0.168915490066
-0.284203310544
-0.247046579161
-0.125132200583
-0.0687735572672
-0.0397667883975
-0.0234154014235
-0.0138324243192
-0.00818226363204
-0.00478855680663
-0.00274277875258
-0.00154602576403
-0.000871632467363
-0.000498734865312
-0.000282504893028
-0.00013941836882
-4.65357113195e-05
-0.102775843143
-0.122080317879
-0.155557451455
-0.213534582787
-0.322636380573
-0.278246106885
-0.155402585756
-0.0881915998177
-0.0494902578069
-0.0270941918468
-0.0143684112383
-0.00737147266687
-0.00373228757405
-0.00192591274569
-0.00103268775639
-0.00058483840724
-0.000350308736477
-0.000210280827843
-0.000107007931265
-3.63975896539e-05
-0.541018837459
-0.605417646789
-0.484772376568
-0.35782502827
-0.240157952345
-0.150654719973
-0.0904425580015
-0.0512973339699
-0.0272790830883
-0.0138192274785
-0.00691933999791
-0.00351285999938
-0.0018283672537
-0.000984880431195
-0.00056061837723
-0.000339541684421
-0.000218283146052
-0.000139631111075
-7.48237046727e-05
-2.61666369908e-05
-0.172947252079
-0.152895191827
-0.126589105902
-0.0971499912029
-0.0685188752548
-0.043965787484
-0.0262571162669
-0.014905877962
-0.00826533538039
-0.0045536102085
-0.00251705867698
-0.00140636048949
-0.000801313431772
-0.000473729874653
-0.000294813521673
-0.000193207224181
-0.000131924326753
-8.84097058908e-05
-4.95378393584e-05
-1.69211547046e-05
-0.0457289378074
-0.0401560687199
-0.0328477496694
-0.0248825925332
-0.0174574530055
-0.0114504175504
-0.00720594497897
-0.00443300429855
-0.00270646237318
-0.00164599510264
-0.00100086529145
-0.000612243934517
-0.000381065208293
-0.000243742100138
-0.000161843008378
-0.000111390798985
-7.86635833747e-05
-5.38272201737e-05
-3.03940451107e-05
-9.90588691606e-06
-0.010544931036
-0.00941023679125
-0.00790577343852
-0.00623480243047
-0.00463660862972
-0.00329156055554
-0.00226794255814
-0.00153451066174
-0.00102676904106
-0.000681030936528
-0.00044876592269
-0.000295765179427
-0.000196420557757
-0.00013240398355
-9.14239239684e-05
-6.45816327732e-05
-4.60886385741e-05
-3.13538635963e-05
-1.7222842004e-05
-5.33290336826e-06
-0.00295635131451
-0.0027145619521
-0.00238013509557
-0.00198606840987
-0.00158139120684
-0.00121048069376
-0.000899168484689
-0.000653073916367
-0.000465881051964
-0.000327282768079
-0.000227106037188
-0.000156573324135
-0.000107977960012
-7.4987349104e-05
-5.27908234825e-05
-3.75539737511e-05
-2.65061567022e-05
-1.74740206271e-05
-9.11811522231e-06
-2.69180692084e-06
-0.00110959535554
-0.00103984353666
-0.000939748698309
-0.000815402046615
-0.000679396684223
-0.00054556088493
-0.000424369307473
-0.000321485190686
-0.000238222289152
-0.000173195684202
-0.000123924407508
-8.77260947485e-05
-6.18442838436e-05
-4.36601666156e-05
-3.09493074264e-05
-2.18649508646e-05
-1.50209082108e-05
-9.41662209002e-06
-4.60147107506e-06
-1.30169340625e-06
-0.000496974979613
-0.000471942293313
-0.000435074916131
-0.000387363012075
-0.00033245850804
-0.000275338916689
-0.000220688500143
-0.000171878151084
-0.000130578624189
-9.70784801863e-05
-7.08638226356e-05
-5.10429380802e-05
-3.64918129544e-05
-2.59850770167e-05
-1.83944672407e-05
-1.27775501961e-05
-8.4476354291e-06
-4.97351962805e-06
-2.2583791e-06
-6.16570462341e-07
-0.000241558832243
-0.000231718586269
-0.00021677936678
-0.000196713980611
-0.000172646995459
-0.000146443563211
-0.000120175184412
-9.56602283673e-05
-7.4114156309e-05
-5.60813977441e-05
-4.16000964027e-05
-3.03915997846e-05
-2.19655888725e-05
-1.57163086097e-05
-1.10561710438e-05
-7.50562311113e-06
-4.74304104976e-06
-2.60840461031e-06
-1.09901933468e-06
-2.91967415687e-07
-0.00012143761594
-0.000117501587048
-0.000111307551573
-0.000102657804073
-9.18508565619e-05
-7.95642858932e-05
-6.66881123283e-05
-5.41519513222e-05
-4.27228224857e-05
-3.28715306654e-05
-2.47676098646e-05
-1.83507992068e-05
-1.34028571222e-05
-9.62132315807e-06
-6.70733401994e-06
-4.43243687145e-06
-2.66802636786e-06
-1.37028738922e-06
-5.38871187782e-07
-1.4047354038e-07
-6.17120681278e-05
-6.01767296363e-05
-5.76395764822e-05
-5.39353362771e-05
-4.9107689918e-05
-4.33773372628e-05
-3.70999584354e-05
-3.07219240226e-05
-2.468693552e-05
-1.93291477896e-05
-1.48140107875e-05
-1.11512631941e-05
-8.24211570392e-06
-5.93711138243e-06
-4.09559582497e-06
-2.62797673843e-06
-1.50544502791e-06
-7.25945799426e-07
-2.69421725328e-07
-6.95357386459e-08
-3.13135517846e-05
-3.07473790925e-05
-2.97439715962e-05
-2.81983823054e-05
-2.60904695902e-05
-2.3476101127e-05
-2.04811424078e-05
-1.73035323898e-05
-1.41796357695e-05
-1.1319901809e-05
-8.84747152035e-06
-6.78600154674e-06
-5.08970818159e-06
-3.68365922264e-06
-2.51164796798e-06
-1.56214882195e-06
-8.52999038601e-07
-3.89300928462e-07
-1.381898653e-07
-3.56136634268e-08
-1.57411752706e-05
-1.5551082926e-05
-1.51767195813e-05
-1.4559049558e-05
-1.3672323932e-05
-1.25212017827e-05
-1.11414246316e-05
-9.61239572222e-06
-8.04947854147e-06
-6.57152413e-06
-5.25678740198e-06
-4.12455009919e-06
-3.15106032569e-06
-2.29506808782e-06
-1.5441698401e-06
-9.29812914277e-07
-4.85626363038e-07
-2.11772966923e-07
-7.29092103189e-08
-1.8878516327e-08
-7.79665404921e-06
-7.74390268241e-06
-7.61725509221e-06
-7.38630787398e-06
-7.03335384891e-06
-6.55193158116e-06
-5.94744689652e-06
-5.24772110836e-06
-4.50382208259e-06
-3.77583386345e-06
-3.10595868879e-06
-2.50482926821e-06
-1.95727423159e-06
-1.4354403112e-06
-9.5018560505e-07
-5.53466274609e-07
-2.77839817022e-07
-1.16913180472e-07
-3.95066850395e-08
-1.0324532789e-08
-3.79221369426e-06
-3.78453194257e-06
-3.74935010149e-06
-3.67220023571e-06
-3.54344626824e-06
-3.3572123424e-06
-3.11140461523e-06
-2.81405918867e-06
-2.48519825943e-06
-2.15103188923e-06
-1.82959407504e-06
-1.52418788317e-06
-1.22242454335e-06
-9.00700139859e-07
-5.84017478749e-07
-3.29156128196e-07
-1.59729977829e-07
-6.54593132102e-08
-2.19013870946e-08
-5.79193535027e-09
-1.80960381791e-06
-1.81375269813e-06
-1.80898730378e-06
-1.78896120024e-06
-1.74928517225e-06
-1.68672015254e-06
-1.59889567624e-06
-1.48736623484e-06
-1.35855924515e-06
-1.2212126291e-06
-1.07977370027e-06
-9.33393181385e-07
-7.69208351061e-07
-5.65634715459e-07
-3.57520479042e-07
-1.9526157599e-07
-9.21645177538e-08
-3.70722922812e-08
-1.23493489801e-08
-3.30699113866e-09
-8.49603025432e-07
-8.55124018392e-07
-8.5856037567e-07
-8.57499322737e-07
-8.50370602612e-07
-8.35939141774e-07
-8.12965893721e-07
-7.81353864688e-07
-7.42185812097e-07
-6.96350281894e-07
-6.42370601563e-07
-5.77915782968e-07
-4.87314520489e-07
-3.53780491493e-07
-2.17231218494e-07
-1.15325496062e-07
-5.3246845144e-08
-2.1156857376e-08
-7.040055434e-09
-1.90764294432e-09
-3.969464645e-07
-4.01215664308e-07
-4.05609350967e-07
-4.09443332661e-07
-4.12430522021e-07
-4.14397458884e-07
-4.14976785352e-07
-4.13835399531e-07
-4.10275974974e-07
-4.02439887437e-07
-3.87561672451e-07
-3.62828052034e-07
-3.09081311618e-07
-2.18883583787e-07
-1.30466874958e-07
-6.76061270973e-08
-3.0705238111e-08
-1.21038293498e-08
-4.0285252601e-09
-1.10182012339e-09
-1.90203255693e-07
-1.93001179147e-07
-1.96433990179e-07
-2.0045910716e-07
-2.05266630419e-07
-2.11080304035e-07
-2.17937995588e-07
-2.25554496478e-07
-2.32874163757e-07
-2.37767580588e-07
-2.38410459492e-07
-2.30616170982e-07
-1.9424484245e-07
-1.33031916818e-07
-7.71386152281e-08
-3.92018543843e-08
-1.76053286958e-08
-6.9051495759e-09
-2.29898661759e-09
-6.32511164949e-10
-9.96051586541e-08
-1.01254074853e-07
-1.03458366778e-07
-1.06352307762e-07
-1.10223048645e-07
-1.15354097668e-07
-1.21882641526e-07
-1.29591788374e-07
-1.37615765439e-07
-1.44639806747e-07
-1.50112555127e-07
-1.46961347412e-07
-1.19524169301e-07
-7.89394464094e-08
-4.47143185418e-08
-2.24052126814e-08
-9.98656532831e-09
-3.90282877771e-09
-1.29784025474e-09
-3.5719122194e-10
-6.22949968614e-08
-6.30959433243e-08
-6.41946952125e-08
-6.57295820682e-08
-6.79353010798e-08
-7.10341846727e-08
-7.51402680711e-08
-8.01182616545e-08
-8.55163683226e-08
-9.11478177019e-08
-9.65454247004e-08
-9.229560491e-08
-7.13503632962e-08
-4.55654169628e-08
-2.5347536387e-08
-1.25824777285e-08
-5.58075019279e-09
-2.1738131004e-09
-7.20264225679e-10
-1.97160385688e-10
-4.85510818491e-08
-4.86855160462e-08
-4.88287882448e-08
-4.90709725043e-08
-4.95685181371e-08
-5.04701731852e-08
-5.18635510245e-08
-5.37359082515e-08
-5.6145355712e-08
-5.97091046235e-08
-6.24486277661e-08
-5.621638992e-08
-4.11801033766e-08
-2.55791050322e-08
-1.40443160878e-08
-6.92909086626e-09
-3.0620469946e-09
-1.18789205509e-09
-3.90999569235e-10
-1.05595017603e-10
-4.46200588906e-08
-4.41770373057e-08
-4.34732548319e-08
-4.25526496075e-08
-4.15174132364e-08
-4.04784689988e-08
-3.95394462455e-08
-3.88609414694e-08
-3.89812248094e-08
-4.04092101751e-08
-3.97482218884e-08
-3.30737067847e-08
-2.30809390752e-08
-1.40213038987e-08
-7.62594165385e-09
-3.74610254623e-09
-1.64983825606e-09
-6.36571746907e-10
-2.06867983159e-10
-5.40828691127e-11
-4.46586240415e-08
-4.3662488187e-08
-4.21832204112e-08
-4.02499241716e-08
-3.79483289408e-08
-3.5389493972e-08
-3.271973263e-08
-3.02564727567e-08
-2.8703802943e-08
-2.77670797164e-08
-2.47144056574e-08
-1.90027403274e-08
-1.27111454877e-08
-7.57469019339e-09
-4.0848068892e-09
-1.99621680158e-09
-8.7359886407e-10
-3.33082783513e-10
-1.05478611494e-10
-2.59219624355e-11
-5.07395531026e-08
-4.89964182913e-08
-4.66133954963e-08
-4.36789517097e-08
-4.02886413017e-08
-3.65225540478e-08
-3.24357043976e-08
-2.81237968396e-08
-2.38994689686e-08
-1.98605251884e-08
-1.54940232236e-08
-1.09752087556e-08
-7.02521673316e-09
-4.09163668146e-09
-2.17691080585e-09
-1.05135244686e-09
-4.53125169509e-10
-1.68469168234e-10
-5.09362009124e-11
-1.12961138503e-11
-6.98890615414e-08
-6.72474206459e-08
-6.38039105605e-08
-5.96906116672e-08
-5.49612568043e-08
-4.95524841565e-08
-4.3254279502e-08
-3.55755706173e-08
-2.61084730079e-08
-1.70041608904e-08
-1.08045107751e-08
-6.78420645537e-09
-4.06236735422e-09
-2.27549498427e-09
-1.17996703569e-09
-5.57516477493e-10
-2.3429369883e-10
-8.40980615451e-11
-2.39869048948e-11
-4.66060092612e-12
-5.97660824891e-06
-4.21215752406e-06
-1.0222798111e-05
-6.94110577092e-06
-1.54074751003e-05
-9.64385359506e-06
-1.9566525818e-05
-1.07240531726e-05
-2.09670743633e-05
-8.82488456663e-06
-1.82228686789e-05
-3.98884448364e-06
-1.34741628865e-05
-5.52103366454e-06
-8.32680507375e-06
-2.31756421921e-06
-4.90524804392e-06
-1.12451548519e-06
-2.86033286856e-06
-6.1586831368e-07
-1.61943985395e-06
-3.48338634123e-07
-8.77609662181e-07
-1.90713806529e-07
-4.5658711137e-07
-9.97196876473e-08
-2.31514722444e-07
-5.06941260764e-08
-1.16579953398e-07
-2.56318178386e-08
-5.93778015848e-08
-1.31354878657e-08
-3.09293310515e-08
-6.90575659878e-09
-1.65812425516e-08
-3.74502862944e-09
-9.15462727771e-09
-2.09309026863e-09
-5.1913214999e-09
-1.20041166823e-09
-3.00456334514e-09
-7.01385117335e-10
-1.76053756183e-09
-4.1376794084e-10
-1.03655823482e-09
-2.4470819466e-10
-6.06773621536e-10
-1.43329119796e-10
-3.50825851356e-10
-8.26845632976e-11
-1.97736051437e-10
-4.6237427493e-11
-1.0815293454e-10
-2.49747858353e-11
-5.64647068896e-11
-1.27581200011e-11
-2.73658026701e-11
-5.91558306674e-12
-1.1746786026e-11
-2.35764773028e-12
-4.20422647677e-12
-7.74250341347e-13
-1.25883652317e-12
-2.24291353021e-13
)
;

boundaryField
{
    inletfuel
    {
        type            calculated;
        value           nonuniform 0();
    }
    inletair
    {
        type            calculated;
        value           nonuniform 0();
    }
    outlet
    {
        type            calculated;
        value           uniform 0;
    }
    axis
    {
        type            empty;
    }
    leftside
    {
        type            calculated;
        value           uniform 0;
    }
    burnerwall
    {
        type            calculated;
        value           nonuniform 0();
    }
    front
    {
        type            wedge;
    }
    back
    {
        type            wedge;
    }
    procBoundary1to0
    {
        type            processor;
        value           uniform 0;
    }
}


// ************************************************************************* //
