/*--------------------------------*- C++ -*----------------------------------*\
  =========                 |
  \\      /  F ield         | OpenFOAM: The Open Source CFD Toolbox
   \\    /   O peration     | Website:  https://openfoam.org
    \\  /    A nd           | Version:  7
     \\/     M anipulation  |
\*---------------------------------------------------------------------------*/
FoamFile
{
    version     2.0;
    format      ascii;
    class       volScalarField;
    location    "0.06";
    object      ed::R_O2;
}
// * * * * * * * * * * * * * * * * * * * * * * * * * * * * * * * * * * * * * //

dimensions      [1 -3 -1 0 0 0 0];

internalField   nonuniform List<scalar> 
815
(
-0.241844398469
-0.256459314371
-0.291996649716
-0.316245483313
-0.33643585364
-0.381338641955
-0.33389899385
-0.350974931393
-0.391098779836
-0.315014957463
-0.328647673716
-0.358144064558
-0.326446729279
-0.334002374265
-0.353001528103
-0.695385874613
-0.704270738697
-0.72331941105
-3.8197510207
-3.84232733277
-3.91801831608
-1.52878526153
-1.51615418426
-1.48883832973
-0.400103194268
-0.396834227253
-0.390788127165
-0.0909188131355
-0.0903812833881
-0.0892333328302
-0.0250898653768
-0.0249510537001
-0.0246805390639
-0.00929182988225
-0.00924819640174
-0.00916382602747
-0.00412254669204
-0.00410661071947
-0.00407470142407
-0.00198934494341
-0.00198143181678
-0.00196841471614
-0.000991946945035
-0.000989053600449
-0.000983825812302
-0.000501014059629
-0.000499515410939
-0.000497401128333
-0.000252507552147
-0.000251939615631
-0.000251147256351
-0.000126295639839
-0.000126053251821
-0.000125754394119
-6.2295759831e-05
-6.21900499018e-05
-6.20810990836e-05
-3.01962365044e-05
-3.01489701371e-05
-3.01106765632e-05
-1.43678150252e-05
-1.43470195192e-05
-1.43342491778e-05
-6.72636215445e-06
-6.71618236916e-06
-6.71319088994e-06
-3.13108544284e-06
-3.1273807688e-06
-3.12783494776e-06
-1.49560916175e-06
-1.49411169007e-06
-1.49509138387e-06
-7.81999297955e-07
-7.81370622726e-07
-7.82089217186e-07
-4.90587989749e-07
-4.9016462364e-07
-4.90375314073e-07
-3.85546323911e-07
-3.85038469632e-07
-3.8468163843e-07
-3.5816041792e-07
-3.57428002412e-07
-3.56460196991e-07
-3.62549913693e-07
-3.61460951978e-07
-3.59797224751e-07
-4.15957124905e-07
-4.14744947046e-07
-4.1229391409e-07
-5.74753012667e-07
-5.73074714844e-07
-5.69653494658e-07
-0.343423456946
-0.44777819927
-0.449333555158
-0.401279189296
-0.379508627606
-0.75127296005
-4.02425687605
-1.45332477874
-0.382237462484
-0.0875656024474
-0.0243065712247
-0.00905388281549
-0.00403453606594
-0.00195243625705
-0.000977685880149
-0.00049503415175
-0.000250350523461
-0.000125506830528
-6.20207234841e-05
-3.01066057898e-05
-1.4342299176e-05
-6.72175107809e-06
-3.13457706161e-06
-1.49942596322e-06
-7.84610639086e-07
-4.91562740301e-07
-3.84833376168e-07
-3.55685680677e-07
-3.58050104528e-07
-4.09242130229e-07
-5.64939600591e-07
-0.00184560855492
-0.00141698489523
-0.00107001004058
-0.000749072466183
-0.000463008738898
-0.000239219499387
-9.12825237e-05
-0.463812168262
-0.775045613099
-1.37637428213
-2.5970870698
-5.3135909284
-2.41918771441
-0.932239238999
-0.348914832953
-0.124629466039
-0.0427442284176
-0.0146883632979
-0.00687936759362
-0.00463793183221
-0.00358549810331
-0.00277883918551
-0.00205559173844
-0.00141682495903
-0.000879965925694
-0.000452855316712
-0.000165970396408
-0.598692662467
-0.986926008826
-1.7455888841
-3.31340677822
-3.76628445157
-1.48536960648
-0.562504000953
-0.199466242827
-0.0724655448549
-0.0311684058776
-0.0174631502117
-0.0122228638258
-0.00932440080798
-0.00716797641065
-0.00530171064335
-0.00372418403335
-0.00245438589497
-0.00148460477029
-0.000767482819413
-0.000270138466268
-0.582583263606
-0.922475301804
-1.57912194152
-2.91086895636
-3.07642934162
-1.22645619776
-0.482127673458
-0.196594519764
-0.0944056840796
-0.0559083482736
-0.03744153572
-0.0266637430731
-0.0190036638498
-0.0133232779965
-0.00905165855553
-0.00589025685555
-0.00364490475782
-0.00212427521193
-0.0010795435139
-0.000369881411038
-0.4990280724
-0.741064496686
-1.18406667016
-2.01780145667
-3.04630820443
-1.33979739056
-0.619000427065
-0.31803607075
-0.188278840576
-0.117898344257
-0.0750224815143
-0.0477864302205
-0.030448353754
-0.0193419652131
-0.0121240336119
-0.00740658522179
-0.00435215462003
-0.00244282685872
-0.00121270113526
-0.000407702136303
-0.442111738955
-0.594700144063
-0.863302005025
-1.34051528462
-2.25544076257
-1.96056451216
-0.993050592423
-0.545787746633
-0.315589693085
-0.185824896767
-0.109774279528
-0.0649345389062
-0.0380020422524
-0.0217667239324
-0.012269278361
-0.00691728535149
-0.00395796566474
-0.0022419621015
-0.00110642578894
-0.000369307943754
-0.815630280972
-0.968830815954
-1.23450573556
-1.69461292099
-2.56044605124
-2.20816432536
-1.23327671958
-0.699889557107
-0.392755258882
-0.215019820153
-0.114027877924
-0.0585000924204
-0.0296194773947
-0.0152840658452
-0.00819542198968
-0.00464128437027
-0.00278005418805
-0.00166879108409
-0.000849216181298
-0.000288851692852
-4.29353175721
-4.80460145356
-3.84715919243
-2.83970356673
-1.90589629001
-1.19559760177
-0.717753187312
-0.407096236231
-0.216487119186
-0.109669549248
-0.0549119623255
-0.0278780976218
-0.0145099436915
-0.00781602250348
-0.00444907393172
-0.00269460673829
-0.00173229757403
-0.00110811411394
-0.000593801786483
-0.000207658734078
-1.37251139463
-1.21337801234
-1.00461260991
-0.770983454847
-0.543766587234
-0.348912998445
-0.208376778661
-0.118293220065
-0.0655937972628
-0.0361375033298
-0.0199754067993
-0.0111608931254
-0.00635923267098
-0.0037595257694
-0.00233964352092
-0.00153329476777
-0.00104695298434
-0.000701620449428
-0.000393132866625
-0.000134286479624
-0.362905379823
-0.318679026229
-0.26068012164
-0.197468542398
-0.138542549148
-0.0908706462359
-0.0571864627731
-0.0351803734322
-0.0214785167251
-0.0130626361895
-0.00794287853953
-0.00485877495199
-0.00302413790443
-0.00193434012839
-0.00128438798807
-0.000883998670265
-0.000624275108315
-0.000427173442432
-0.000241207493857
-7.86132332418e-05
-0.0836846947753
-0.0746797481134
-0.0627403095296
-0.0494794642657
-0.0367961797613
-0.0261218626737
-0.0179984183964
-0.0121778943759
-0.0081484509963
-0.00540466939627
-0.00356141155763
-0.00234719588787
-0.00155879582023
-0.00105075954623
-0.000725541318987
-0.000512520585321
-0.000365759969272
-0.00024882462447
-0.000136680673524
-4.23219828671e-05
-0.0234616382563
-0.0215427950771
-0.0188887796722
-0.0157614618926
-0.0125499389246
-0.00960638879888
-0.00713581150376
-0.00518280216063
-0.00369723742168
-0.00259731983628
-0.00180231614023
-0.00124256771291
-0.000856914340665
-0.000595100470584
-0.000418948586293
-0.000298028770434
-0.000210353166438
-0.000138674029986
-7.23614679605e-05
-2.13622108856e-05
-0.00880576158683
-0.00825221034469
-0.00745785654883
-0.00647104008148
-0.00539169995106
-0.00432957749851
-0.00336779973684
-0.00255131019497
-0.0018905348445
-0.00137448295484
-0.0009834655326
-0.00069619530349
-0.000490796952526
-0.000346487587695
-0.000245614062022
-0.000173520503182
-0.000119206101451
-7.47304219184e-05
-3.65173277208e-05
-1.03302539411e-05
-0.00394399919146
-0.0037453395032
-0.00345275957108
-0.00307411734815
-0.00263839456853
-0.00218509283032
-0.00175138649195
-0.00136402699676
-0.00103627347321
-0.000770415942592
-0.000562376116794
-0.000405077347505
-0.000289599450055
-0.000206217872022
-0.000145978704967
-0.000101402786276
-6.70405325598e-05
-3.94699093444e-05
-1.79225226818e-05
-4.8931103269e-06
-0.00191701368909
-0.00183892138313
-0.00172036356432
-0.0015611244274
-0.00137012855462
-0.00116217781295
-0.000953711654709
-0.000759160679738
-0.000588170802454
-0.000445062621726
-0.000330138846637
-0.00024118808772
-0.000174319167578
-0.000124724807067
-8.77419013962e-05
-5.95647118991e-05
-3.76408286789e-05
-2.07003291838e-05
-8.72183016291e-06
-2.31705679086e-06
-0.000963730325926
-0.000932493955077
-0.000883338017841
-0.000814693521544
-0.000728929460991
-0.000631423093928
-0.000529237631456
-0.000429750512586
-0.000339048813829
-0.000260868847899
-0.000196556038609
-0.000145632154944
-0.000106365229281
-7.63549319642e-05
-5.322948043e-05
-3.51758703241e-05
-2.11734881419e-05
-1.08746165841e-05
-4.2764879845e-06
-1.11479964265e-06
-0.000489747687075
-0.000477563223032
-0.00045742834623
-0.00042803145308
-0.000389719195687
-0.000344243050677
-0.000294425699632
-0.000243809544698
-0.000195915806076
-0.000153396340623
-0.000117564161105
-8.84965538017e-05
-6.54095256415e-05
-4.71169846622e-05
-3.25026958798e-05
-2.08556538191e-05
-1.19472291694e-05
-5.76111426819e-06
-2.13813393118e-06
-5.51836426878e-07
-0.000248504709466
-0.000244011556427
-0.00023604850292
-0.000223782688415
-0.000207054268706
-0.000186306610316
-0.000162538583249
-0.000137321033361
-0.000112529753618
-8.98348718016e-05
-7.02136364087e-05
-5.38537868334e-05
-4.03919830503e-05
-2.92335622349e-05
-1.99324673501e-05
-1.23972311353e-05
-6.76941024512e-06
-3.08949667504e-06
-1.09667637079e-06
-2.82630445238e-07
-0.000124922149176
-0.000123413574128
-0.000120442622291
-0.000115540785836
-0.000108503721002
-9.93684023e-05
-8.84184748557e-05
-7.62840837299e-05
-6.38807548902e-05
-5.21516915713e-05
-4.17179256775e-05
-3.27324773352e-05
-2.50068512231e-05
-1.82136869139e-05
-1.22545497272e-05
-7.37900605172e-06
-3.85393643895e-06
-1.6806327171e-06
-5.78608337128e-07
-1.49820124119e-07
-6.18743367929e-05
-6.14557013352e-05
-6.04506245933e-05
-5.86178247958e-05
-5.58167775669e-05
-5.19962048768e-05
-4.71990074217e-05
-4.16459754665e-05
-3.57423841861e-05
-2.99650612515e-05
-2.46489241105e-05
-1.98783540698e-05
-1.55329509603e-05
-1.13916709271e-05
-7.54068396155e-06
-4.39231476252e-06
-2.20494000431e-06
-9.27824353674e-07
-3.13525509824e-07
-8.19356117356e-08
-3.00950517784e-05
-3.0034089308e-05
-2.97548858099e-05
-2.9142623582e-05
-2.81208306056e-05
-2.66428760142e-05
-2.46921430458e-05
-2.23324062984e-05
-1.97225621568e-05
-1.70706139745e-05
-1.45196797599e-05
-1.20959726857e-05
-9.70117532749e-06
-7.14796673692e-06
-4.63476947226e-06
-2.61218684386e-06
-1.26761895317e-06
-5.19485867429e-07
-1.73809661525e-07
-4.59648659904e-08
-1.43610368479e-05
-1.43939624094e-05
-1.43561441846e-05
-1.41972167951e-05
-1.38823473777e-05
-1.3385830657e-05
-1.26888545963e-05
-1.18037556583e-05
-1.07815418969e-05
-9.691557562e-06
-8.56909658542e-06
-7.40741909294e-06
-6.1044463788e-06
-4.48888364998e-06
-2.83728666053e-06
-1.54959812751e-06
-7.31418679841e-07
-2.94206140712e-07
-9.80045764687e-08
-2.624431996e-08
-6.7424594453e-06
-6.78627410934e-06
-6.81354508048e-06
-6.80512455212e-06
-6.74855094668e-06
-6.6340227064e-06
-6.4517067439e-06
-6.20083331555e-06
-5.88999519675e-06
-5.52624389844e-06
-5.09786053044e-06
-4.58634634391e-06
-3.86733367602e-06
-2.80760607605e-06
-1.72394946475e-06
-9.15224471819e-07
-4.22567579477e-07
-1.67901065059e-07
-5.58699614237e-08
-1.513907649e-08
-3.15017173754e-06
-3.18405215664e-06
-3.21892050483e-06
-3.24934702794e-06
-3.27305339728e-06
-3.288663031e-06
-3.29326057255e-06
-3.28420252146e-06
-3.25595488697e-06
-3.19376760556e-06
-3.0756939192e-06
-2.87940762124e-06
-2.4528728671e-06
-1.73706265485e-06
-1.03538663002e-06
-5.3652300729e-07
-2.43677125109e-07
-9.60561298405e-08
-3.19704231006e-08
-8.7440572545e-09
-1.50945523907e-06
-1.531659592e-06
-1.55890242009e-06
-1.59084579505e-06
-1.62899835528e-06
-1.6751357364e-06
-1.72955845595e-06
-1.79000309519e-06
-1.84809205945e-06
-1.88692627207e-06
-1.8920281665e-06
-1.83017260265e-06
-1.54152931837e-06
-1.05574283192e-06
-6.12172943449e-07
-3.11106370216e-07
-1.39716092338e-07
-5.47993469721e-08
-1.82447844116e-08
-5.01961592733e-09
-7.90467692163e-07
-8.03553510209e-07
-8.21046796438e-07
-8.44013145589e-07
-8.7473139005e-07
-9.15451454493e-07
-9.67262054133e-07
-1.02844193276e-06
-1.09212030764e-06
-1.14786318077e-06
-1.19129497527e-06
-1.16628695437e-06
-9.48545191253e-07
-6.26464360551e-07
-3.54853349585e-07
-1.77808027214e-07
-7.92534980554e-08
-3.09728943612e-08
-1.02996752861e-08
-2.83467367236e-09
-4.94373816253e-07
-5.00730136655e-07
-5.09449844359e-07
-5.21630724215e-07
-5.39135335825e-07
-5.63728111893e-07
-5.96314037277e-07
-6.35819451983e-07
-6.78658888992e-07
-7.23350136459e-07
-7.66185608085e-07
-7.3245898903e-07
-5.66237309109e-07
-3.61607676507e-07
-2.01158342204e-07
-9.98546889146e-08
-4.42888981358e-08
-1.725140593e-08
-5.71602523316e-09
-1.56466710325e-09
-3.85301947608e-07
-3.86368818953e-07
-3.8750582878e-07
-3.89427805867e-07
-3.93376333769e-07
-4.00531878668e-07
-4.11589741332e-07
-4.2644878996e-07
-4.455701929e-07
-4.73852145518e-07
-4.95593032891e-07
-4.46133921197e-07
-3.2680577712e-07
-2.02996073654e-07
-1.11455855057e-07
-5.49893453296e-08
-2.43004403971e-08
-9.42712510086e-09
-3.10297710787e-09
-8.38003282122e-10
-3.54105303902e-07
-3.50589479475e-07
-3.45004253616e-07
-3.37698319898e-07
-3.29482672072e-07
-3.21237598576e-07
-3.13785503134e-07
-3.08400881377e-07
-3.09355451355e-07
-3.20687959749e-07
-3.15442349053e-07
-2.62473319923e-07
-1.83170599699e-07
-1.11273230058e-07
-6.0519561247e-08
-2.97291131738e-08
-1.30931354995e-08
-5.05184075275e-09
-1.64170670916e-09
-4.29202275371e-10
-3.54411357386e-07
-3.46506011713e-07
-3.34766525519e-07
-3.19423864181e-07
-3.01158377785e-07
-2.8085143385e-07
-2.59664176933e-07
-2.40115718063e-07
-2.27793712446e-07
-2.20359866076e-07
-1.96133809404e-07
-1.50805967224e-07
-1.00875797741e-07
-6.01128290635e-08
-3.24170747606e-08
-1.58419996466e-08
-6.93289069852e-09
-2.6433488259e-09
-8.37079481896e-10
-2.05716993975e-10
-4.02669680811e-07
-3.88836142769e-07
-3.69924446281e-07
-3.46636666419e-07
-3.19731123774e-07
-2.89843411729e-07
-2.57410125593e-07
-2.23190777296e-07
-1.89666462408e-07
-1.57613357812e-07
-1.2296074767e-07
-8.70993837392e-08
-5.57522013221e-08
-3.24712760711e-08
-1.72759893563e-08
-8.34354518931e-09
-3.59600659085e-09
-1.3369732694e-09
-4.04230280106e-10
-8.96460902862e-11
-5.54640401467e-07
-5.33676308739e-07
-5.06348572837e-07
-4.73705385202e-07
-4.3617317026e-07
-3.93249087913e-07
-3.43266462863e-07
-2.82328140261e-07
-2.07197144037e-07
-1.34945217676e-07
-8.57447225904e-08
-5.38395409675e-08
-3.22389943512e-08
-1.80583545376e-08
-9.36423205519e-09
-4.4244572195e-09
-1.85935750623e-09
-6.67403189987e-10
-1.90360354931e-10
-3.69865829033e-11
-4.74304322518e-05
-3.34277308732e-05
-8.11282441538e-05
-5.50846957521e-05
-0.000122273900761
-7.65337337729e-05
-0.000155280175405
-8.51062101251e-05
-0.000166394944874
-7.00343860825e-05
-0.000144616896793
-3.16555159992e-05
-0.000106931112651
-4.38149870763e-05
-6.60816214609e-05
-1.83922164731e-05
-3.89281052623e-05
-8.92416790844e-06
-2.26996347577e-05
-4.88753806699e-06
-1.28518934284e-05
-2.76441943296e-06
-6.96472043876e-06
-1.51350697642e-06
-3.62348060154e-06
-7.91376595578e-07
-1.83730351745e-06
-4.02309171406e-07
-9.25179859759e-07
-2.03414403095e-07
-4.71222920767e-07
-1.04243383765e-07
-2.4545552928e-07
-5.48041643127e-08
-1.31588932843e-07
-2.97205905578e-08
-7.26512280549e-08
-1.66107886026e-08
-4.11983875208e-08
-9.52648089573e-09
-2.38442494895e-08
-5.56620041079e-09
-1.39716464716e-08
-3.28366716851e-09
-8.2261381513e-09
-1.9420070657e-09
-4.81536248485e-09
-1.13746155396e-09
-2.78415801771e-09
-6.56185651531e-10
-1.56923559331e-09
-3.66940759854e-10
-8.58302940549e-10
-1.98200189511e-10
-4.48104567542e-10
-1.01248588023e-10
-2.17175326791e-10
-4.69461356997e-11
-9.32226298896e-11
-1.87103196809e-11
-3.33647899901e-11
-6.14445967208e-12
-9.99014122086e-12
-1.7799787741e-12
)
;

boundaryField
{
    inletfuel
    {
        type            calculated;
        value           nonuniform 0();
    }
    inletair
    {
        type            calculated;
        value           nonuniform 0();
    }
    outlet
    {
        type            calculated;
        value           uniform 0;
    }
    axis
    {
        type            empty;
    }
    leftside
    {
        type            calculated;
        value           uniform 0;
    }
    burnerwall
    {
        type            calculated;
        value           nonuniform 0();
    }
    front
    {
        type            wedge;
    }
    back
    {
        type            wedge;
    }
    procBoundary1to0
    {
        type            processor;
        value           uniform 0;
    }
}


// ************************************************************************* //
