/*--------------------------------*- C++ -*----------------------------------*\
  =========                 |
  \\      /  F ield         | OpenFOAM: The Open Source CFD Toolbox
   \\    /   O peration     | Website:  https://openfoam.org
    \\  /    A nd           | Version:  7
     \\/     M anipulation  |
\*---------------------------------------------------------------------------*/
FoamFile
{
    version     2.0;
    format      ascii;
    class       volScalarField;
    location    "0.06";
    object      epsilon;
}
// * * * * * * * * * * * * * * * * * * * * * * * * * * * * * * * * * * * * * //

dimensions      [0 2 -3 0 0 0 0];

internalField   nonuniform List<scalar> 
815
(
2115.65263789
2104.77660067
2077.00222779
1747.20152819
1741.32887747
1726.52441736
1478.90289278
1477.84250644
1473.87932942
1244.58352726
1247.18220659
1251.9997485
1203.05397817
1206.89884566
1214.83093089
1506.04857441
1508.6846854
1513.73067675
1014.14632285
1012.06869581
1005.24685681
168.198440145
167.689785934
166.773048051
39.903469041
39.8924183994
39.897627384
16.941606068
16.9546059803
17.0061693871
11.2170131658
11.2273155619
11.2660832628
9.29410165009
9.30434615109
9.33988979076
8.28611876291
8.29781739525
8.33423382223
7.58647748433
7.59724423889
7.63108117025
7.01441453977
7.02543196367
7.05941059171
6.52840337456
6.53849085452
6.57052050523
6.09783403835
6.10703762078
6.1375865624
5.70197658813
5.71045743236
5.73991519163
5.32752355337
5.33507953634
5.36305468711
4.96561399075
4.97195793639
4.99783717695
4.6081023405
4.61335487814
4.63715686114
4.25539599413
4.25893773228
4.27927390837
3.90640702411
3.90835795689
3.92527365228
3.56411726325
3.56451184039
3.57790313132
3.23421488241
3.23307591085
3.2428061989
2.92193125103
2.91940219576
2.92562979999
2.63337467234
2.62960646831
2.63245080972
2.37804134702
2.37330618564
2.37314805607
2.2149610263
2.2093077137
2.20629219948
2.61933127477
2.61417709965
2.6098047745
6.261687225
6.25761609282
6.2485398075
2033.49873655
1703.03575608
1466.74950128
1257.66967659
1225.57254299
1521.22994504
997.011367521
165.67158008
39.8927817697
17.0667535626
11.3246334587
9.39619179093
8.39048094149
7.68613671323
7.11453602528
6.62493114961
6.19088071998
5.79202312332
5.41337493946
5.04549442397
4.68158221948
4.31940173753
3.96046763024
3.60774281424
3.26698048875
2.94421296285
2.64577250294
2.38179146165
2.21062241211
2.60932668589
6.23954799388
4.20284129388
3.57403732208
2.93332453604
2.33100139309
1.74410163916
1.28358494751
1.34879209158
1932.61435885
1724.3637896
1438.74444898
1101.44208303
753.885139632
435.527032318
188.887187954
73.8726510312
35.1303842413
20.0009605572
12.6242670001
9.94810510092
9.14208527224
8.37305283436
7.23480911785
5.91925637127
4.64340085742
3.43783401931
2.30697428707
1.87237060106
1648.54144913
1519.63494306
1322.18457369
1055.7077347
747.280786899
442.863207218
207.268936856
85.8205446701
42.3213551373
28.0610616516
23.2251527485
21.6527246099
20.1853968269
17.813176662
14.6915228497
11.5300840179
8.79284947691
6.50092918492
4.26051381448
2.77713950569
1447.76171692
1393.28706523
1282.7727526
1091.74572322
830.937453165
541.282973313
289.42543783
141.7415836
83.7331952325
65.1049200934
57.3003363944
50.4861069159
41.9735478448
32.8166206739
24.6298041272
18.2471455129
13.705862988
10.5355060193
7.10015974797
4.11081582624
1267.14630706
1275.17835729
1250.99452895
1157.41137183
977.779500348
738.428705361
484.857979377
302.4303136
207.499775462
152.491930555
112.631518813
80.8533671237
56.4777124746
39.1310638717
27.6796891121
20.5817799593
16.3830985525
13.7198894926
9.70044717097
5.62492738078
1248.89278694
1295.94499489
1342.88720075
1346.62047943
1252.031882
1045.38826758
773.030275772
515.529522749
320.213570671
193.634618237
118.616717036
74.8510700929
48.2963482903
31.9009499133
22.3279940995
17.3579886351
15.4326396505
14.5769923576
10.8357709545
7.20701540183
1536.35287157
1557.98514269
1564.17723285
1511.89039088
1349.38106095
1061.39623216
724.951474447
436.10750331
242.880306187
134.592896414
76.8083357682
45.880769745
29.0505951989
19.9245528865
15.2039079782
13.219731631
13.1157990893
13.4866144398
10.7676651056
9.53545320954
976.728971603
921.947096334
832.808648813
701.931791532
536.788069841
367.7113167
234.912101293
140.297512469
81.9440117066
49.1578905708
31.3370398728
21.4654562215
15.8406976444
12.7048150365
11.2391591354
10.9480905196
11.5989940778
12.3629445338
11.2269518873
13.4112544826
162.815142045
153.458368242
138.377919389
118.490669946
95.1354322466
70.3079909061
50.0622526757
35.1272533136
25.1276953717
18.6586795785
14.5204846065
11.9201732992
10.4028170679
9.71558334329
9.68888718012
10.1920090088
11.1655237757
12.3138776288
13.1230237185
19.0584149613
39.7403463058
38.2807304182
35.660281566
31.9165892679
27.322262491
22.4465933697
18.1147930275
14.6672196743
12.1395611565
10.3773322137
9.2434340447
8.63167635182
8.47176597785
8.71057564282
9.29993600717
10.2515659644
11.6160334658
13.4827091145
16.3641993637
25.9177862637
17.1145911193
16.8749954209
16.2371438874
15.1326811446
13.6391062327
11.9715737669
10.3971417731
9.10662321811
8.17227043675
7.59073220776
7.34113940483
7.40177351564
7.75560957435
8.40053468178
9.35833551802
10.7168438224
12.630050453
15.4753738847
20.3168565346
32.6070352551
11.4134038918
11.4376126144
11.2365424132
10.716836156
9.89898989337
8.91843138562
7.9633750221
7.19129568618
6.67822326263
6.4405577748
6.47401396673
6.77528481361
7.35239285413
8.23885735065
9.51374005548
11.3250480074
13.9333974431
17.8663998988
24.3240024778
37.8075689733
9.49303960912
9.57987911911
9.49756467681
9.14582393416
8.52209293787
7.73195787928
6.94137949034
6.30137969652
5.89468776064
5.74630544014
5.85968579469
6.24681088384
6.94407199851
8.02951642857
9.64173800589
12.0012556892
15.4487973779
20.5231982283
28.1079873984
41.1640825398
8.49276509821
8.60837885028
8.5856830552
8.32058607944
7.79176164749
7.08142217693
6.34073717827
5.72113810648
5.31625229952
5.16143924603
5.2707956544
5.67470417133
6.44566892315
7.71972557369
9.71537122944
12.745312654
17.2017986134
23.4708711359
31.6983957423
43.2696529218
7.79189352936
7.92743371372
7.94667617422
7.74289598306
7.27957746921
6.61770576237
5.89344178919
5.25804958775
4.8164451339
4.61571973237
4.68137430906
5.06439146415
5.88072258432
7.34426613178
9.78944163843
13.651348341
19.340364453
26.8675045289
35.3086150959
44.994812286
7.22296402765
7.37416029102
7.42723148023
7.27337575616
6.86357276689
6.23993274547
5.52377017591
4.86401002738
4.37448570348
4.11316162747
4.11572381735
4.45339538632
5.29127775373
6.94603914179
9.9196708182
14.814383702
21.9855870465
30.8125631459
39.1341480968
46.9700720242
6.73527939592
6.89864948829
6.97810956072
6.86473918658
6.50055410483
5.91182811249
5.20524325574
4.52482098829
3.99018520556
3.66819466697
3.60270374758
3.88300153289
4.72846343443
6.58989552922
10.1988001891
16.3563052673
25.2306198875
35.3239084126
43.3070297383
49.5018962183
6.30078241364
6.47150735234
6.56998122277
6.48844594064
6.16354936512
5.60922855653
4.91847551694
4.22797287192
3.65936919841
3.28593549302
3.15784963371
3.3807008318
4.23385468714
6.33490841659
10.7133442961
18.3731473444
29.0992398509
40.3452481279
47.8412758714
52.6518050685
5.90029232228
6.0736913217
6.18359760373
6.12522639385
5.83321331678
5.31297731312
4.64552984454
3.95842652714
3.37164759199
2.96189692525
2.78518313447
2.96339348261
3.8441612707
6.25264872533
11.582395162
20.9828592821
33.6110346279
45.8061705632
52.7045969381
56.3913737574
5.51835617214
5.68961470641
5.80354160469
5.76000225539
5.49463830881
5.00791000857
4.37096213456
3.70107290719
3.11348344102
2.68625278287
2.48067414248
2.63792977842
3.5905393509
6.42595606752
12.9484675362
24.2963056186
38.764069685
51.6554720511
57.8686208533
60.6626022751
5.14514571156
5.30933323427
5.42023737482
5.38378877482
5.13912657995
4.68468279464
4.08394862697
3.44416001872
2.87338333134
2.44860416169
2.237251634
2.40831712405
3.51117848951
6.96731123481
14.9832907792
28.4280743108
44.5612199661
57.8712614583
63.3399730089
65.4351148609
4.77426597455
4.92694477069
5.02874543434
4.99279647274
4.76363179914
4.34024157621
3.78060400584
3.18220600178
2.64420838762
2.24099081914
2.04930424487
2.28306064572
3.66302699439
8.02644285691
17.8818630701
33.4881736832
51.0195095578
64.4850130452
69.1432379289
70.6780147568
4.40343098984
4.54080244744
4.62851542526
4.58796925737
4.37058200841
3.97774581257
3.46337428256
2.91553983544
2.42362102717
2.05967113981
1.91700322409
2.28510297854
4.14200494561
9.80956621758
21.851546529
39.5512199664
58.1864244404
71.5699912278
75.3268634108
76.397811238
4.03416095978
4.15308170413
4.2231863751
4.17487582563
3.96733001313
3.60537857424
3.13970121685
2.64922189433
2.21400547897
1.90669815112
1.8518258988
2.46917599561
5.11547018124
12.5931655607
27.0827554081
46.7138016358
66.1547465128
79.2162090689
81.9499145351
82.5576484815
3.67023387574
3.76883278958
3.81962797141
3.76242509437
3.56458937473
3.23457368065
2.82013902944
2.39176165891
2.02213148175
1.79213825684
1.88727348311
2.95161101342
6.85773550481
16.6861616332
33.7474258806
55.0840330604
75.0189174498
87.5121329871
89.0425352181
89.0812741499
3.31770780805
3.3953362354
3.42684627337
3.36151637668
3.17471880358
2.87817009118
2.5167742961
2.15378586073
1.85941162244
1.7398248727
2.10008418828
3.9547737998
9.74927184981
22.4054217101
42.0162983689
64.7540262654
84.859801961
96.500197237
96.5624793327
95.754508075
2.9833586596
3.04077304975
3.05463870023
2.98353782181
2.81011453582
2.54874014148
2.24153619959
1.94735264653
1.74444665208
1.80026626434
2.64838232881
5.84093775555
14.2270471243
29.9974615543
51.9376975003
75.6927680569
95.5993277362
106.040678123
104.25287746
102.114092633
2.67418743405
2.71331103256
2.7124492379
2.63891366971
2.4816844789
2.25704463727
2.00510371248
1.78627683963
1.70865857364
2.07301616247
3.80866771486
9.06182136312
20.6264228196
39.4721072112
63.323379123
87.6153806819
106.850467677
115.649317773
111.563524905
107.224469768
2.40076490954
2.42425155486
2.41216236184
2.33965697482
2.20100767433
2.01400187689
1.81919200015
1.69036140016
1.80865665953
2.73341526009
5.94311039097
13.969089604
28.891386073
50.3724782091
75.4702306676
99.6307238991
117.616254412
124.347220179
117.511910433
109.593011594
2.22104549278
2.23056940141
2.20892123077
2.13830272332
2.01738393718
1.86557135119
1.72778972746
1.70931026217
2.12928381484
3.94710857477
9.20255525569
20.2979588844
38.1782937131
61.4682834014
86.9216362159
110.157839782
126.311844606
130.631068418
120.740321752
107.967191655
2.60924090568
2.59814392699
2.55669022117
2.47423676126
2.35385396921
2.21738566006
2.11663306471
2.20132674293
2.98521696375
5.92548799478
13.435800342
27.2536869264
47.1402771949
71.0408644923
95.661923694
116.907382293
130.46541681
132.111185838
119.585847867
102.225089917
6.22068450367
6.16767652513
6.07505988383
5.93966571899
5.77006836316
5.5944517874
5.47513555959
5.60949525514
6.69747551187
10.6426473222
19.986412895
35.4807319534
55.7776873215
78.5045023123
100.622709033
118.607624665
128.964621797
128.819617
116.564680594
99.9820079891
2.88452353931
3.74883208206
3.31045493377
4.21059125197
4.00650955728
4.80853102801
5.241912949
5.68462106475
7.57482367941
6.95067718421
12.9006974427
10.7292578704
21.0063233951
65.9419464318
29.5538236333
84.3956032742
38.3308595501
102.239385126
46.5449051349
120.520658068
53.5066393493
138.974763444
59.4069376818
157.056214664
64.6582187386
175.260635972
69.9164422596
194.890535312
75.804912551
216.655164633
82.6863018349
240.896205948
90.7183984832
267.892032974
99.9485865918
297.759405056
110.376861801
330.580807213
121.98761496
366.309100883
134.69779553
404.764508152
148.430039052
445.628319113
163.028107447
488.318839466
178.254609989
531.878935032
193.534535721
574.796515294
208.219688354
614.667804718
220.980620498
648.498412858
228.726571784
672.123777183
228.491784965
681.592732639
218.248073343
675.697547776
200.198894896
658.588256945
184.016129998
625.212599406
)
;

boundaryField
{
    inletfuel
    {
        type            turbulentMixingLengthDissipationRateInlet;
        mixingLength    0.005;
        phi             phi;
        k               k;
        value           nonuniform 0();
    }
    inletair
    {
        type            turbulentMixingLengthDissipationRateInlet;
        mixingLength    0.005;
        phi             phi;
        k               k;
        value           nonuniform 0();
    }
    outlet
    {
        type            inletOutlet;
        inletValue      uniform 200;
        value           nonuniform List<scalar> 
26
(
6.261687225
6.25761609282
6.2485398075
6.23954799388
6.22068450367
6.16767652513
6.07505988383
5.93966571899
5.77006836316
5.5944517874
5.47513555959
5.60949525514
6.69747551187
10.6426473222
19.986412895
35.4807319534
55.7776873215
200
200
200
200
200
200
200
200
200
)
;
    }
    axis
    {
        type            empty;
    }
    leftside
    {
        type            epsilonWallFunction;
        value           nonuniform List<scalar> 
32
(
3.74883208206
4.21059125197
4.80853102801
5.68462106475
6.95067718421
10.7292578704
65.9419464318
84.3956032742
102.239385126
120.520658068
138.974763444
157.056214664
175.260635972
194.890535312
216.655164633
240.896205948
267.892032974
297.759405056
330.580807213
366.309100883
404.764508152
445.628319113
488.318839466
531.878935032
574.796515294
614.667804718
648.498412858
672.123777183
681.592732639
675.697547776
658.588256945
625.212599406
)
;
    }
    burnerwall
    {
        type            epsilonWallFunction;
        value           nonuniform 0();
    }
    front
    {
        type            wedge;
    }
    back
    {
        type            wedge;
    }
    procBoundary1to0
    {
        type            processor;
        value           nonuniform List<scalar> 
27
(
3346.02343209
3328.51603278
3275.38606313
3184.40091084
2.49477255845
1.96463477997
1.55833974256
1.22572235121
0.948190049837
0.785942141508
1.06131574048
2948.67689993
2449.68089167
1930.19583655
1400.96510083
920.638118314
538.969205541
247.404673261
98.049026242
47.7851702168
25.0104710895
11.911347808
6.43392670283
4.83747534498
4.83747534498
2.61754160601
3.37657619941
)
;
    }
}


// ************************************************************************* //
