/*--------------------------------*- C++ -*----------------------------------*\
  =========                 |
  \\      /  F ield         | OpenFOAM: The Open Source CFD Toolbox
   \\    /   O peration     | Website:  https://openfoam.org
    \\  /    A nd           | Version:  7
     \\/     M anipulation  |
\*---------------------------------------------------------------------------*/
FoamFile
{
    version     2.0;
    format      ascii;
    class       volScalarField;
    location    "0.06";
    object      H2;
}
// * * * * * * * * * * * * * * * * * * * * * * * * * * * * * * * * * * * * * //

dimensions      [0 0 0 0 0 0 0];

internalField   nonuniform List<scalar> 
815
(
0.076653349077
0.0753246703572
0.0725016362684
0.0580559575944
0.0569122717552
0.054508648851
0.0471130151475
0.0462001985019
0.0442797201765
0.0391288054525
0.0384435193101
0.0369947360569
0.032082130823
0.0316464941779
0.0307137276186
0.0227934445499
0.0225415683744
0.0219939043381
0.00804315079178
0.0079378132492
0.00770010325544
0.00122552598944
0.00121323305624
0.00118851567954
0.000305984104935
0.000303538585183
0.000298608089429
9.37601143963e-05
9.3096374376e-05
9.17161221592e-05
3.27725446445e-05
3.25602839612e-05
3.21183456764e-05
1.35458283557e-05
1.34650417332e-05
1.32989800232e-05
6.34468535948e-06
6.30916021603e-06
6.23755639544e-06
3.15630395267e-06
3.1401934183e-06
3.10820130201e-06
1.60786592843e-06
1.60043965645e-06
1.58587762935e-06
8.22524947897e-07
8.19156694083e-07
8.12596776277e-07
4.18291572158e-07
4.16790590356e-07
4.13888811653e-07
2.10340234934e-07
2.09644312295e-07
2.08339920909e-07
1.04069886433e-07
1.03747775672e-07
1.03165046239e-07
5.05290101272e-08
5.03812675848e-08
5.01250628632e-08
2.40766543144e-08
2.40081879092e-08
2.38963696853e-08
1.12839120081e-08
1.12551402841e-08
1.12100200047e-08
5.26508979934e-09
5.2537681202e-09
5.23705268763e-09
2.52435666053e-09
2.51983515873e-09
2.51385872415e-09
1.32729092739e-09
1.32542540326e-09
1.32314633677e-09
8.3918213534e-10
8.38148543457e-10
8.36684156866e-10
6.65982320064e-10
6.65078265466e-10
6.63401619808e-10
6.24331210879e-10
6.23258988651e-10
6.20997066906e-10
6.19899245506e-10
6.18575358534e-10
6.15699778049e-10
5.58355356039e-10
5.56960373854e-10
5.54010647967e-10
3.6302270164e-10
3.61955476586e-10
3.59927318809e-10
0.0687382624878
0.0513182411982
0.0417266914423
0.0350595585489
0.0294574107963
0.0212465471477
0.00737516405698
0.00115536512178
0.000291725540397
8.97522023459e-05
3.15075366029e-05
1.30754429252e-05
6.14295871124e-06
3.06617639009e-06
1.56682609603e-06
8.04024246066e-07
4.10099953263e-07
2.06655985408e-07
1.02424946386e-07
4.98063591396e-08
2.37613741017e-08
1.11569621131e-08
5.21805735625e-09
2.50747565492e-09
1.32084811831e-09
8.35059646084e-10
6.61254471233e-10
6.1792408176e-10
6.11725942237e-10
5.49928238282e-10
3.57135552453e-10
2.00833123037e-06
1.59256393255e-06
1.21950450299e-06
8.58622362299e-07
5.39331505762e-07
2.99042409866e-07
1.21544892631e-07
0.0609232767125
0.0472804106419
0.0322192438431
0.0179645017738
0.0070057083187
0.00221940713562
0.000750840865663
0.00026528499814
9.28566620309e-05
3.279622387e-05
1.2579142795e-05
6.68823181992e-06
4.95186966732e-06
4.08589873287e-06
3.29855202076e-06
2.49811047199e-06
1.72675679871e-06
1.05356442075e-06
5.45401318202e-07
2.13035600015e-07
0.0448978021251
0.0337124552419
0.0217056125876
0.0110023854342
0.00386699656913
0.00130338028264
0.000450348619934
0.000161001150506
6.248497845e-05
2.88599547551e-05
1.73245976602e-05
1.30597263153e-05
1.08009650283e-05
8.91720297458e-06
6.98694111487e-06
5.10353548922e-06
3.3924720502e-06
1.97292917787e-06
9.54575792887e-07
3.36568459452e-07
0.0365777535693
0.0275454609773
0.0177895880188
0.00907856521135
0.00326956082872
0.00114696710339
0.000422900953027
0.000177249466124
9.07973757455e-05
5.66855597651e-05
4.03583172169e-05
3.10073429281e-05
2.40027518778e-05
1.821985875e-05
1.32799419315e-05
9.13596046683e-06
5.78569096726e-06
3.21711720713e-06
1.44922678686e-06
4.5254848516e-07
0.0310818409464
0.0239590950497
0.0160959966686
0.00883051933969
0.00349690921613
0.00139528055972
0.000610406785183
0.00031617139405
0.00019536061213
0.000129796646696
8.83501213459e-05
6.02422293325e-05
4.10256756927e-05
2.79156842512e-05
1.88572143291e-05
1.24168918844e-05
7.64229893234e-06
4.10781422717e-06
1.75083119786e-06
4.85834428153e-07
0.0267605778824
0.021692590815
0.0157725428276
0.00990197875933
0.00500945139276
0.0022050085749
0.00106977557831
0.000586571907654
0.000349554651256
0.000214048428117
0.00013103150439
8.02039885348e-05
4.92272453718e-05
3.04595505881e-05
1.91544807462e-05
1.21054431798e-05
7.3875605231e-06
3.99679712574e-06
1.66184209091e-06
4.1340489071e-07
0.0196069942404
0.0164665774942
0.0126003572735
0.00849901508448
0.00478588997354
0.00247164775715
0.00132816690268
0.000733269073863
0.000404944849414
0.000221657306147
0.000119779171682
6.47831393102e-05
3.62593839299e-05
2.15643384856e-05
1.34640864509e-05
8.58612766615e-06
5.36326750252e-06
3.00194400859e-06
1.26198585688e-06
2.89019757316e-07
0.00666421651843
0.00543388486981
0.00418761397218
0.00294062856513
0.00186289463831
0.00110095454858
0.000633036932807
0.000351920635371
0.000189805199056
0.000101357181712
5.56017785914e-05
3.20903310432e-05
1.94955917277e-05
1.22782806831e-05
7.91800251696e-06
5.14081469603e-06
3.2845237234e-06
1.90045909298e-06
8.20818066283e-07
1.85992613874e-07
0.00108184085444
0.000942699184604
0.0007663501759
0.000577327664054
0.000403267049984
0.000262438131016
0.000163744582813
9.99233200036e-05
6.08886422149e-05
3.76072303095e-05
2.37255615085e-05
1.52610012031e-05
9.9263651553e-06
6.50802872679e-06
4.3007233654e-06
2.84802752685e-06
1.85504409524e-06
1.10192175252e-06
4.91715611863e-07
1.11725256985e-07
0.000276364307256
0.000243957727524
0.00020214007231
0.00015682626559
0.000114668817409
8.00763310924e-05
5.44921307815e-05
3.66746943555e-05
2.47178685656e-05
1.67191681855e-05
1.13204962861e-05
7.63916878848e-06
5.13317076679e-06
3.437970416e-06
2.30795969995e-06
1.54564242319e-06
1.01599907105e-06
6.10134719491e-07
2.76330597586e-07
6.3366414355e-08
8.55158223336e-05
7.65885805452e-05
6.50866888836e-05
5.24448605216e-05
4.03233889349e-05
2.99520286755e-05
2.18072164885e-05
1.57124039556e-05
1.12586675777e-05
8.01358773229e-06
5.64157500013e-06
3.92326133639e-06
2.69688184872e-06
1.83725006408e-06
1.2476926491e-06
8.4055224348e-07
5.52074351169e-07
3.29861090317e-07
1.48695049024e-07
3.41687311632e-08
3.02080867516e-05
2.75365661401e-05
2.41010989517e-05
2.02521677303e-05
1.64069744931e-05
1.29053268654e-05
9.93108128207e-06
7.51485406513e-06
5.6029366884e-06
4.11226963882e-06
2.96560448783e-06
2.10214664966e-06
1.4674580182e-06
1.01159971961e-06
6.90868673619e-07
4.6457782545e-07
3.01044680421e-07
1.75822942396e-07
7.74072121641e-08
1.76508039113e-08
1.26038340479e-05
1.1660286346e-05
1.04477149133e-05
9.06420147816e-06
7.62866474257e-06
6.24658138374e-06
4.98944708101e-06
3.89555556734e-06
2.97737610902e-06
2.22827546879e-06
1.63257155713e-06
1.17242344327e-06
8.27189455054e-07
5.74258463473e-07
3.92093313944e-07
2.60877740596e-07
1.6488014248e-07
9.26980112635e-08
3.92590825138e-08
8.82913935309e-09
5.94445156053e-06
5.55660529745e-06
5.05961445188e-06
4.48594152251e-06
3.87341586399e-06
3.25822771261e-06
2.6701387537e-06
2.13196970223e-06
1.65937295248e-06
1.25998946491e-06
9.34324880167e-07
6.77822946937e-07
4.81887835291e-07
3.35464132677e-07
2.27605525628e-07
1.48546949322e-07
9.06412817053e-08
4.84646767641e-08
1.95403471084e-08
4.33198442557e-09
2.97778607674e-06
2.80625857412e-06
2.5861926558e-06
2.32991630936e-06
2.05107877891e-06
1.76241089481e-06
1.47543553376e-06
1.20130067335e-06
9.50660080275e-07
7.31839117861e-07
5.49073431359e-07
4.02258891402e-07
2.8778468082e-07
2.00229261931e-07
1.34256481027e-07
8.53393967605e-08
4.98880982875e-08
2.52116940605e-08
9.64110809029e-09
2.1143152867e-09
1.52666476025e-06
1.44893102474e-06
1.34912300801e-06
1.23224278778e-06
1.10323493296e-06
9.66309782839e-07
8.2540417356e-07
6.85273947819e-07
5.51938968419e-07
4.31510852211e-07
3.28179017116e-07
2.43133146512e-07
1.75014531388e-07
1.21376165199e-07
8.00284822168e-08
4.92492073811e-08
2.74566890458e-08
1.31018554185e-08
4.77043272191e-09
1.04012953401e-09
7.85872123488e-07
7.50685951003e-07
7.0551412039e-07
6.52486323691e-07
5.93362549283e-07
5.29291337261e-07
4.61223564674e-07
3.90814373007e-07
3.21028012942e-07
2.55642527898e-07
1.97731942433e-07
1.48533220774e-07
1.07650616631e-07
7.42416090097e-08
4.79231547395e-08
2.8436035559e-08
1.51073319751e-08
6.84278713583e-09
2.39340919007e-09
5.22250545115e-10
4.0202958784e-07
3.86317286334e-07
3.66189572991e-07
3.4261083012e-07
3.16187567034e-07
2.87078363306e-07
2.55230545837e-07
2.20989097551e-07
1.85599849421e-07
1.5110088284e-07
1.19370968129e-07
9.12444689152e-08
6.66606531807e-08
4.56170836896e-08
2.87201116165e-08
1.64020647719e-08
8.32888181974e-09
3.61046748126e-09
1.22660357028e-09
2.69452120825e-10
2.03085264854e-07
1.96198815525e-07
1.87452715378e-07
1.77298189908e-07
1.65938618454e-07
1.53289836093e-07
1.39081533742e-07
1.23217842489e-07
1.06105909603e-07
8.86906066752e-08
7.19238170822e-08
5.61780300731e-08
4.14201424037e-08
2.80577732986e-08
1.71782425939e-08
9.44808452838e-09
4.61186715676e-09
1.93206330038e-09
6.4494626572e-10
1.43161597643e-10
1.00869554739e-07
9.79311253836e-08
9.42636695098e-08
9.00863781508e-08
8.5472118629e-08
8.03265523905e-08
7.44201543344e-08
6.75788543143e-08
5.98643013133e-08
5.16259237317e-08
4.32129261217e-08
3.46327074766e-08
2.57762752459e-08
1.72297029028e-08
1.02378548383e-08
5.43783977949e-09
2.57009541447e-09
1.05062746143e-09
3.47877604761e-10
7.81924445968e-11
4.91455040058e-08
4.79372029065e-08
4.64749151308e-08
4.48697617478e-08
4.31562159121e-08
4.12791206043e-08
3.90989589735e-08
3.64815619644e-08
3.33800224914e-08
2.98600323391e-08
2.59341821169e-08
2.13833515656e-08
1.6033957015e-08
1.0533754098e-08
6.07269057753e-09
3.12978138369e-09
1.44332471764e-09
5.8069636057e-10
1.91928828493e-10
4.37047174292e-11
2.34879483901e-08
2.30156461568e-08
2.24756319981e-08
2.19267671655e-08
2.13923515549e-08
2.08516257082e-08
2.02371571921e-08
1.9471190346e-08
1.84920941324e-08
1.72503123035e-08
1.56016907247e-08
1.3225470777e-08
9.93940861444e-09
6.39104285044e-09
3.58061290279e-09
1.80120552941e-09
8.16447872404e-10
3.25447743694e-10
1.07733948397e-10
2.4821389504e-11
1.10512959511e-08
1.08815801705e-08
1.07081975303e-08
1.05649444706e-08
1.04706550281e-08
1.04245519252e-08
1.04025450714e-08
1.03680846333e-08
1.02715683516e-08
1.00282205387e-08
9.44265918943e-09
8.18214363338e-09
6.11119644888e-09
3.83369652993e-09
2.09554752722e-09
1.03583634895e-09
4.6419942943e-10
1.84208597603e-10
6.11622647082e-11
1.42263940031e-11
5.18101441413e-09
5.12855824379e-09
5.08962880433e-09
5.08512731651e-09
5.13044942103e-09
5.23338678864e-09
5.39087993478e-09
5.58906355967e-09
5.79199379783e-09
5.91294897083e-09
5.75919675102e-09
5.04099242204e-09
3.70320796144e-09
2.26435274761e-09
1.2148247515e-09
5.93647172914e-10
2.64313518335e-10
1.04707508265e-10
3.48576601785e-11
8.15493437832e-12
2.4957385109e-09
2.48388956207e-09
2.48684095396e-09
2.51801741609e-09
2.58959479459e-09
2.71104226078e-09
2.88689931956e-09
3.11272067066e-09
3.36174728428e-09
3.55698813489e-09
3.53214873162e-09
3.06987346727e-09
2.19690428003e-09
1.31276125853e-09
6.95760249799e-10
3.37833708696e-10
1.50028940716e-10
5.94098687765e-11
1.98043381248e-11
4.64229918358e-12
1.316952177e-09
1.31565440251e-09
1.32572703034e-09
1.35613960196e-09
1.41596382253e-09
1.513150499e-09
1.65295749462e-09
1.83320539469e-09
2.03236156929e-09
2.18617574861e-09
2.16403091561e-09
1.83159911736e-09
1.2696581784e-09
7.44874005682e-10
3.92248358547e-10
1.90107487039e-10
8.43844223026e-11
3.33962710051e-11
1.11167166191e-11
2.59491352796e-12
8.3215342074e-10
8.30264346021e-10
8.3549373016e-10
8.54034239758e-10
8.92154857106e-10
9.55255545156e-10
1.04660315173e-09
1.16339813702e-09
1.28731945086e-09
1.36723820834e-09
1.31189510726e-09
1.06328201915e-09
7.13088667144e-10
4.13011097884e-10
2.17135503583e-10
1.05352864878e-10
4.67756708372e-11
1.84763551973e-11
6.11928456234e-12
1.41447838496e-12
6.56941482861e-10
6.50675773001e-10
6.47532326667e-10
6.51829038314e-10
6.6756287498e-10
6.9763183042e-10
7.42929561389e-10
7.99546508081e-10
8.51945892965e-10
8.62571374984e-10
7.80244469451e-10
5.99130248942e-10
3.89617961888e-10
2.23946198338e-10
1.17870560554e-10
5.72975873764e-11
2.54248555844e-11
9.99662670127e-12
3.2792485829e-12
7.45770873131e-13
6.11433288792e-10
5.99754998676e-10
5.87626759467e-10
5.78035372103e-10
5.73289389985e-10
5.74387859109e-10
5.80499461057e-10
5.87224320209e-10
5.82390434778e-10
5.43461941603e-10
4.53905208739e-10
3.28785304388e-10
2.08294021026e-10
1.19111378005e-10
6.27831517945e-11
3.05427771463e-11
1.35137704096e-11
5.26820942706e-12
1.69804624623e-12
3.73604146312e-13
6.03177972593e-10
5.86628160737e-10
5.66619110271e-10
5.45126084288e-10
5.23316914672e-10
5.01098340989e-10
4.76944033011e-10
4.47021620777e-10
4.03741729425e-10
3.39889281577e-10
2.59534777e-10
1.77637003623e-10
1.0986152655e-10
6.24146579457e-11
3.28439227124e-11
1.59220023238e-11
6.98028389368e-12
2.67070339277e-12
8.31280058242e-13
1.71457116747e-13
5.41082644978e-10
5.23497210055e-10
5.00881417748e-10
4.74233836779e-10
4.44007910627e-10
4.09874015477e-10
3.70883393089e-10
3.25169129588e-10
2.69976395185e-10
2.0687418138e-10
1.45706466808e-10
9.47783053857e-11
5.71708953767e-11
3.20940964747e-11
1.67352548011e-11
8.00893707276e-12
3.43564762984e-12
1.26611415625e-12
3.6957941805e-13
6.80584866719e-14
3.51041402796e-10
3.38783914092e-10
3.22399155576e-10
3.02138918551e-10
2.78197876309e-10
2.50599189304e-10
2.19597668517e-10
1.85727733307e-10
1.4957598146e-10
1.11558007801e-10
7.60031317935e-11
4.80743400421e-11
2.84753000021e-11
1.57653244607e-11
8.09433969663e-12
3.786882431e-12
1.56719433697e-12
5.45106346637e-13
1.44782266209e-13
2.27922023877e-14
4.63755097046e-08
2.44188120253e-08
8.10532154267e-08
4.16612884535e-08
1.22994643547e-07
5.99483232161e-08
1.49975430253e-07
6.87536073744e-08
1.35291769886e-07
5.7827095315e-08
8.19984440619e-08
2.64238754956e-08
4.44378102504e-08
7.8202323603e-09
2.38617218366e-08
2.9948897846e-09
1.31670024172e-08
1.34691727176e-09
7.47310090868e-09
6.90987570575e-10
4.18271286977e-09
3.69926919035e-10
2.24212748092e-09
1.93544628622e-10
1.15068798721e-09
9.73203350173e-11
5.7381559465e-10
4.77080672348e-11
2.83549165847e-10
2.32861846872e-11
1.41509677566e-10
1.15291003785e-11
7.22042650405e-11
5.86018644405e-12
3.79029719154e-11
3.07540557753e-12
2.04889615407e-11
1.66509083184e-12
1.13700907908e-11
9.26263799109e-13
6.44172962278e-12
5.25728685996e-13
3.69446461344e-12
3.01792461373e-13
2.13145592151e-12
1.74021564796e-13
1.22266603948e-12
9.96084052216e-14
6.94179597413e-13
5.63095170707e-14
3.84083424176e-13
3.09632492449e-14
2.06498468064e-13
1.65125596323e-14
1.06241278468e-13
8.36956660428e-15
5.0614872031e-14
3.87176773061e-15
2.11854537631e-14
1.54757712236e-15
7.3346893193e-15
5.11610218779e-16
2.16399399743e-15
1.50633660375e-16
)
;

boundaryField
{
    inletfuel
    {
        type            fixedValue;
        value           nonuniform 0();
    }
    inletair
    {
        type            fixedValue;
        value           nonuniform 0();
    }
    outlet
    {
        type            zeroGradient;
    }
    axis
    {
        type            empty;
    }
    leftside
    {
        type            zeroGradient;
    }
    burnerwall
    {
        type            zeroGradient;
    }
    front
    {
        type            wedge;
    }
    back
    {
        type            wedge;
    }
    procBoundary1to0
    {
        type            processor;
        value           nonuniform List<scalar> 
27
(
0.110488977307
0.108942051138
0.105605545691
0.101104258837
1.19174518486e-06
8.4392967627e-07
6.32732899133e-07
4.45118524463e-07
2.86305619105e-07
1.62859291158e-07
6.45333391174e-08
0.0913898139871
0.0736869800245
0.0543558441988
0.0350192085533
0.017732589086
0.00560105840194
0.00171821324945
0.000607723766851
0.000205055812087
6.39117738801e-05
1.81779110567e-05
5.75516179631e-06
2.79434081595e-06
2.79434081595e-06
2.42799231272e-08
1.29336433965e-08
)
;
    }
}


// ************************************************************************* //
