/*--------------------------------*- C++ -*----------------------------------*\
  =========                 |
  \\      /  F ield         | OpenFOAM: The Open Source CFD Toolbox
   \\    /   O peration     | Website:  https://openfoam.org
    \\  /    A nd           | Version:  7
     \\/     M anipulation  |
\*---------------------------------------------------------------------------*/
FoamFile
{
    version     2.0;
    format      ascii;
    class       volScalarField;
    location    "0.06";
    object      H2O;
}
// * * * * * * * * * * * * * * * * * * * * * * * * * * * * * * * * * * * * * //

dimensions      [0 0 0 0 0 0 0];

internalField   nonuniform List<scalar> 
815
(
0.232211935418
0.232395716767
0.232765501382
0.235949061639
0.236029727115
0.236171007777
0.23831420067
0.238348013703
0.238396164405
0.240252622207
0.24027294768
0.240301267477
0.241808579303
0.241820955761
0.241841493284
0.240318713194
0.240297880083
0.240247164781
0.213397279648
0.213129347216
0.212523280417
0.0941745466726
0.093929881054
0.0934761868886
0.0475028930572
0.0474534047178
0.0473703760053
0.0322746941565
0.0322635698325
0.0322462061188
0.0262514958408
0.0262480629799
0.0262433190004
0.0232622435332
0.0232601470395
0.0232572014844
0.0214657044099
0.0214628119564
0.0214578817762
0.0202068478319
0.0202030450251
0.0201958960434
0.0192246023929
0.0192198212204
0.0192103446558
0.0183923607483
0.0183867368178
0.0183752242609
0.0176431965588
0.0176368455119
0.0176236043829
0.0169411937909
0.0169340409108
0.0169190933687
0.0162649076009
0.0162570513026
0.0162406154721
0.0156039442226
0.0155954841135
0.0155777868547
0.0149548982534
0.0149458886476
0.0149271018035
0.0143163887152
0.0143070961696
0.014287640771
0.0136909894676
0.0136815606699
0.0136617529205
0.0130827881519
0.013073272699
0.0130533163854
0.0124954322767
0.0124859792176
0.0124661777245
0.011934073006
0.0119247809312
0.0119053627215
0.0114028755984
0.011393946807
0.0113752908396
0.0109066796752
0.0108983482749
0.010880893015
0.0104523988979
0.0104448670069
0.0104289674819
0.0100531557258
0.0100462601825
0.010031797351
0.00971467270114
0.00970854941869
0.00969571808563
0.23320459619
0.236289093457
0.238403088208
0.240304149363
0.24185337201
0.240165723151
0.211634453261
0.0928729072915
0.0472521480613
0.0322215694199
0.0262380485051
0.0232543864923
0.0214521547058
0.0201867362912
0.0191977166833
0.0183595752818
0.0176054124937
0.016898516396
0.0162179746059
0.0155534027398
0.0149012336744
0.0142607931131
0.0136343504865
0.0130256840077
0.0124387452671
0.0118784840415
0.0113494672105
0.0108566864535
0.0104068504171
0.0100116703339
0.00967783582428
0.024184715131
0.0231394177549
0.0210873974932
0.0180039966015
0.0141072402143
0.0102692213619
0.00805070242777
0.233967689072
0.234243038338
0.231900223201
0.223462954639
0.202109415094
0.154585058449
0.109452184086
0.0787896379324
0.0608226317481
0.0498406975279
0.042846703437
0.0395528379478
0.0388309898576
0.0386938875431
0.0373465659661
0.0342186109293
0.0293662437101
0.0230645683976
0.0161016013002
0.010990448281
0.236340225519
0.235167127465
0.230633370376
0.218714162475
0.191286111428
0.14698884013
0.109706373566
0.0849221016709
0.0710364569993
0.0636945534649
0.0601575924411
0.0593886755755
0.0598405854319
0.059537570944
0.0571416959078
0.0523063728695
0.0449933391501
0.0353778591143
0.0242179351164
0.0146379378613
0.238264427115
0.236976527078
0.232838254401
0.222444470342
0.198551317333
0.160061078897
0.126790249068
0.104871856778
0.0933537196447
0.088247510305
0.0865900674757
0.0862557809589
0.0852344759292
0.0824567619347
0.0775172498754
0.0704382618717
0.0609757990146
0.0485638687051
0.032959991846
0.0182548608452
0.240216218324
0.239405192082
0.236834071917
0.230479227089
0.215837060709
0.185532719413
0.156766199205
0.136930209945
0.125935052929
0.11916915686
0.113578542748
0.10737608662
0.100203088252
0.0926125912876
0.0852581645746
0.0780889839613
0.0696760356277
0.0572822394029
0.0390174187114
0.0205807604464
0.24183698545
0.24148924841
0.240261436322
0.237085698613
0.229536969772
0.211237924771
0.187196068482
0.165957338678
0.147955728326
0.131570308717
0.116509436551
0.103158761587
0.0918588699999
0.0828831624479
0.0765927990635
0.0722990817297
0.0676783690528
0.0583535829719
0.0402718826798
0.0211524354213
0.23995200554
0.239273745926
0.237743814618
0.234455991192
0.227163368516
0.208788515627
0.182721558521
0.155124202827
0.129232061343
0.107690780357
0.0906220047013
0.0780727335931
0.0696389906956
0.0646340254841
0.0620734179826
0.060932245278
0.059207037724
0.052741904302
0.03709955556
0.0206885838483
0.209473567715
0.203764725043
0.192465293714
0.176600574317
0.156513371133
0.133763525862
0.112856726493
0.094225408844
0.0791405006819
0.0679543318015
0.0602514644433
0.0552815158551
0.05230538277
0.0507680831175
0.0502843117422
0.0502149838041
0.0491331891364
0.0440464308373
0.032068038606
0.0203455908873
0.0914893609405
0.0884224035935
0.0839169020345
0.0781938152184
0.0715825964443
0.0645074225611
0.0582469322109
0.0530311444076
0.0489497734782
0.0459231401421
0.0438344938331
0.0425161654497
0.0418101314754
0.0415791020025
0.0415832895218
0.0413378069357
0.0399685231591
0.0358802289399
0.0277672817944
0.0203352800321
0.046963170116
0.0461664095726
0.0449821417329
0.0434831441962
0.0418244672045
0.0401624695391
0.0386561736554
0.0373803971567
0.0364008346499
0.0357160570415
0.0353111811205
0.0351348861447
0.0351235022214
0.0351610911345
0.0350548443268
0.0344907069719
0.0330115490309
0.0299117665443
0.024825176068
0.0207265339979
0.0321617668773
0.0319951334356
0.0317386162968
0.0314017201612
0.0310236314369
0.0306552562142
0.0303426433509
0.0301212037518
0.0300171292873
0.0300310038583
0.030137705796
0.0302916572574
0.0304208772663
0.0304244640547
0.0301683086075
0.0294878281661
0.0281980448946
0.0260762415616
0.0232020767971
0.0214483688929
0.0262268517119
0.0261981755043
0.026152745471
0.0260923095798
0.0260295598707
0.0259837372818
0.0259778363795
0.026032958547
0.0261591333962
0.0263476735012
0.0265690932531
0.0267713345374
0.0268853742863
0.0268349571143
0.0265459759583
0.0259608839626
0.0250467988897
0.023820048733
0.0225339683541
0.0223441274512
0.0232494162126
0.0232405087193
0.0232275374463
0.0232114516078
0.0231991242236
0.0232028032617
0.0232382808482
0.02332140652
0.0234602162557
0.0236454551109
0.0238469918818
0.024016749943
0.0240997770388
0.0240485933321
0.0238387865058
0.0234804151712
0.0230241016583
0.0225855529855
0.0224400382324
0.0232542054528
0.021440914701
0.0214203610617
0.0213924804023
0.0213577890217
0.0213203974516
0.021289521506
0.0212793135941
0.0213056135686
0.021378595383
0.0214941826905
0.0216302492693
0.0217512452995
0.0218214669181
0.0218215300402
0.0217637578671
0.0216981093549
0.021713924036
0.0219510613544
0.0226304192326
0.0240831925284
0.0201674939644
0.0201288404003
0.020074776812
0.0200050787624
0.0199224512328
0.019833987207
0.0197521305039
0.0196931962715
0.0196718123438
0.0196930050555
0.0197480256136
0.0198191641978
0.0198932085257
0.0199776729832
0.0201118032348
0.0203657724821
0.0208363343528
0.0216455330814
0.0229310553408
0.0248089839242
0.0191704941766
0.0191138007668
0.0190332615762
0.0189276416482
0.0187980079169
0.0186492930884
0.0184920366061
0.0183427260927
0.0182204683411
0.0181404332866
0.0181095675456
0.018130995957
0.018217025669
0.0184025887967
0.0187481791153
0.0193288524922
0.0202251372909
0.0215178938499
0.0232639549147
0.0254549907718
0.0183253536235
0.0182526940532
0.0181485076857
0.0180105230061
0.0178382796678
0.0176346720305
0.01740818428
0.0171748116608
0.0169570190448
0.0167791521716
0.0166637480853
0.0166360265531
0.0167370319162
0.017032553268
0.0176008558938
0.0185069984802
0.0197969637969
0.0215003198888
0.0236115737674
0.0260583124702
0.0175652855958
0.0174790639634
0.0173547360761
0.0171892121487
0.0169808098867
0.0167307483511
0.0164455953654
0.0161403769542
0.0158395338522
0.0155746018639
0.0153819192278
0.0153086072837
0.0154276729913
0.0158402102026
0.0166395284219
0.0178657393419
0.0195166042925
0.0215729294623
0.023986882884
0.0266555653341
0.0168530756531
0.0167553170917
0.0166141396309
0.0164258550322
0.0161879627871
0.0159005570105
0.0155687447068
0.0152065160922
0.0148392078089
0.0145033086392
0.0142468089846
0.0141376497909
0.0142826948143
0.0148232531837
0.0158627487504
0.0174000740623
0.0193784388559
0.0217400805336
0.0244109774002
0.0272753835135
0.0161679741674
0.016060530595
0.0159054837806
0.0156988534576
0.0154377888879
0.0151218796316
0.0147554166566
0.0143515753529
0.0139361314109
0.0135492600932
0.0132480466742
0.0131195044052
0.0133062875162
0.0139933474875
0.0152833414943
0.0171179688754
0.0193894061176
0.0220137358446
0.0249033759736
0.0279376451091
0.0154995850904
0.0153841615844
0.015217968276
0.0149970417454
0.0147186318385
0.0143823748071
0.0139925086398
0.0135621617657
0.0131176015857
0.0127016114308
0.0123785023827
0.0122535312418
0.0125080802707
0.0133692230659
0.0149183527865
0.0170296931659
0.0195578991255
0.0224051609665
0.0254779232912
0.0286545686835
0.0148442321012
0.0147224252556
0.014547647681
0.0143162043214
0.0140258633439
0.0136769219828
0.0132743284195
0.0128318722298
0.012376584257
0.0119533032089
0.0116329693855
0.0115406370506
0.0119003224662
0.0129700662849
0.0147815628601
0.0171430959997
0.019888977191
0.0229212948617
0.0261429700914
0.0294332275098
0.0142015916066
0.0140751748729
0.0138944390651
0.0136562802912
0.0133593690655
0.0130051639921
0.0125999284022
0.0121587056956
0.0117096265519
0.0112997728744
0.0110080180427
0.0109839191149
0.0114976802729
0.0128122637547
0.0148795007079
0.0174572551672
0.0203829117538
0.0235631513608
0.0268994847117
0.0302734585742
0.0135738775168
0.0134447429055
0.0132608288336
0.0130198873705
0.0127217671978
0.012369475864
0.0119710189752
0.0115430757078
0.0111154692097
0.0107386159417
0.010503037859
0.0105917876617
0.011318867136
0.0129074104408
0.0152095639996
0.0179666964872
0.0210354118763
0.0243272369327
0.0277445792275
0.0311729899061
0.0129647554219
0.0128348507477
0.0126506925408
0.0124109802622
0.0121169888814
0.0117734559705
0.011390426874
0.0109866209292
0.0105943428501
0.0102699251158
0.0101232047606
0.0103827028089
0.0113860039862
0.0132560806848
0.0157599870434
0.018659957923
0.0218344361126
0.0252014117761
0.0286658060159
0.0321201737095
0.0123783237439
0.0122497478476
0.0120684001234
0.0118339960774
0.011549366429
0.01122106754
0.0108614081246
0.0104915734596
0.0101479966317
0.00989825105734
0.00988441616917
0.0103878216819
0.0117153852625
0.0138475406739
0.0165141692407
0.0195186743934
0.0227612490699
0.0261671426569
0.0296466819146
0.0331049834617
0.0118194122599
0.0116942925911
0.0115188085732
0.0112937629259
0.0110234885388
0.0107164739479
0.0103874319005
0.010060974721
0.00978107939649
0.00963643444398
0.00981843996108
0.0106428077839
0.0123054917343
0.0146564396224
0.0174408219616
0.0205089288254
0.0237807844646
0.0271904375985
0.0306570621747
0.0341018664573
0.0112928084723
0.0111733251086
0.0110067488853
0.0107949662671
0.0105437779927
0.0102636294365
0.00997201593303
0.00969906354349
0.00950292621649
0.00950943207099
0.00996802388329
0.0111620848629
0.0131241613793
0.0156337764714
0.0184880250523
0.0215784821741
0.0248415648033
0.02822196557
0.0316533912088
0.0350832271208
0.0108035690273
0.0106918376159
0.0105370324277
0.0103420563888
0.010114134295
0.00986578178112
0.00961834156183
0.00941140105571
0.00932894920882
0.00955169118378
0.0103572331926
0.0119101116834
0.0140946646314
0.0166959090507
0.0195692324105
0.0226380671939
0.0258540804546
0.0291769462081
0.0325695135171
0.0360253398933
0.0103582162329
0.0102560079924
0.0101153049843
0.00993994382223
0.00973839088824
0.0095253404828
0.00932740836933
0.00919945203141
0.00926564593619
0.00976299013481
0.0109291240534
0.0127634404872
0.0150788132712
0.0177065778768
0.0205504583337
0.0235595106142
0.0267035867265
0.0299654500786
0.0333489622389
0.0369130151129
0.0099674862442
0.00987519898332
0.0097492163317
0.00959402162776
0.00941883824604
0.00923984811477
0.00908857997179
0.00903823345114
0.00926437313916
0.0100470727083
0.0115176857507
0.0135312378563
0.0158982479698
0.0185028951912
0.0212856901912
0.0242185298499
0.0272908965733
0.0305152856607
0.033943016275
0.0377232210074
0.00963845878127
0.00955657387268
0.00944543426458
0.00930970730806
0.00915863693023
0.00900820887669
0.00889028346762
0.00888348807487
0.00919423347273
0.010158526533
0.0118404444686
0.0139674215505
0.0163515928456
0.0189214969223
0.0216483764646
0.0245249038004
0.0275586652751
0.0307883335617
0.0343099195131
0.0383753261717
0.0101929227263
0.0112820112912
0.0121007683391
0.0129321230432
0.0142742302732
0.0147468011836
0.0164391567243
0.0165722129481
0.0182023900094
0.0182864501224
0.0194621155102
0.0198799050326
0.0205590523626
0.0213345402708
0.0215465706064
0.0225342147939
0.0224214606417
0.0235136681192
0.0232430238007
0.0243701509364
0.0240726368474
0.0251875958344
0.0249119356749
0.0259909587712
0.0257285762414
0.0267765964575
0.026498903399
0.0275361487571
0.0272220927833
0.0282719269571
0.0279125909224
0.0289958259258
0.0285920581801
0.0297226429144
0.0292808332243
0.0304655627056
0.0299951999519
0.0312350491388
0.030746520065
0.0320379649878
0.0315416240766
0.0328782345787
0.0323843796746
0.0337568275794
0.0332730276925
0.0346722572962
0.0342074486859
0.0356223876326
0.0351793442704
0.0366039105388
0.0361857443424
0.0376137402015
0.0372141431005
0.0386509571522
0.0382633324228
0.0397192100996
0.0393369270514
0.0408122909451
0.0404195338115
0.0418872888808
0.0414384697236
0.0428290002631
0.0422101943811
0.043461305998
)
;

boundaryField
{
    inletfuel
    {
        type            fixedValue;
        value           nonuniform 0();
    }
    inletair
    {
        type            fixedValue;
        value           nonuniform 0();
    }
    outlet
    {
        type            zeroGradient;
    }
    axis
    {
        type            empty;
    }
    leftside
    {
        type            zeroGradient;
    }
    burnerwall
    {
        type            zeroGradient;
    }
    front
    {
        type            wedge;
    }
    back
    {
        type            wedge;
    }
    procBoundary1to0
    {
        type            processor;
        value           nonuniform List<scalar> 
27
(
0.22481108493
0.22513156175
0.225812896928
0.226704273829
0.0151471901869
0.0140999215808
0.0126595539141
0.0106997290691
0.00844045255715
0.0064733868152
0.00589584919697
0.228548542013
0.231310953991
0.23279698504
0.230969600828
0.221557386454
0.194250656547
0.132922095598
0.0895693922661
0.0633395212263
0.0463579307558
0.0344751303488
0.0276839845087
0.0250221547637
0.0250221547637
0.00863213094211
0.00986003939932
)
;
    }
}


// ************************************************************************* //
