/*--------------------------------*- C++ -*----------------------------------*\
  =========                 |
  \\      /  F ield         | OpenFOAM: The Open Source CFD Toolbox
   \\    /   O peration     | Website:  https://openfoam.org
    \\  /    A nd           | Version:  7
     \\/     M anipulation  |
\*---------------------------------------------------------------------------*/
FoamFile
{
    version     2.0;
    format      ascii;
    class       volScalarField;
    location    "0.06";
    object      HE;
}
// * * * * * * * * * * * * * * * * * * * * * * * * * * * * * * * * * * * * * //

dimensions      [0 0 0 0 0 0 0];

internalField   nonuniform List<scalar> 
815
(
0.000123701715367
0.000124784084083
0.000127089046429
0.000144487461502
0.000145484793667
0.000147583947384
0.00015892163087
0.000159761756644
0.000161533830179
0.000170646468574
0.000171310348862
0.00017271670872
0.000180110321433
0.000180538584989
0.000181458157988
0.000185085446315
0.000185313356347
0.000185806199409
0.000176192702244
0.000176279877363
0.000176461145378
0.000156954045921
0.000157089886961
0.000157398322223
0.000148757951132
0.000148960962546
0.000149413118321
0.000144092849108
0.000144319282514
0.000144817281159
0.000139509135231
0.00013971694336
0.000140172084513
0.000134133542513
0.000134311907737
0.000134702676158
0.000127924298358
0.000128068876261
0.000128387893853
0.000120974546343
0.000121087487388
0.000121339403676
0.000113440963804
0.000113524229219
0.000113712828091
0.000105482707993
0.000105539443702
0.000105670436755
9.72730659164e-05
9.73060055803e-05
9.73848278625e-05
8.89961692638e-05
8.9005448275e-05
8.90338593858e-05
8.07977016531e-05
8.07854701774e-05
8.07678150461e-05
7.28079855737e-05
7.27766683403e-05
7.27180251122e-05
6.51343627319e-05
6.50860211403e-05
6.49912976465e-05
5.78348922564e-05
5.77742539061e-05
5.76517230185e-05
5.09601329066e-05
5.0890468187e-05
5.07472063044e-05
4.45406756287e-05
4.44641112807e-05
4.43058162368e-05
3.85806585778e-05
3.85002755727e-05
3.83334492235e-05
3.30872907807e-05
3.30054335266e-05
3.2835360711e-05
2.80538988084e-05
2.79736455089e-05
2.78064905002e-05
2.34813965876e-05
2.34057747831e-05
2.32475437044e-05
1.93937044431e-05
1.93250962871e-05
1.9180299422e-05
1.58754388443e-05
1.58126776523e-05
1.56809525528e-05
1.29435539807e-05
1.28880081511e-05
1.27714738579e-05
0.000130171868171
0.000150381647023
0.000163903132633
0.000174606761371
0.000182701716429
0.000186477795086
0.000176708433528
0.000157833031946
0.000150048104615
0.00014552028354
0.000140811261412
0.00013525016518
0.000128836189386
0.000121694693083
0.000113980340396
0.000105857578
9.74987369155e-05
8.9077987807e-05
8.07480928458e-05
7.26413168987e-05
6.48645461006e-05
5.74853817948e-05
5.05509263877e-05
4.40880240344e-05
3.81033169124e-05
3.26006569911e-05
2.75755915336e-05
2.30284140013e-05
1.89790842425e-05
1.54977927883e-05
1.26092170928e-05
0.000142976679653
0.000137989149284
0.000128143293115
0.000112624844244
9.01227061273e-05
6.15337782078e-05
3.11252550654e-05
0.000136595267367
0.000147894831345
0.000160596100258
0.000173084878912
0.000183649723047
0.000190600447857
0.000192804210738
0.00019137554953
0.00018762420188
0.00018325482904
0.000180363843998
0.000180173340271
0.000181720847767
0.000182668847598
0.000179954117876
0.000171983848157
0.000156832579115
0.000131609745348
9.38369285795e-05
4.8654285338e-05
0.000156042678755
0.000166103942887
0.000177358886204
0.000188307889115
0.000197578427472
0.000204132095091
0.000208064635621
0.000210068196262
0.000210771470873
0.000211180250204
0.000212249990389
0.00021516264626
0.000219414398792
0.000223020007768
0.000223863262274
0.000219924631711
0.00020749812966
0.00018104574689
0.00013443951978
6.96094708368e-05
0.000168719594616
0.000177409660479
0.000187348007351
0.000197326309872
0.00020635921943
0.000213703969999
0.000219633742671
0.000224455464594
0.00022848360654
0.000231936848945
0.000235861306152
0.0002407381844
0.000246464514219
0.000252526774504
0.000257898786099
0.000260285087862
0.000254128322389
0.000230132127947
0.000175521393291
8.89162131651e-05
0.000178523623714
0.000185747698204
0.0001941977845
0.00020292011765
0.000211138796291
0.000218340682535
0.000224734767072
0.000230389479116
0.000234589931729
0.000237987518219
0.000241455485242
0.000245777730066
0.000251596027302
0.000259431689094
0.000269274648625
0.000279351775126
0.000283105801241
0.000265420823224
0.000204615019423
9.90916978539e-05
0.000185387543627
0.000190548297133
0.000196830822592
0.000203538171748
0.000210002560128
0.000215687277547
0.000220199076804
0.000223168766025
0.000224632575502
0.000225639348051
0.000227746967851
0.000231953721212
0.000238933758281
0.000249091648014
0.000262571195588
0.000277897700929
0.000288567929671
0.000276766148102
0.000211854911449
9.69180624939e-05
0.000187946748889
0.000190724667735
0.000194084819384
0.000197552287284
0.000200618183156
0.000202778575102
0.000203824961753
0.000204105072332
0.000204701643554
0.000206998772736
0.000211403006765
0.000218185942608
0.000227130127783
0.000238075266809
0.000250827858604
0.000264255054651
0.000272972922647
0.000260191464631
0.00019440220787
8.52568278471e-05
0.000177251635893
0.000178173673517
0.000179215313659
0.000180248122033
0.000181260646543
0.000182628759101
0.000184999971284
0.000188378339783
0.000192988363056
0.000198646294325
0.000204894403886
0.000211452419836
0.000218301924366
0.000225488235461
0.000232781826789
0.000238983037959
0.000239404254651
0.000220719347189
0.000159957288993
7.10572850726e-05
0.000158807126569
0.000160609433809
0.000163057749361
0.000166208874156
0.000170090848024
0.000174686082697
0.000179980525687
0.000185489685787
0.000190709168648
0.000195324096823
0.000199217281525
0.000202401738683
0.000204896095249
0.000206524256882
0.000206745681337
0.000204224301468
0.000195724283762
0.000173046117528
0.000123180244928
5.61964545498e-05
0.000151431496904
0.000154136295507
0.000157796072852
0.000162319379606
0.000167479861093
0.000172885971565
0.000178048050447
0.000182462055589
0.000185762959759
0.000187780859719
0.000188501578918
0.00018788855271
0.000185816029323
0.000182003788747
0.0001760336012
0.000166963845708
0.000152908190052
0.000129447274796
9.01267324401e-05
4.20344064088e-05
0.000147000899628
0.000149981776131
0.000153935875145
0.000158641222622
0.00016372446327
0.000168663611903
0.000172855264021
0.000175752880168
0.000177012075346
0.000176506441066
0.000174210602559
0.000170103586045
0.000164095557994
0.000156012750239
0.000145651531292
0.000132600809585
0.000116023485927
9.38473820388e-05
6.33445192685e-05
2.96288594941e-05
0.00014217146041
0.000144955094618
0.000148651149298
0.000153010842354
0.000157611850813
0.000161858443399
0.000165061953214
0.000166606867352
0.000166115387784
0.000163468680461
0.000158685276397
0.000151798625075
0.000142822684356
0.000131777510534
0.000118723779538
0.000103699284605
8.65160647321e-05
6.64964864775e-05
4.2979662808e-05
1.97240899223e-05
0.000136428746731
0.000138861573061
0.000142105400635
0.0001459241386
0.000149899921887
0.00015342085852
0.000155748224668
0.000156197106983
0.000154337814616
0.000150045733975
0.000143383122361
0.000134467408485
0.000123449562839
0.000110548194177
9.60788595398e-05
8.03995870886e-05
6.37644936296e-05
4.6276895596e-05
2.83088041224e-05
1.25301114419e-05
0.000129811859314
0.000131845717385
0.000134574308889
0.000137791362442
0.000141110344303
0.000143942448822
0.000145545072742
0.000145188444632
0.000142378851491
0.000136960891919
0.000129027224841
0.000118781197769
0.000106505949885
9.26004520131e-05
7.76021507935e-05
6.21126593985e-05
4.66849122311e-05
3.18176945301e-05
1.82599574275e-05
7.7223128154e-06
0.000122473324171
0.000124107431302
0.000126310326205
0.000128911093721
0.000131574234104
0.000133763745336
0.000134767154749
0.000133837323602
0.000130424264852
0.000124328242369
0.000115651778477
0.000104664570441
9.17582837493e-05
7.74897161937e-05
6.25924782694e-05
4.78688865818e-05
3.4040977954e-05
2.17497398273e-05
1.16767446853e-05
4.70597096278e-06
0.000114570524167
0.000115818178017
0.000117507395624
0.000119502336226
0.000121523277141
0.000123103090663
0.000123588244296
0.000122248438026
0.000118498523319
0.000112090588687
0.00010311477344
9.18758266518e-05
7.88420192556e-05
6.47006306686e-05
5.03608389786e-05
3.67838797672e-05
2.476265732e-05
1.48659227592e-05
7.49579853596e-06
2.88486546818e-06
0.00010627249301
0.000107154749112
0.000108351508167
0.000109757912542
0.000111148563771
0.000112131573659
0.000112132152189
0.000110469868904
0.000106555107119
0.000100100813884
9.11695488149e-05
8.007111634e-05
6.73141183031e-05
5.36872254838e-05
4.02672882167e-05
2.8114736578e-05
1.79739479946e-05
1.0207269901e-05
4.8761283631e-06
1.80291217024e-06
9.77519280961e-05
9.82915831183e-05
9.90202556647e-05
9.98591771222e-05
0.000100632259514
0.000101022482176
0.000100544563439
9.85946826199e-05
9.46123320376e-05
8.82910365468e-05
7.96592429618e-05
6.90032302534e-05
5.68541381532e-05
4.40762105363e-05
3.18704901105e-05
2.13211881765e-05
1.30154124271e-05
7.05229289994e-06
3.22587202989e-06
1.15476043161e-06
8.91783856794e-05
8.93978045781e-05
8.96860670531e-05
8.99843784076e-05
9.01590997287e-05
8.99631905819e-05
8.90035573655e-05
8.67703959354e-05
8.27621453307e-05
7.66757593569e-05
6.85140430952e-05
5.85383068111e-05
4.72716306459e-05
3.56223015384e-05
2.48570012577e-05
1.59927932104e-05
9.38538976557e-06
4.89703071576e-06
2.16814490227e-06
7.56913726258e-07
8.07082510639e-05
8.06330688708e-05
8.05139314798e-05
8.03072932786e-05
7.99153423626e-05
7.91537505256e-05
7.77183209434e-05
7.52001474816e-05
7.11783475793e-05
6.53841530745e-05
5.78100355857e-05
4.86899539161e-05
3.85144179865e-05
2.82046248043e-05
1.90238997994e-05
1.18269627439e-05
6.72051030351e-06
3.40602410122e-06
1.47305973647e-06
5.04728101072e-07
7.24760301188e-05
7.2136213322e-05
7.16498940392e-05
7.09853599424e-05
7.00748590952e-05
6.87883772913e-05
6.69037578869e-05
6.41140140668e-05
6.00930281291e-05
5.46286724584e-05
4.77177336319e-05
3.9563910736e-05
3.06150648304e-05
2.17797832005e-05
1.42362431005e-05
8.59882641714e-06
4.76389650588e-06
2.36272026441e-06
1.00507680774e-06
3.39721930549e-07
6.45895302241e-05
6.40194185379e-05
6.32138528863e-05
6.21504865099e-05
6.07870284918e-05
5.90405498072e-05
5.6762802659e-05
5.37436212846e-05
4.97554868745e-05
4.46533150927e-05
3.84468793983e-05
3.13113414686e-05
2.36548018797e-05
1.63460770926e-05
1.03897732143e-05
6.13101906055e-06
3.33245928241e-06
1.6269558787e-06
6.83992595176e-07
2.28879616784e-07
5.71219124187e-05
5.63618605965e-05
5.52926827125e-05
5.39010677187e-05
5.21670016952e-05
5.00483468886e-05
4.7461874477e-05
4.4284761382e-05
4.03819118853e-05
3.56746075153e-05
3.01899268919e-05
2.40772399122e-05
1.77140143012e-05
1.1897420748e-05
7.38550824337e-06
4.28165015339e-06
2.29432236112e-06
1.10763568531e-06
4.61752245378e-07
1.53353477636e-07
5.01201576627e-05
4.92138326766e-05
4.79423461901e-05
4.63015917997e-05
4.42913157958e-05
4.19048921694e-05
3.91147948831e-05
3.58723666309e-05
3.21226083195e-05
2.78440625861e-05
2.30779044125e-05
1.79540108572e-05
1.28315002953e-05
8.39178656081e-06
5.11367137215e-06
2.92601651578e-06
1.55171011791e-06
7.43037547639e-07
3.07732442737e-07
1.01532773281e-07
4.36097479859e-05
4.26015945048e-05
4.11917671684e-05
3.93846367829e-05
3.71982643945e-05
3.46559758682e-05
3.1776673565e-05
2.85714741276e-05
2.50479241433e-05
2.12269493619e-05
1.71582667499e-05
1.29633528963e-05
8.98568038093e-06
5.74430413418e-06
3.45289902006e-06
1.9568011267e-06
1.0301211858e-06
4.9020365615e-07
2.01878638803e-07
6.61851028484e-08
3.75979903789e-05
3.65323643117e-05
3.50475029313e-05
3.31559618807e-05
3.08923859763e-05
2.83047539176e-05
2.54489391407e-05
2.23800459829e-05
1.91490450435e-05
1.5803237416e-05
1.23964697797e-05
9.05585454957e-06
6.09350587138e-06
3.82567742425e-06
2.27717064551e-06
1.28177162693e-06
6.70918211841e-07
3.17478945919e-07
1.29934607977e-07
4.22375784258e-08
3.20861290534e-05
3.10045795139e-05
2.95037729871e-05
2.76044576325e-05
2.53548232478e-05
2.28228733529e-05
2.00907902664e-05
1.72425987477e-05
1.43543504798e-05
1.14855367343e-05
8.69607283632e-06
6.12784522525e-06
4.01683171557e-06
2.48851737878e-06
1.47121909256e-06
8.23952941989e-07
4.29061301283e-07
2.017914286e-07
8.19385176184e-08
2.63432594823e-08
2.70699859065e-05
2.60104669489e-05
2.45469014844e-05
2.27074892832e-05
2.05511706171e-05
1.8160125449e-05
1.56322496873e-05
1.30669841485e-05
1.05497901024e-05
8.14387828305e-06
5.92544811995e-06
4.0333246003e-06
2.58905438564e-06
1.58950619681e-06
9.34956547108e-07
5.21138593078e-07
2.69806572513e-07
1.25914408288e-07
5.05920491374e-08
1.60153940108e-08
2.25483105772e-05
2.15435959576e-05
2.01621978198e-05
1.84383042783e-05
1.64384394431e-05
1.42527163571e-05
1.19857141664e-05
9.73978116331e-06
7.59949520488e-06
5.63426416833e-06
3.93728791418e-06
2.60096582287e-06
1.64522619908e-06
1.00349530675e-06
5.87522363437e-07
3.25707870185e-07
1.67412466287e-07
7.73430583536e-08
3.05805563748e-08
9.4018103886e-09
1.85371962366e-05
1.76124063755e-05
1.63469535948e-05
1.47795470281e-05
1.29802278848e-05
1.10409354423e-05
9.06477339349e-06
7.14859250167e-06
5.37309505862e-06
3.81885898805e-06
2.57085709823e-06
1.66038908207e-06
1.03939655501e-06
6.30322091579e-07
3.66981317393e-07
2.01930127606e-07
1.02670718982e-07
4.66486104889e-08
1.79291007052e-08
5.22616280944e-09
1.50961697119e-05
1.42602278179e-05
1.31244482973e-05
1.17302449739e-05
1.01480477632e-05
8.46699334071e-06
6.7829798081e-06
5.18193728971e-06
3.74089114679e-06
2.54802652842e-06
1.66228645602e-06
1.05592415056e-06
6.5538727258e-07
3.94792947591e-07
2.28003511116e-07
1.2401369094e-07
6.19743879587e-08
2.73940076096e-08
1.00504709321e-08
2.69022122799e-09
1.2252322909e-05
1.15125069456e-05
1.05125247645e-05
9.29416125173e-06
7.92636618573e-06
6.49380196027e-06
5.08490152408e-06
3.77336192551e-06
2.62162665238e-06
1.70907803076e-06
1.07953735998e-06
6.74539464141e-07
4.15005145566e-07
2.48083667213e-07
1.4188086384e-07
7.60742714388e-08
3.71969057028e-08
1.58859230153e-08
5.50536082028e-09
1.33320162158e-09
1.88682292012e-05
1.49517438633e-05
2.86608569745e-05
2.19491356576e-05
3.9333006445e-05
2.87737961843e-05
4.71634855231e-05
3.29197927298e-05
4.82635205134e-05
3.22582006212e-05
4.18435446137e-05
2.70844193477e-05
3.44296604272e-05
2.0953179528e-05
2.72843051972e-05
1.58741454056e-05
2.10026673118e-05
1.1768935181e-05
1.56258748963e-05
8.48693089825e-06
1.10643477004e-05
5.86859769998e-06
7.41430650192e-06
3.87120803039e-06
4.73969432512e-06
2.4475630131e-06
2.93560391657e-06
1.50440570922e-06
1.79489966968e-06
9.14804000597e-07
1.10296783752e-06
5.5884981097e-07
6.89375253492e-07
3.46782247651e-07
4.40625843209e-07
2.19763859966e-07
2.87765998411e-07
1.42162199913e-07
1.91010598293e-07
9.34414615681e-08
1.2791796064e-07
6.1974722582e-08
8.57247321726e-08
4.11740901063e-08
5.71294147835e-08
2.72211489058e-08
3.75859047885e-08
1.77936901735e-08
2.43258354144e-08
1.1439595409e-08
1.53826752852e-08
7.19365186187e-09
9.48710675404e-09
4.40117147716e-09
5.66004188868e-09
2.59086792458e-09
3.2097844727e-09
1.44187492165e-09
1.68804445524e-09
7.43895991796e-10
8.09584793751e-10
3.56668190031e-10
3.8253710532e-10
1.76863748753e-10
)
;

boundaryField
{
    inletfuel
    {
        type            fixedValue;
        value           nonuniform 0();
    }
    inletair
    {
        type            fixedValue;
        value           nonuniform 0();
    }
    outlet
    {
        type            zeroGradient;
    }
    axis
    {
        type            empty;
    }
    leftside
    {
        type            zeroGradient;
    }
    burnerwall
    {
        type            zeroGradient;
    }
    front
    {
        type            wedge;
    }
    back
    {
        type            wedge;
    }
    procBoundary1to0
    {
        type            processor;
        value           nonuniform List<scalar> 
27
(
9.21354124357e-05
9.3244128975e-05
9.56528543005e-05
9.8939105762e-05
0.00010901222147
0.000102914194836
9.24469668176e-05
7.78187779537e-05
5.92484522612e-05
3.83606171213e-05
1.84424415971e-05
0.000106121403302
0.000119724565265
0.000134850598358
0.000150139091352
0.000163642072877
0.000172675382927
0.000176033711899
0.000172194453888
0.000164480383266
0.000155856297836
0.000148869101998
0.000145379824992
0.00014439740541
0.00014439740541
1.14655165385e-05
9.36175412772e-06
)
;
    }
}


// ************************************************************************* //
