/*--------------------------------*- C++ -*----------------------------------*\
  =========                 |
  \\      /  F ield         | OpenFOAM: The Open Source CFD Toolbox
   \\    /   O peration     | Website:  https://openfoam.org
    \\  /    A nd           | Version:  7
     \\/     M anipulation  |
\*---------------------------------------------------------------------------*/
FoamFile
{
    version     2.0;
    format      ascii;
    class       volScalarField;
    location    "0.06";
    object      k;
}
// * * * * * * * * * * * * * * * * * * * * * * * * * * * * * * * * * * * * * //

dimensions      [0 2 -2 0 0 0 0];

internalField   nonuniform List<scalar> 
815
(
6.88387487567
6.87293477084
6.83958812973
6.33752729577
6.33273940738
6.31556134853
5.86974738771
5.87333857187
5.87538376281
5.41695663241
5.42849047517
5.45004428436
5.51146101961
5.52467374579
5.55166886677
6.51419713131
6.52056482364
6.53239307824
4.49816939259
4.48831355424
4.46036910251
0.981416343707
0.978864858697
0.97427336383
0.360389431212
0.360283304787
0.360281450024
0.262053356403
0.262124764328
0.262458908943
0.247259219309
0.24729371305
0.24752776943
0.243686899474
0.243706896704
0.243911739702
0.238735769801
0.238786003283
0.239048232035
0.232190085652
0.232237284302
0.232501451667
0.224286239906
0.224356812244
0.22467793129
0.215850228325
0.21592211469
0.216256972461
0.207115403635
0.207188127297
0.207541543308
0.198143429933
0.198218546782
0.198593523704
0.188945271809
0.189016146947
0.189399646568
0.179513582665
0.179571876144
0.179946484329
0.169788413167
0.16983509393
0.170198478205
0.159867873644
0.159887057925
0.160204716395
0.149801613417
0.149794700592
0.150064917038
0.139733679301
0.139699390158
0.139916328779
0.129875753955
0.129813056763
0.129969456738
0.120431112138
0.120341654354
0.120437038489
0.111602774458
0.11148835662
0.111520725463
0.103507304597
0.103373649382
0.103348868054
0.0961780088821
0.0960323449148
0.0959612888165
0.0906293038701
0.0905311506773
0.0904956226066
0.103434766363
0.103379032861
0.103325113507
6.77897655877
6.28033339115
5.8703319774
5.47447504257
5.58684202382
6.54904876
4.42420114768
0.968461322952
0.360256900005
0.262889293314
0.247916731989
0.244286081961
0.239491894676
0.233000167255
0.225261155583
0.216904665575
0.208239471407
0.199334397204
0.190164526518
0.18071113123
0.170946856472
0.160908562828
0.150705803414
0.140479888195
0.130442354121
0.120814352318
0.111803192024
0.103544877613
0.0960833685277
0.0905672407412
0.103309308276
0.0795547396706
0.0713794538538
0.062269081138
0.0537084211227
0.0454389510942
0.0404597470177
0.0491669773376
6.62063507123
6.20392365901
5.49212512413
4.48531360423
3.28998261312
2.08104272133
1.05842950596
0.497188091893
0.274650587061
0.181807711446
0.139109375345
0.128818070874
0.130008276838
0.126642926987
0.116302276238
0.102687283158
0.0883440162168
0.0733593064442
0.05900038302
0.0598517369797
6.18134816388
5.86888534292
5.28442806943
4.39342797837
3.28280471499
2.12740305196
1.15728996788
0.581970350385
0.343610450149
0.259914538688
0.235987954009
0.23576321104
0.234816178435
0.222300944629
0.199342031929
0.172485397767
0.146359609587
0.12096340548
0.0923584229166
0.0774574477057
5.8401325835
5.68684482543
5.30801591466
4.62013483731
3.66501284173
2.58125882228
1.57727106249
0.914051075978
0.619698199049
0.521383391696
0.487786984916
0.460113853842
0.416198300213
0.359480756401
0.301938390977
0.25265627843
0.214254520576
0.182854754268
0.139682988144
0.102473361205
5.51325205181
5.5246143921
5.39078182419
5.00060774006
4.32144136235
3.44052065723
2.48118365355
1.72877352728
1.306349644
1.05093968077
0.853687318585
0.680295609609
0.532853477787
0.418245241058
0.338048961548
0.287842195816
0.259034626017
0.236910200681
0.185386622832
0.129637015309
5.65988934225
5.78422173974
5.86769054284
5.78070724574
5.38215212635
4.64044018574
3.66445812491
2.68506640951
1.87280936583
1.28398879828
0.891538953045
0.63686259656
0.469170858529
0.360523833532
0.297449921785
0.269054754563
0.265545754712
0.263849765437
0.211862643649
0.155348280192
6.57963871841
6.60339941921
6.54773409516
6.28672119291
5.67852694852
4.6644831788
3.43903695941
2.29908777264
1.45368777888
0.925529304232
0.612068994999
0.429672507623
0.326313013386
0.271673798011
0.247809166005
0.244742081252
0.256506647968
0.264548120693
0.220726890369
0.188304226477
4.33677216065
4.11500892743
3.7578383984
3.23933496406
2.58347451684
1.89354367535
1.32443813467
0.890147106781
0.600108515286
0.423554523824
0.321978340705
0.266111518534
0.238006776755
0.227582893465
0.229186685092
0.238735642278
0.253738910043
0.262179302755
0.236622289593
0.243030705886
0.953697996472
0.909032869246
0.837115305018
0.741713500185
0.629427055036
0.508918009333
0.406993737998
0.327616280878
0.271925684199
0.236236109619
0.216395441665
0.20868255424
0.210237165588
0.218558025547
0.23132234924
0.24650209092
0.262814013678
0.275483759308
0.276535351932
0.327079590721
0.35950363782
0.352318596529
0.338465828248
0.3175441809
0.290827910724
0.261313546972
0.233772041938
0.21156548694
0.196583993027
0.189200976423
0.189130412965
0.195643439905
0.207637286742
0.223747163641
0.242352748037
0.263003185969
0.285689696494
0.310824928588
0.342809816133
0.435809491073
0.26323854053
0.261537087125
0.256046805363
0.245632244014
0.230749807919
0.213551091964
0.197230239692
0.184794613247
0.178028120236
0.177546407622
0.183319765848
0.194850304142
0.211378807402
0.232161343717
0.256686894145
0.285575611036
0.320174586434
0.364491679766
0.427936647035
0.551014400684
0.248364158265
0.247478869112
0.243198620765
0.234132773832
0.220517733596
0.204461007258
0.189209027998
0.177848824512
0.172239572258
0.173049859363
0.180302660414
0.193779360969
0.213244600331
0.238729618611
0.270886008485
0.311291737207
0.362724938696
0.43030519472
0.521689530705
0.65249599603
0.244770471909
0.244138655059
0.240314200885
0.231728702424
0.218358983063
0.202103902928
0.186195823854
0.173906964299
0.16736719444
0.167483222707
0.174537696541
0.188796416437
0.210821476894
0.241759618151
0.283561554451
0.339038705724
0.411749152372
0.505151237942
0.617448381205
0.731389525458
0.240161527234
0.239981463586
0.236848468345
0.229025287669
0.216151036484
0.199777480033
0.182980511335
0.169183415244
0.160876802206
0.159329623864
0.165232840724
0.1795000313
0.20378407483
0.24076841612
0.294194139994
0.368410609177
0.466840584307
0.587756605866
0.71264605973
0.792250742071
0.233869664707
0.234217250912
0.231875454876
0.224961043367
0.21278761711
0.196510552055
0.178944902044
0.163569262813
0.153204764208
0.149512773643
0.153632270989
0.167230590361
0.193338413539
0.236772992745
0.303887285332
0.40090274298
0.529776031134
0.678910536506
0.807988330526
0.84507468859
0.226340135068
0.227225231363
0.225702550207
0.219763774133
0.208435052395
0.192483707041
0.174414280748
0.157659410063
0.145277406066
0.139275700164
0.141202498195
0.15350216572
0.180839952296
0.230931456699
0.31390576245
0.438245545263
0.601981787151
0.778744789575
0.904935089097
0.898227940523
0.218177712296
0.219564052052
0.218801531943
0.213807097243
0.203385350178
0.187960074725
0.169705625171
0.151921510845
0.137796657421
0.129601841644
0.129216190352
0.139816301199
0.167942198381
0.225159890778
0.326663901683
0.482963498672
0.684576249999
0.886550626314
1.00497543452
0.956278581536
0.209651795847
0.211448646663
0.211340056757
0.207203094202
0.197693473217
0.182957738751
0.164853363705
0.146481080586
0.131049902609
0.120999624295
0.118457842087
0.127284149842
0.156132185854
0.221381552469
0.344580624297
0.537118639912
0.777610065729
1.00099195302
1.10825656735
1.02043383671
0.200852070373
0.202958654656
0.203365098916
0.199954086031
0.191303354833
0.177361362172
0.159708491795
0.141209691887
0.124999389319
0.113590082661
0.10931689583
0.116710273926
0.146824713166
0.221950418033
0.370886072122
0.603239886666
0.881334437884
1.12096781418
1.21444143093
1.09045721644
0.191741959295
0.194048923857
0.194819298471
0.191982496031
0.18410360881
0.171010119624
0.154058743747
0.13586398464
0.11941856876
0.107249801716
0.101871424109
0.108564021068
0.141285613611
0.229519574542
0.409219319176
0.683616645435
0.995821070601
1.24598416011
1.32339639224
1.16559768952
0.182294602548
0.184686045172
0.185665791499
0.183244587283
0.176029828522
0.163793269895
0.147725574279
0.130212940625
0.114064109631
0.101766893522
0.0960420978848
0.103183257155
0.140961237539
0.247409674779
0.463579676735
0.780438220296
1.12134663133
1.37610720642
1.43551580186
1.24536526932
0.172492392132
0.174859998088
0.175906247913
0.173751773924
0.167089855517
0.155696477438
0.14065359844
0.124142995444
0.108766889119
0.0969531712185
0.0917483691342
0.101007677842
0.147784969188
0.279638684987
0.538032039885
0.895632906466
1.25844499285
1.51218089307
1.5513073619
1.32910160203
0.162370516943
0.164616666254
0.165602801002
0.163587378913
0.157385996445
0.146824804006
0.132919274405
0.117669679805
0.103469791387
0.0927256562666
0.0890740442328
0.10291009644
0.164701849105
0.331174593976
0.636341869243
1.03024239204
1.4079882939
1.65539954007
1.67136472897
1.41664906934
0.152037265907
0.154073683947
0.154897926477
0.152927259102
0.147124471745
0.137396101207
0.124719399383
0.110931621091
0.0982506682209
0.0891850028903
0.0884789090932
0.110749395653
0.196416814176
0.407933532124
0.761368445325
1.18551762019
1.57122287656
1.80674075825
1.79589914605
1.50657504266
0.141650597567
0.143412734886
0.14400751303
0.142026281491
0.136596151053
0.127716701407
0.116343040942
0.104177809681
0.0933389472643
0.0867186580043
0.0911748736316
0.128219235651
0.249936128107
0.515519696982
0.915079434356
1.36246219894
1.74876328042
1.96639887529
1.92405002952
1.59723765134
0.131426398756
0.132872762222
0.133205053375
0.13119794094
0.126148209358
0.118149930236
0.108146610887
0.0977504756891
0.0891508681264
0.0862188722613
0.0998051913049
0.161878280387
0.333791652005
0.658546957334
1.09888517457
1.56106656209
1.94004754992
2.13269538932
2.05251541471
1.68268747324
0.121601727999
0.122720307021
0.122792602593
0.120782321856
0.116149600358
0.109079531089
0.100517002019
0.0920805837512
0.0863955684503
0.0895255518246
0.119516348507
0.221323795208
0.455967684594
0.838913211254
1.31095277137
1.77792512995
2.14028375207
2.29913453156
2.17268235204
1.75387308632
0.112399864683
0.113206390791
0.11305407143
0.111092901833
0.106936083611
0.100854030011
0.0938300854401
0.0876968997236
0.086267660547
0.100108655902
0.158550210425
0.316471752897
0.619733589083
1.05239416401
1.54360376581
2.00316128916
2.33688673703
2.45045411605
2.26801557236
1.79382446894
0.103970709612
0.104506554793
0.104192155128
0.102352998495
0.098741590764
0.0937179144325
0.0883988303351
0.0852492417758
0.0907262977625
0.123505753307
0.225816931448
0.451238390271
0.817160813022
1.28353092287
1.77684900673
2.21259854324
2.50252578396
2.5584033049
2.31103462566
1.7741795659
0.0963674525312
0.0966937655435
0.0962946609701
0.0946557741828
0.0916515465797
0.0877423560588
0.084317274272
0.0850989404573
0.101234614845
0.162601620872
0.319902889522
0.609799710107
1.01969300933
1.4967134378
1.96991490609
2.36130287635
2.58985191535
2.57494506908
2.25543623748
1.65582797851
0.0907394475909
0.0908891753859
0.0904286390557
0.088986290884
0.0865331840204
0.0836012521456
0.0818428731877
0.0864756240396
0.114582352424
0.207718789338
0.41571415923
0.748691676121
1.17157545077
1.62734077865
2.05022687616
2.36982285436
2.51567299373
2.41985907755
2.03792031831
1.41417856336
0.103300207612
0.10309521569
0.102334532536
0.100791474193
0.0985107249288
0.0960101373621
0.0948382156297
0.100262335364
0.131135089627
0.235533753637
0.461649628562
0.79598638404
1.18719557031
1.57930069525
1.91397662745
2.13301287246
2.18274119371
2.02328843442
1.64018633016
1.11298179554
0.0711791777103
0.0659099756051
0.0794181552604
0.0739445547651
0.0917598958564
0.0843411769726
0.109915169379
0.0995853121952
0.129808801885
0.121624615493
0.152864012317
0.187509942286
0.182282674352
0.247034888307
0.223890448603
0.291184623681
0.273850489299
0.330865286915
0.32555714643
0.369169694666
0.371007801162
0.405902357792
0.40758315519
0.440333608474
0.436883837766
0.473731991747
0.463555350908
0.50850384556
0.491712036977
0.545717374265
0.523897330932
0.585726405765
0.56094410654
0.628733471759
0.602786692038
0.674664699752
0.648750624443
0.723403655024
0.698201532113
0.774660289344
0.750377154786
0.828002223203
0.804450149268
0.882867320452
0.859962048315
0.938424808964
0.914964622412
0.993472455785
0.96822792986
1.04626094068
1.01491159369
1.09414352978
1.05099463002
1.13397426646
1.06441564257
1.16139444788
1.03909306753
1.17231785895
0.963495350374
1.16559363083
0.853630630078
1.14585425109
0.773495260553
1.10681100173
)
;

boundaryField
{
    inletfuel
    {
        type            turbulentIntensityKineticEnergyInlet;
        intensity       0.05;
        value           nonuniform 0();
    }
    inletair
    {
        type            turbulentIntensityKineticEnergyInlet;
        intensity       0.05;
        value           nonuniform 0();
    }
    outlet
    {
        type            inletOutlet;
        inletValue      uniform 1;
        value           nonuniform List<scalar> 
26
(
0.103434766363
0.103379032861
0.103325113507
0.103309308276
0.103300207612
0.10309521569
0.102334532536
0.100791474193
0.0985107249288
0.0960101373621
0.0948382156297
0.100262335364
0.131135089627
0.235533753637
0.461649628562
0.79598638404
1.18719557031
1
1
1
1
1
1
1
1
1
)
;
    }
    axis
    {
        type            empty;
    }
    leftside
    {
        type            kqRWallFunction;
        value           nonuniform List<scalar> 
32
(
0.0659099756051
0.0739445547651
0.0843411769726
0.0995853121952
0.121624615493
0.187509942286
0.247034888307
0.291184623681
0.330865286915
0.369169694666
0.405902357792
0.440333608474
0.473731991747
0.50850384556
0.545717374265
0.585726405765
0.628733471759
0.674664699752
0.723403655024
0.774660289344
0.828002223203
0.882867320452
0.938424808964
0.993472455785
1.04626094068
1.09414352978
1.13397426646
1.16139444788
1.17231785895
1.16559363083
1.14585425109
1.10681100173
)
;
    }
    burnerwall
    {
        type            kqRWallFunction;
        value           nonuniform 0();
    }
    front
    {
        type            wedge;
    }
    back
    {
        type            wedge;
    }
    procBoundary1to0
    {
        type            processor;
        value           nonuniform List<scalar> 
27
(
8.85521238053
8.8358445512
8.77064285672
8.65049312943
0.0590800588511
0.0506876584251
0.0425169400973
0.0360916009256
0.0315022943071
0.0308279125341
0.0429865565163
8.32200954875
7.53123417785
6.53458872628
5.28517193908
3.87952582237
2.51897903634
1.32700774902
0.617792530922
0.333646320626
0.195949334265
0.117035105665
0.0875731035675
0.0830508232147
0.0830508232147
0.0658043975552
0.0594233933073
)
;
    }
}


// ************************************************************************* //
