/*--------------------------------*- C++ -*----------------------------------*\
  =========                 |
  \\      /  F ield         | OpenFOAM: The Open Source CFD Toolbox
   \\    /   O peration     | Website:  https://openfoam.org
    \\  /    A nd           | Version:  7
     \\/     M anipulation  |
\*---------------------------------------------------------------------------*/
FoamFile
{
    version     2.0;
    format      ascii;
    class       volScalarField;
    location    "0.06";
    object      N2;
}
// * * * * * * * * * * * * * * * * * * * * * * * * * * * * * * * * * * * * * //

dimensions      [0 0 0 0 0 0 0];

internalField   nonuniform List<scalar> 
815
(
0.68893926435
0.689941226816
0.692071842316
0.702866534387
0.703735211455
0.70556326513
0.711036013366
0.711731700626
0.713197318528
0.716969397752
0.717491933084
0.718597888778
0.722211538921
0.722543646908
0.723255242212
0.729420962994
0.729615276931
0.730038225375
0.742978624935
0.743081962869
0.743315268726
0.758385715891
0.758415797228
0.758472952451
0.763089307121
0.76309502778
0.763105045083
0.764563546614
0.764564573314
0.764566161944
0.765136517574
0.765136579919
0.7651364615
0.765420271155
0.765420178602
0.765419826573
0.765594859604
0.765594868341
0.7655947571
0.76572225238
0.765722386184
0.765722565076
0.765826293264
0.765826561936
0.7658270491
0.76591816776
0.76591855686
0.765919323382
0.766003521752
0.766004018068
0.766005031327
0.766085141233
0.766085753843
0.766087013782
0.766164578702
0.766165296368
0.766166778929
0.766242421953
0.766243232437
0.76624491056
0.766318681665
0.766319577435
0.766321428947
0.766393300566
0.766394248472
0.766396220311
0.766465884854
0.766466865617
0.766468916313
0.766535954014
0.766536959569
0.766539060479
0.766603132953
0.76660414371
0.766606254638
0.766666909519
0.766667911938
0.766670001757
0.766726899737
0.766727868858
0.766729890081
0.766782648506
0.766783556308
0.766785455785
0.766833470022
0.766834292564
0.766836027497
0.76687798951
0.766878743963
0.766880325163
0.766915629852
0.766916300438
0.766917704759
0.694916714341
0.707995614692
0.715150532208
0.720078110253
0.724215001737
0.730616419853
0.743639328753
0.758549119845
0.763119218132
0.764568430341
0.76513617282
0.765419217877
0.765594495749
0.765722737465
0.765827669681
0.76592034925
0.766006413556
0.766088738725
0.766168811846
0.766247213887
0.766323969802
0.766398934756
0.766471748611
0.766541965955
0.766609176468
0.766672892423
0.766732686364
0.766788089032
0.766838440488
0.766882525405
0.766919661841
0.765588685771
0.765681213546
0.765871136887
0.76616180859
0.766535389701
0.766907908825
0.767117267584
0.700836952256
0.711261814426
0.722996341224
0.734634677193
0.744855725611
0.752595209198
0.757595677781
0.760606801395
0.762290438161
0.763287549949
0.763906500523
0.764188505713
0.76424049739
0.764241633143
0.764353579202
0.764631628557
0.76507473811
0.765663191153
0.76632617733
0.766813126063
0.712906418093
0.721569418993
0.731148345713
0.740360938678
0.748170258742
0.753925715125
0.75777267136
0.760117873758
0.761381868035
0.76203251734
0.762335569207
0.762388321692
0.762329145708
0.762335710372
0.76252830799
0.762944768351
0.763596764051
0.764478512364
0.765528059646
0.766441476906
0.719102768472
0.726124845505
0.733943819175
0.741497551837
0.747985137719
0.752900828423
0.756298033244
0.758354437461
0.759394350346
0.75984112576
0.759972845363
0.759980571829
0.760042022883
0.760253456322
0.760654921773
0.76125354507
0.762083540255
0.763210397497
0.764670291402
0.766073552394
0.723128642246
0.72864662107
0.734880589323
0.740979602663
0.746308200519
0.750503125482
0.753555655561
0.755461956445
0.756474133226
0.757077336884
0.757557466709
0.758077426677
0.758673163389
0.759300242537
0.75990592009
0.760501746324
0.761227936083
0.762351260712
0.764065006682
0.765830171684
0.72627875585
0.730183695391
0.734814347717
0.739571698015
0.743952378173
0.747652727309
0.750563782768
0.752731343917
0.754429461551
0.755909443451
0.757235474699
0.758390269878
0.759352994991
0.760104661253
0.760618433212
0.760961149538
0.761351074265
0.76220400748
0.763916428461
0.765755911851
0.731887799676
0.73434553691
0.737429738475
0.740842071904
0.744297550077
0.747628498702
0.750719126726
0.753518204725
0.755965686713
0.757929249523
0.759446779979
0.760540137716
0.761258822819
0.761670916575
0.761867329609
0.761943572754
0.762088326288
0.762696036266
0.76419565574
0.765781034083
0.744366785015
0.745793677694
0.747709745607
0.750015188165
0.752550322182
0.755069626959
0.757204780402
0.759000664142
0.760400820547
0.761410249541
0.762088400316
0.76251473872
0.762760750254
0.762878604751
0.762905414949
0.762902282237
0.763005319064
0.763498947588
0.764659610026
0.765793302282
0.758721901943
0.759087123874
0.759602403573
0.760229978982
0.760920530863
0.761623955293
0.762224523349
0.762708889327
0.763077662174
0.763344479418
0.763523738655
0.763632535956
0.763686427892
0.763699495162
0.763695650436
0.76372164756
0.763860891249
0.764264827477
0.765056252915
0.765771923072
0.763153059203
0.763240854784
0.763367282009
0.763521903591
0.763686929777
0.763846396134
0.763986389004
0.764101965766
0.76418896099
0.764248518991
0.764282446779
0.764295803332
0.764295176075
0.764292340732
0.764306281503
0.764367169895
0.76451837271
0.764826227588
0.765322645018
0.765710453789
0.764573973451
0.764589478601
0.764613024179
0.764643291691
0.764676497978
0.764708315969
0.764735288979
0.764754922923
0.764765065706
0.764765380639
0.764757775774
0.764746327196
0.764737972335
0.764742601679
0.76477314685
0.764845166782
0.764975789409
0.765185061603
0.765462009127
0.765616964138
0.765135570501
0.765134939822
0.765134873063
0.765135612221
0.76513669693
0.765137323138
0.765136335284
0.765132317752
0.765124139439
0.765111822931
0.765097238347
0.765084663567
0.765080343352
0.76509140276
0.765124712663
0.765185371309
0.765275838677
0.765393231282
0.76551018366
0.765508429975
0.765417819906
0.765414892598
0.765411275412
0.765407456014
0.765403710335
0.765400068019
0.765396183367
0.765391175526
0.765384005185
0.765374496265
0.765364210998
0.765356645599
0.765356309219
0.76536723895
0.765391318653
0.765427057
0.765468886693
0.765504480033
0.76550496479
0.765401716436
0.765593827017
0.765592253285
0.765590366208
0.765588687769
0.76558775568
0.765587915429
0.765589061497
0.765590439173
0.765590874582
0.765589595138
0.765587105836
0.76558531038
0.765586483464
0.765591657586
0.765599006122
0.765603157152
0.765594883182
0.765559751313
0.76547492189
0.765306379075
0.765723050301
0.765723626025
0.765724762785
0.765726992288
0.765730911362
0.765737017075
0.765745395298
0.765755378611
0.765765524176
0.765774210372
0.765780462912
0.765784113185
0.765784872828
0.765780846859
0.765767424677
0.765737282696
0.765680631513
0.765585110559
0.765436740064
0.765223946949
0.765828990243
0.76583177164
0.765836041739
0.765842350744
0.765851346541
0.765863633187
0.765879449396
0.765898210112
0.765918234515
0.765937053734
0.765952104091
0.765960917316
0.765960328653
0.765945385818
0.765909178865
0.765843945302
0.765741744021
0.765594661953
0.765397293911
0.765151155663
0.765922588836
0.765927399326
0.765934572238
0.76594467866
0.765958397693
0.765976400457
0.765999040674
0.766025820176
0.766054911573
0.766083154465
0.766106516945
0.766120194092
0.766117825224
0.76609096481
0.766030671727
0.765930274106
0.765785600092
0.765594245961
0.765357426787
0.765083479812
0.766009465062
0.766016081763
0.766025846301
0.766039336645
0.766057236665
0.766080236905
0.766108752476
0.766142351913
0.766179142464
0.766215479836
0.766246125379
0.766264050773
0.766259380678
0.766219663536
0.766134161772
0.765998879153
0.765814888028
0.765585033341
0.76531506588
0.765016628736
0.766092547154
0.766100776564
0.766112828406
0.766129278767
0.766150787957
0.766178012758
0.766211361159
0.766250416229
0.766293253815
0.766335937439
0.766372266468
0.766393157349
0.766385075271
0.766331030655
0.76621900792
0.766049469365
0.765829439782
0.765565930898
0.76526752943
0.764947307855
0.766173297682
0.766182951288
0.76619699917
0.76621599774
0.766240551743
0.766271232814
0.76630836997
0.766351498449
0.766398636355
0.766445609784
0.766485499686
0.766507382954
0.76649390642
0.766423192301
0.766283170594
0.766080561537
0.765827978561
0.76553526191
0.765212473911
0.764873253308
0.766252292074
0.766263181955
0.766278938342
0.766300078249
0.766327120648
0.76636051263
0.766400432584
0.766446267088
0.766495908835
0.766544978304
0.766585982749
0.766606243132
0.766584286999
0.766493554706
0.76632426269
0.766090588517
0.76580925324
0.765491580348
0.765148273174
0.764793081429
0.766329561496
0.766341496363
0.766358666466
0.766381533461
0.766410502273
0.766445850514
0.76648754052
0.766534730796
0.76658511949
0.766634112206
0.766673640712
0.766689059897
0.766654337388
0.766539515563
0.76634035635
0.766078378486
0.765772505051
0.76543400865
0.765073955995
0.764705994501
0.766404914953
0.766417670256
0.766435930983
0.766460076378
0.766490369678
0.766526884093
0.766569319794
0.766616551715
0.766666029526
0.766712875648
0.766748237838
0.766754928717
0.766701933205
0.76655884162
0.766330420701
0.766043832524
0.76571758713
0.765362378903
0.764989396515
0.764612008769
0.766477995739
0.76649132461
0.766510320045
0.766535255798
0.766566234289
0.766603098428
0.766645259448
0.766691283263
0.7667383061
0.766781019097
0.766809322392
0.766802427728
0.766724566756
0.766549917305
0.766294532484
0.765987435308
0.765644912846
0.765277054373
0.764894910573
0.764511378675
0.766548369816
0.766562014069
0.766581361455
0.766606574576
0.766637575852
0.766673971578
0.766714869725
0.766758502705
0.766801616604
0.766838174321
0.766855938273
0.766829130415
0.76671945534
0.766512458661
0.766233876079
0.765910397481
0.765555795462
0.765179381289
0.764791888996
0.764405408754
0.766615610025
0.766629293407
0.766648593549
0.766673556767
0.766703917133
0.766739045226
0.766777737475
0.766817865462
0.766855618868
0.766883639957
0.766886087194
0.766831329597
0.766684592009
0.766447553509
0.766150247945
0.765814743175
0.765452319529
0.76507143125
0.764682177692
0.7642952229
0.766679243529
0.766692688961
0.766711545268
0.766735735771
0.766764816516
0.766797917876
0.766833522912
0.766869053781
0.766899781472
0.766915932296
0.766896138182
0.766804946067
0.766620085264
0.766358010155
0.766047136587
0.765704264119
0.765338410302
0.76495701115
0.764569152922
0.764183682464
0.766738820188
0.766751749594
0.76676977296
0.766792691659
0.766819890354
0.766850262575
0.766881946723
0.766911698718
0.766933147235
0.766932321152
0.766881342763
0.766748388706
0.766529563996
0.766249338693
0.765930370547
0.765584819031
0.76521983749
0.764841647639
0.764457692588
0.764073877194
0.766793866487
0.766806015336
0.766822845657
0.76684404456
0.766868832086
0.766895856873
0.766922802422
0.766945329967
0.766954137181
0.766929081476
0.766839116362
0.766665730586
0.766421693925
0.766130953871
0.765809668301
0.765466417573
0.765106629759
0.764734834903
0.764355203341
0.763968463509
0.766843746432
0.76685489514
0.766870240905
0.766889365839
0.766911346944
0.766934579096
0.766956137972
0.766969950673
0.766962190934
0.766906394858
0.766775973201
0.7665709087
0.76631203402
0.766018164875
0.765700059993
0.765363424089
0.765011639393
0.764646642715
0.764268007017
0.763869142196
0.766887355434
0.766897442139
0.766911209758
0.766928167566
0.766947304631
0.766966841897
0.766983292439
0.766988513333
0.766962910681
0.766875185958
0.766710629835
0.766485397711
0.766220629246
0.765929253115
0.765617916313
0.765289763482
0.764945974282
0.764585152937
0.764201556647
0.763778491297
0.766923971337
0.766932931458
0.766945091017
0.766959938039
0.766976456879
0.766992885183
0.767005690259
0.767006109472
0.766971083835
0.766863045997
0.76667481113
0.766436827102
0.766170076252
0.765882536347
0.765577418285
0.765255540315
0.764916053526
0.764554629969
0.764160522981
0.763705533822
0.76686665436
0.766741621442
0.766663631819
0.766563135
0.766434520886
0.766367462126
0.766204091767
0.76616843878
0.7660087705
0.765976345115
0.765858339798
0.765792532552
0.765725727168
0.76562375551
0.765606839366
0.765485198926
0.765502530278
0.765372641478
0.765405971567
0.765274872439
0.7653099143
0.765182186229
0.765213919386
0.765091588315
0.765121349721
0.765003326355
0.765034561908
0.76491819938
0.764953396019
0.764835844404
0.764876061786
0.764754865192
0.76480003598
0.764673572222
0.764722993795
0.764590475413
0.764643091744
0.76450439878
0.764559050371
0.764414573543
0.764470102942
0.764320561296
0.76437581654
0.764222254662
0.764276388647
0.76411982114
0.764171833691
0.764013500859
0.76406308134
0.763903664976
0.763950465086
0.763790659541
0.763835385127
0.763674587882
0.763717977309
0.763555042115
0.763597837807
0.763432717769
0.763476690254
0.763312418421
0.763362670182
0.763207038349
0.763276317855
0.763136286923
)
;

boundaryField
{
    inletfuel
    {
        type            fixedValue;
        value           nonuniform 0();
    }
    inletair
    {
        type            fixedValue;
        value           nonuniform 0();
    }
    outlet
    {
        type            zeroGradient;
    }
    axis
    {
        type            empty;
    }
    leftside
    {
        type            zeroGradient;
    }
    burnerwall
    {
        type            zeroGradient;
    }
    front
    {
        type            wedge;
    }
    back
    {
        type            wedge;
    }
    procBoundary1to0
    {
        type            processor;
        value           nonuniform List<scalar> 
27
(
0.663634312961
0.664792274218
0.667290661652
0.670663572907
0.766446372331
0.766542736455
0.766682008092
0.766874288983
0.767098739994
0.767295029774
0.767345275822
0.677949506115
0.691277566271
0.705962523832
0.72093598867
0.734990742417
0.746634424214
0.754879171218
0.759464861244
0.762043171551
0.763627147181
0.764695235773
0.765291436675
0.765518771065
0.765518771065
0.76703553381
0.766897088743
)
;
    }
}


// ************************************************************************* //
