/*--------------------------------*- C++ -*----------------------------------*\
  =========                 |
  \\      /  F ield         | OpenFOAM: The Open Source CFD Toolbox
   \\    /   O peration     | Website:  https://openfoam.org
    \\  /    A nd           | Version:  7
     \\/     M anipulation  |
\*---------------------------------------------------------------------------*/
FoamFile
{
    version     2.0;
    format      ascii;
    class       volScalarField;
    location    "0.06";
    object      nut;
}
// * * * * * * * * * * * * * * * * * * * * * * * * * * * * * * * * * * * * * //

dimensions      [0 2 -1 0 0 0 0];

internalField   nonuniform List<scalar> 
815
(
0.00201587723853
0.00201985850252
0.00202705460025
0.00206889854541
0.00207274053906
0.0020791877179
0.0020967259654
0.00210079864712
0.0021079148275
0.00212192084045
0.00212652632591
0.00213519886592
0.00227243189498
0.00227606630799
0.00228335678492
0.00253586029615
0.00253638082415
0.00253710544324
0.00179561614391
0.00179142609391
0.00178119465446
0.000515379473779
0.000514258376342
0.000512245676809
0.000292938159828
0.000292846757415
0.000292805508918
0.000364810545079
0.000364729519155
0.000364551296556
0.000490535301747
0.000490221924905
0.000489460229335
0.000575041854391
0.000574502984767
0.000573279174462
0.000619050878606
0.000618438287842
0.000617089136353
0.000639572349458
0.000638925629763
0.000637540493138
0.00064544069093
0.000644834104361
0.000643568679531
0.000642303892013
0.000641740190274
0.000640594155222
0.000633128273707
0.000632618144551
0.000631618675918
0.0006196927749
0.000619241689104
0.000618396748149
0.000603099805065
0.000602697545686
0.000601989078827
0.000584069035151
0.000583702702295
0.000583105500806
0.00056303642593
0.000562704667275
0.000562214532859
0.000540536376708
0.000540216495497
0.000539787742836
0.000517008875916
0.000516703109477
0.000516334227587
0.000493051987911
0.000492755486195
0.000492437064573
0.000469385642906
0.000469097761814
0.000468817831957
0.000446734928796
0.000446457922597
0.000446214084091
0.000425676659604
0.000425413020175
0.000425200157421
0.000405475956356
0.000405236387371
0.000405069108551
0.000375861622594
0.000375682848133
0.000375639820426
0.000282221027908
0.000282165287105
0.000282416217944
0.000153774461376
0.00015370872628
0.00015377146452
0.00203388721726
0.00208441476504
0.00211452042392
0.00214467199096
0.0022921142922
0.00253748855133
0.0017669006382
0.000509517444235
0.000292801167078
0.000364449526134
0.000488461155073
0.000571594557143
0.000615229701536
0.000635692181519
0.000641901723889
0.000639144311042
0.000630399962007
0.000617414346533
0.000601219992981
0.000582516978235
0.000561787526754
0.000539482327603
0.000516126305598
0.000492306131651
0.000468741304898
0.000446180256635
0.000425205052947
0.000405131501526
0.000375858504435
0.000282915229658
0.000153945956793
0.000135528813613
0.000128300948647
0.00011896721881
0.000111374238439
0.000106543587092
0.000114779471255
0.000161303770095
0.00204125192856
0.00200884535496
0.00188686007167
0.00164386621815
0.001292184515
0.00089493065596
0.000533781951064
0.000301162061659
0.000193250520716
0.000148736054261
0.000137958714576
0.00015012593548
0.000166394606796
0.000172393368891
0.00016826425292
0.000160327745832
0.000151272717925
0.000140886064614
0.000135803016722
0.000172188528046
0.00208597476448
0.00203992635159
0.00190084368847
0.00164553009228
0.00129792258642
0.000919755650178
0.000581557507393
0.000355183646324
0.000251082052929
0.000216670386297
0.000215806042424
0.000231037263962
0.000245844925988
0.000249679997164
0.000243429639595
0.000232228066657
0.000219257953151
0.000202569979523
0.000180191187954
0.000194433537585
0.0021202683684
0.00208902991982
0.00197677488891
0.00175966627712
0.00145487330858
0.00110785073473
0.000773603599217
0.000530500939422
0.000412767327408
0.000375788153448
0.000373719496016
0.00037739943578
0.000371421837312
0.00035440508624
0.000333133435927
0.000314852947747
0.000301436689282
0.000285627239808
0.000247321244627
0.000229898666846
0.00215889461349
0.00215414789674
0.00209069465958
0.00194446594708
0.00171893253003
0.00144272074964
0.00114273567231
0.000889392364721
0.000740190898864
0.000651855339321
0.000582344836537
0.000515157153778
0.000452460864143
0.000402330419681
0.000371569889918
0.000362300135703
0.000368605752661
0.000368179342082
0.000318865505758
0.000268895563277
0.00230851782725
0.00232351674953
0.0023074769838
0.00223336263588
0.00208227967153
0.00185388694389
0.00156338353013
0.00125863276006
0.000985802513633
0.000766270269341
0.000603083234971
0.000487681164418
0.000410194915469
0.000366696576147
0.000356632172231
0.000375339656152
0.000411226429814
0.000429821374065
0.000372813360176
0.000301369958736
0.00253603724895
0.00251891975254
0.00246682657134
0.00235272194573
0.00215069725776
0.00184489659936
0.001468274507
0.00109083748653
0.00078305539567
0.000572796978323
0.000438970075062
0.000362148713612
0.000329880209952
0.000333387592944
0.000363514726344
0.000407790560403
0.000451486745134
0.000467034463152
0.000407222212884
0.000334673484698
0.00173301232872
0.00165301986265
0.00152606658249
0.00134542444471
0.0011190462044
0.000877578888341
0.000672048279599
0.000508295316141
0.000395534951678
0.000328448982069
0.000297740460087
0.000296913355156
0.000321845062304
0.000366904798883
0.000420617613753
0.000468531349032
0.000499569968176
0.000500400110543
0.000448840412295
0.000396365095242
0.000502770117906
0.00048463090684
0.000455770568953
0.00041785992513
0.000374792616621
0.000331538112805
0.000297788262662
0.000274997831126
0.000264844105159
0.000269187052212
0.000290240233698
0.000328800317042
0.000382393528172
0.000442493754196
0.00049705425852
0.000536566958465
0.000556750282888
0.000554676386572
0.000524457032598
0.000505199162653
0.000292696440413
0.000291832347225
0.000289126166914
0.000284337638272
0.000278610844602
0.000273788952453
0.000271515279022
0.000274653006038
0.000286507388814
0.000310458486516
0.000348282701449
0.000399096520954
0.00045801452333
0.000517262185202
0.00056840572873
0.000607259500285
0.000632373715439
0.000644906909066
0.000646329897862
0.000659535191466
0.000364397115093
0.000364808888016
0.000363388846537
0.00035883713435
0.000351349462726
0.000342842660375
0.000336725144929
0.000337492212431
0.000349041440271
0.000373751219209
0.000412000388872
0.000461645804882
0.00051850083235
0.000577451345688
0.00063365269763
0.00068488528781
0.000730484724203
0.000772638949131
0.000811231777945
0.000838025231817
0.000486412994104
0.000481929345304
0.000473731244632
0.000460362923216
0.000442118480965
0.000421866486529
0.000404602954889
0.000395856118072
0.000399804291895
0.000418467303381
0.000451932055868
0.000498804073831
0.000556634206379
0.000622569921273
0.000694167659074
0.000770083191091
0.000849846159344
0.000932735780495
0.00100700520001
0.00101348997769
0.000568009065031
0.000559958157485
0.000547254221488
0.000528420104327
0.000503545094482
0.00047544734975
0.000449507138775
0.000431957290618
0.000427683382413
0.000439335624645
0.000467893121287
0.000513536887381
0.000576047103434
0.000655119671773
0.000750553889791
0.000862014128022
0.000987673178042
0.00111902634921
0.00122071441204
0.00116955740162
0.000611223819882
0.000602110960493
0.000588042639555
0.000567355757178
0.000539661573572
0.000507241857328
0.000475239391388
0.000450272737954
0.000438150968516
0.000442654365334
0.000466185830368
0.000511008754598
0.000579849115501
0.000675833443595
0.000801772479577
0.000958420892251
0.00114026516906
0.00132467194407
0.00144195930141
0.00130552263847
0.000631752960662
0.000622798629986
0.000608928850953
0.000588238871208
0.000559795031622
0.000525178341407
0.000489003729938
0.000457953333489
0.000438591725041
0.000435872706762
0.000453768184679
0.000496988897785
0.000572068609808
0.000687002679077
0.000849003825114
0.00105960748186
0.00130605800868
0.00154397504418
0.00166407157699
0.0014284671359
0.000638337265588
0.000630148699749
0.000617288920845
0.000597611153836
0.000569683680615
0.000534380434671
0.000495645298846
0.000459925873865
0.000434221838395
0.00042444110326
0.000435994535666
0.000476189997811
0.000556250888382
0.000690989540141
0.000894012982432
0.00116679333832
0.00148344396793
0.00177135248365
0.00188330856751
0.00154594629842
0.000636074024699
0.000628927962375
0.000617455185643
0.00059932542563
0.000572705649396
0.000537838552079
0.000497959423215
0.000459070777948
0.000428279040604
0.000412109361529
0.000417107331518
0.000453096351466
0.000536836630956
0.000692382429605
0.000941663454681
0.00128347058528
0.00167169962425
0.00200253834727
0.00209891573511
0.0016626067198
0.00062783453474
0.00062179450578
0.000611845852646
0.000595517175848
0.000570684784591
0.000537082424942
0.000497287590193
0.000456744564302
0.000422386166531
0.000401006599171
0.000399925132024
0.000431304928956
0.000518192879415
0.000696281772295
0.000997468419037
0.00141318623935
0.00187018518586
0.00223517376358
0.00231057666635
0.00177991370357
0.000615349151751
0.000610386534092
0.000601941288824
0.000587463557341
0.000564650638075
0.000532871605579
0.000494155088539
0.000453365983972
0.000417076880468
0.000392060780105
0.000386156486784
0.000413686515404
0.000504706888977
0.000709072126167
0.00106887072072
0.00156083839849
0.00207989834291
0.00246890744737
0.00251853019916
0.00189778538008
0.000599607564764
0.000595637633016
0.000588590648223
0.000575894755476
0.000555172573418
0.000525568847431
0.000488695308146
0.00044887308374
0.000412230074489
0.000385379515933
0.000376510892139
0.000402115783752
0.000500355528691
0.000737809457298
0.00116395554645
0.00173112140062
0.0023023734387
0.00270490002132
0.00272382542846
0.0020156671995
0.000581289463565
0.000578190149283
0.000572384664625
0.000561328130719
0.000542657396014
0.000515411881549
0.000480920857737
0.000443065038579
0.000407518163958
0.000380659753062
0.000371065819479
0.000397875595609
0.000509317982353
0.000790698026833
0.00129087466742
0.00192828901506
0.00253959932357
0.00294499185995
0.00292806417107
0.00213316839373
0.000560887536468
0.000558529034096
0.000553790356121
0.000544198250337
0.0005274781699
0.000502673719767
0.000470958906332
0.000435871687071
0.000402661628399
0.000377508269831
0.000369685805994
0.000402192377233
0.000536615139231
0.000876826957865
0.00145695460997
0.00215581321233
0.0027936674272
0.00319147325999
0.00313248141518
0.00224944060346
0.000538847238664
0.000537102910994
0.00053325649073
0.000524954421762
0.000510076613281
0.000487757933223
0.000459112381746
0.000427417867506
0.000397562071329
0.000375702822042
0.000372496338591
0.000417112018318
0.00058942539928
0.00100625194159
0.00166778985923
0.00241524647922
0.00306633024688
0.00344601533578
0.00333760618416
0.00236421056811
0.000515690806823
0.000514433175133
0.000511320811973
0.000504160430103
0.000491036770399
0.00047123816305
0.000445884329663
0.000418056415952
0.000392405281188
0.000375443184979
0.000380471275591
0.000447067596372
0.000678756930874
0.00118928627791
0.00192636868266
0.00270777967262
0.00335859074693
0.00370868662525
0.00354207613879
0.00247438191472
0.000492023212235
0.000491146524886
0.000488643071207
0.000482516401403
0.000471096551916
0.000453858891025
0.000431969230272
0.000408389957692
0.000387756347177
0.000377655744786
0.000396422240365
0.000501290823367
0.000819822538799
0.00143343033249
0.0022331579799
0.00303295315607
0.00366888220122
0.00397665096746
0.00374177538447
0.00257747918996
0.000468564724815
0.000467984692675
0.000466003618084
0.000460851829955
0.000451127628556
0.000436508789102
0.000418238557111
0.000399280174716
0.00038469639926
0.000384540113525
0.000426886152483
0.000596345608849
0.00102854020073
0.00174205908982
0.00258660045363
0.00338702634668
0.00399176756021
0.00424201274037
0.00392651224476
0.00266127775138
0.000446083885498
0.000445750016792
0.000444249623546
0.00044006589257
0.000432069815738
0.00042014913635
0.00040567272244
0.000391862795223
0.000385094884677
0.000400681950744
0.000485418652152
0.000754772639903
0.00131521231932
0.00211150479273
0.00297806319174
0.00375850436437
0.00431251263275
0.00448640815865
0.0040751812766
0.00271114755194
0.000425189217401
0.000425093846073
0.000424085383775
0.000420910683116
0.000414709987019
0.000405591528026
0.000395175391229
0.000387491538011
0.000391997467134
0.00043509398774
0.000594022739627
0.000994710993866
0.00167582499553
0.00252527721275
0.00338649225128
0.00412186719641
0.00459982606196
0.00467296560104
0.00414965839124
0.00270089990569
0.000405242411399
0.000405463615178
0.00040504755508
0.000402987393973
0.000398677009367
0.00039248934312
0.000386595691031
0.000386940325329
0.000409593216937
0.000502239970279
0.000772221191539
0.00131185697539
0.00208012385902
0.00294348525165
0.00376502513415
0.00442236381486
0.004792170774
0.00473744786173
0.0040904729735
0.00258496575435
0.000376310046047
0.000377245193993
0.000377804126373
0.000377109561691
0.000374743015054
0.000371406268522
0.000370326456101
0.000381302730376
0.000433178632848
0.000602855430714
0.00100085324449
0.00164878705149
0.00245112172109
0.00327996145628
0.00401799645698
0.00455544167935
0.00477912397521
0.00456806177133
0.00379185121656
0.0022854995366
0.000284001473304
0.00028615650984
0.000287856730721
0.00028803645958
0.000286304623447
0.000283678772601
0.000284812252202
0.000305735176268
0.000395823957916
0.000655344942626
0.0011576268775
0.00185107176386
0.0026205406643
0.0033549904353
0.00395464263449
0.00432346890827
0.00436571598014
0.00398917481988
0.00312562679287
0.00176073301536
0.000154385576022
0.00015509505256
0.000155144493628
0.000153931712248
0.000151366085871
0.000148292489487
0.000147847634846
0.000161285140496
0.000231083645337
0.000469136415786
0.000959693680924
0.00160716777762
0.00227418892906
0.00285941767836
0.00327657236529
0.00345236618157
0.00332488332621
0.00286006632047
0.00207712153076
0.00111505625052
0.000158079063784
0.000104291478259
0.000171472476141
0.000116872362264
0.000189139462429
0.000133140260144
0.000207428282756
0.000157011538023
0.000200206541881
0.000191539500851
0.000163019602071
0.000294931681137
0.000142358448308
8.32908571992e-05
0.000152651109508
9.04189716061e-05
0.000176084445359
9.63666342039e-05
0.000204939100759
0.000101773122617
0.000231526612729
0.000106696387158
0.000251673678849
0.000111109463863
0.000265675025205
0.000115245388038
0.000276609050417
0.000119409875129
0.000287056138256
0.000123711201518
0.000298745459091
0.000128174654704
0.000312166513443
0.000132805442815
0.000327184833362
0.000137579268506
0.000343178478952
0.000142470933888
0.000359656873073
0.000147440701363
0.000376219436248
0.000152441456956
0.0003923909487
0.000157420254702
0.00040826165654
0.000162307276684
0.000422678680953
0.000167009578657
0.000435952574873
0.000171399048913
0.00044522254165
0.000175287374596
0.000449872363857
0.000178459630795
0.000445808541691
0.000180614553216
0.000425285733071
0.000181471454572
0.000382817107329
0.000180960796001
0.000327582591146
0.000179426789925
0.000292618601584
0.000176344420322
)
;

boundaryField
{
    inletfuel
    {
        type            calculated;
        value           nonuniform 0();
    }
    inletair
    {
        type            calculated;
        value           nonuniform 0();
    }
    outlet
    {
        type            calculated;
        value           nonuniform List<scalar> 
26
(
0.000153774461376
0.00015370872628
0.00015377146452
0.000153945956793
0.000154385576022
0.00015509505256
0.000155144493628
0.000153931712248
0.000151366085871
0.000148292489487
0.000147847634846
0.000161285140496
0.000231083645337
0.000469136415786
0.000959693680924
0.00160716777762
0.00227418892906
0.00045
0.00045
0.00045
0.00045
0.00045
0.00045
0.00045
0.00045
0.00045
)
;
    }
    axis
    {
        type            empty;
    }
    leftside
    {
        type            nutkWallFunction;
        Cmu             0.09;
        kappa           0.41;
        E               9.8;
        value           nonuniform List<scalar> 
32
(
0
0
0
0
0
0
1.30802478022e-06
2.46588488862e-06
3.42386924995e-06
4.28885502387e-06
5.07177230639e-06
5.77001255809e-06
6.41869819192e-06
7.0679896322e-06
7.73638565686e-06
8.42773710909e-06
9.14229975041e-06
9.87627962997e-06
1.06256162891e-05
1.13842590991e-05
1.21450811259e-05
1.29002530973e-05
1.36396450909e-05
1.43497704871e-05
1.50122266274e-05
1.55998056436e-05
1.6081776755e-05
1.64147101837e-05
1.65584805662e-05
1.65034270696e-05
1.63017492544e-05
1.58768075889e-05
)
;
    }
    burnerwall
    {
        type            nutkWallFunction;
        Cmu             0.09;
        kappa           0.41;
        E               9.8;
        value           nonuniform 0();
    }
    front
    {
        type            wedge;
    }
    back
    {
        type            wedge;
    }
    procBoundary1to0
    {
        type            processor;
        value           nonuniform List<scalar> 
27
(
0.00210916955921
0.00211099881592
0.00211369765803
0.00211493245134
0.000125919615711
0.000117696931182
0.000104400929482
9.5645093726e-05
9.4195788292e-05
0.000108827880185
0.000156697915011
0.00211383819766
0.00208384445464
0.00199102930965
0.00179445856062
0.00147133257643
0.00105956514552
0.000640592026203
0.000350335809852
0.000209663123697
0.000138168238876
0.000103493698286
0.000107277311981
0.000128325104942
0.000128325104942
0.000148887675936
9.41197685837e-05
)
;
    }
}


// ************************************************************************* //
