/*--------------------------------*- C++ -*----------------------------------*\
  =========                 |
  \\      /  F ield         | OpenFOAM: The Open Source CFD Toolbox
   \\    /   O peration     | Website:  https://openfoam.org
    \\  /    A nd           | Version:  7
     \\/     M anipulation  |
\*---------------------------------------------------------------------------*/
FoamFile
{
    version     2.0;
    format      ascii;
    class       volScalarField;
    location    "0.06";
    object      O2;
}
// * * * * * * * * * * * * * * * * * * * * * * * * * * * * * * * * * * * * * //

dimensions      [0 0 0 0 0 0 0];

internalField   nonuniform List<scalar> 
815
(
0.00207174943936
0.00221360197593
0.00253393098648
0.00298395891794
0.00317730488139
0.00360949429476
0.00337784918561
0.00356032541232
0.00396526306078
0.00347852812082
0.00362028957701
0.00393339097967
0.00371764063101
0.00380836456815
0.00400807872727
0.00728179381649
0.00735996125512
0.00753489930674
0.0354047519229
0.0356745967887
0.0362848864556
0.146057257401
0.146283998775
0.146704946658
0.188953057766
0.188999067955
0.189076557704
0.202923906266
0.202934441196
0.202951098533
0.208439704906
0.208443079874
0.20844792907
0.211169805941
0.211171897409
0.211174970287
0.212805167002
0.212807941666
0.212812735673
0.213946768938
0.21395034111
0.213957091275
0.214834055513
0.214838492175
0.214847307538
0.215583166259
0.215588347722
0.215598969324
0.216255590332
0.216261413624
0.216273565573
0.216884458466
0.216890990154
0.21690465065
0.217489611926
0.217496763112
0.217511734619
0.21808077531
0.2180884564
0.218104534435
0.218661261642
0.218669423888
0.218686454055
0.219232464542
0.21924086985
0.219258475985
0.21979216028
0.219800677992
0.219818578323
0.220336714634
0.220345301101
0.220363314806
0.220862852784
0.220871375471
0.220889232866
0.221365929345
0.221374300859
0.221391799324
0.2218421701
0.221850210025
0.221867011925
0.222287189798
0.222294689019
0.222310403035
0.222694736756
0.222701514714
0.222715824106
0.223052978767
0.22305918262
0.223072195979
0.22335675353
0.223362261773
0.223373805322
0.00301025511267
0.00424666900577
0.00455578500878
0.00438357507331
0.00429151374017
0.00778483205316
0.0371743454952
0.147264774709
0.189186860162
0.202974727753
0.208453459877
0.211178070022
0.212818370398
0.213965765375
0.214859066469
0.215613413866
0.216290265114
0.216923460235
0.21753236303
0.21812669225
0.218709908216
0.219282775592
0.219843344758
0.220388259506
0.220913973627
0.221416022044
0.221890270173
0.222332195482
0.222735729398
0.223090305918
0.22338989276
0.210081614087
0.211039786986
0.212912102822
0.215720711342
0.219266708047
0.222761036992
0.224800783188
0.00413548669187
0.00706684176269
0.0127235956311
0.0237647815151
0.0458455012537
0.0904097247696
0.132008493056
0.160146900125
0.176606449227
0.186655701471
0.193053853053
0.196071794767
0.196741840035
0.196877724568
0.198116602162
0.200975278555
0.205400458844
0.21113957714
0.21747783904
0.222147558335
0.00569951158351
0.00938489435752
0.0163353124375
0.0297342055231
0.0564790548331
0.0975779323667
0.131862541819
0.154588955225
0.167308418516
0.17403288899
0.177277263764
0.17799478036
0.177600053497
0.177894781473
0.180099145899
0.184523830612
0.191199006197
0.199960609846
0.210118611142
0.218850639193
0.00588633124846
0.00917575677881
0.0152409903981
0.0267820862996
0.0499876248996
0.0856774216066
0.116269182992
0.136372000831
0.146932649027
0.151622741526
0.153160867538
0.153491901685
0.154453033921
0.15701903511
0.161556649623
0.168038772009
0.176680746717
0.187992384553
0.202192746132
0.215582218
0.00539477485963
0.00780334410008
0.011995144306
0.0195077307908
0.0341466907594
0.062350533862
0.0888430036816
0.107061272737
0.117160863301
0.123385722092
0.128534184936
0.134240466744
0.140831126656
0.147799818802
0.154547783472
0.161117501047
0.16880528019
0.180096971248
0.196711208756
0.213489490338
0.00493829327337
0.00644391708685
0.0089548423106
0.0132370864404
0.0212911981018
0.0386886520676
0.060950174095
0.0805015767316
0.0970406228963
0.112080560056
0.125896310277
0.138138810825
0.148499974006
0.1567326251
0.162507042048
0.166449765589
0.170674601192
0.179161646603
0.195598172106
0.21299432126
0.00836525379445
0.00972341500263
0.0120320048141
0.0160053695317
0.0235525732502
0.0409085593385
0.0650273228884
0.0904202183017
0.114192605451
0.133951314041
0.149600033141
0.161104159609
0.168838796974
0.173435418335
0.175794960463
0.176851340786
0.178426299797
0.184298866023
0.198509124506
0.213444836221
0.0393181791165
0.0448295387196
0.0554581313934
0.0702633608311
0.0888921514005
0.109883263871
0.129120456201
0.146233628039
0.160075885209
0.170335415182
0.177399639058
0.181960202674
0.18469606946
0.186115545615
0.186569573479
0.186638610107
0.187618803021
0.192232001768
0.203111573261
0.213789863553
0.148548089136
0.151387163914
0.155551286467
0.160832669262
0.166923514795
0.173431497932
0.179184819331
0.18397455326
0.187720966536
0.190499449112
0.192418824669
0.193633635854
0.194288618172
0.19450837055
0.194510013638
0.194733473175
0.195973006264
0.199680795544
0.20705279333
0.213836488716
0.189455974877
0.190194641621
0.191290640113
0.192675806568
0.19420645434
0.195738172024
0.19712489716
0.198298500327
0.199199723531
0.199830923939
0.200206550026
0.200373782801
0.200390372504
0.200361126375
0.200460532609
0.200973613645
0.20231615407
0.205131948458
0.209761775851
0.21352091444
0.203031742949
0.203188817607
0.20342933696
0.203743902064
0.204095822733
0.204437812177
0.20472740519
0.204932408041
0.205029534264
0.205019095474
0.204924666252
0.2047879887
0.204674357959
0.204675084266
0.204911645319
0.20553356369
0.206709590136
0.208644519592
0.211272420861
0.212905003941
0.20846519824
0.208494393013
0.208539629218
0.208598815189
0.208659724374
0.20870417581
0.208710835302
0.20866060198
0.20854500884
0.208372922617
0.208172017519
0.207990101123
0.207889992219
0.207940851015
0.208209896731
0.208749580866
0.209590545324
0.210720047675
0.211912790916
0.212127700833
0.211183731301
0.211194076823
0.211208634026
0.211226104038
0.211239636855
0.211237461279
0.211204798113
0.211127325291
0.210998463369
0.210827774615
0.210643781426
0.210490964626
0.21041963699
0.210473045265
0.210673423888
0.211011867364
0.211443082275
0.211863597387
0.212026648915
0.21133153917
0.212829501971
0.212849983331
0.212877519466
0.212911245905
0.212946863108
0.212975362388
0.212983409697
0.212956626844
0.21288649181
0.21277800129
0.212652683345
0.212543985299
0.21248506178
0.212493876458
0.212559406254
0.212636472287
0.212644417228
0.212457321173
0.21187637938
0.210602701752
0.213984004624
0.214020619884
0.214071563884
0.21413668794
0.214213012092
0.214293469561
0.214366231608
0.214416386493
0.214431288555
0.214407724491
0.214355310623
0.214291655787
0.214229872577
0.214163790213
0.214058045353
0.213848990596
0.213448943268
0.212747581408
0.21162051821
0.209962361042
0.214884418392
0.214937160484
0.215011840166
0.215109273029
0.21522801903
0.215363004324
0.215504100349
0.215636130083
0.215742246682
0.21580999088
0.215834885411
0.215815967767
0.215743628644
0.215587203379
0.215292201152
0.214790369077
0.214008328574
0.212872565172
0.211331250606
0.20939096766
0.215644999176
0.215712001185
0.215807863054
0.215934387935
0.216091580713
0.216276266647
0.21648018167
0.21668850748
0.216881193248
0.217037336906
0.217138367689
0.217163559706
0.217077721091
0.216822720455
0.216328157168
0.215534584241
0.214399447056
0.212895220038
0.211026120924
0.208856404283
0.216327095384
0.216406176373
0.216520031178
0.216671249418
0.216861005001
0.217087705183
0.217344852365
0.217618455461
0.217886525752
0.218121476163
0.218292176779
0.218358247468
0.218256025532
0.217896004434
0.217194410596
0.216114043915
0.214655483938
0.212834981293
0.210694824138
0.2083266509
0.216964995722
0.217054312341
0.217183158443
0.217354704524
0.217570924217
0.217831313752
0.218130751495
0.218456174065
0.218784670125
0.219083989471
0.21931233858
0.219410598375
0.219284916864
0.218810065802
0.217893369151
0.216534454331
0.21478273136
0.212689089606
0.21031932438
0.207776551574
0.21757791903
0.217675787117
0.217816908854
0.218004751423
0.218241658554
0.218527653478
0.218858420632
0.219221658472
0.219593994022
0.219939694343
0.220208600391
0.220324388054
0.220161265869
0.219555238357
0.218414453774
0.216789637187
0.214775892241
0.212447595171
0.209882676708
0.207188596777
0.21817559766
0.21828047231
0.218431397013
0.218631849776
0.218884129498
0.219188282906
0.21954011592
0.219927420651
0.220326363171
0.220698751733
0.220987771201
0.221100640332
0.220877001631
0.220115431911
0.218743142207
0.216871116361
0.214628082294
0.212100895385
0.209372798266
0.206552010122
0.218761593385
0.218872035948
0.219030449524
0.219240089804
0.219502825962
0.219818166102
0.22018134802
0.220579633882
0.220988522275
0.221367914019
0.221654927421
0.221738978486
0.221421675404
0.220474065684
0.218867687436
0.216772392694
0.214335184483
0.211643069207
0.208782389813
0.205860549085
0.219336360477
0.219450782129
0.219614326561
0.219829731698
0.220098083784
0.220417893143
0.220783279527
0.22118044746
0.221583951739
0.221951666842
0.22221354475
0.222237066746
0.221782666396
0.220616993371
0.218782690987
0.216494629623
0.213897206329
0.211073361916
0.20811065696
0.205114379289
0.219898001406
0.220014713523
0.220180903685
0.220398550155
0.220667702067
0.220985515583
0.221344601391
0.221729763074
0.22211409629
0.222452514986
0.222664556085
0.222587825559
0.221943730904
0.220534278203
0.21849078863
0.216042941595
0.213318123303
0.210394965552
0.207360202432
0.204315529878
0.220443262518
0.220560531105
0.220726751751
0.220943058007
0.221208234413
0.221517913764
0.221862923841
0.222226301779
0.22257898926
0.222870670056
0.223003695168
0.222775200354
0.221885552797
0.220225715038
0.218002683283
0.215427687457
0.212608738155
0.209618716672
0.20654210309
0.203474351347
0.220968466923
0.221084425066
0.221247957499
0.221459289838
0.221715822636
0.222011580967
0.222335403809
0.2226681792
0.222977233423
0.223202303562
0.223217098003
0.222771791035
0.221593927953
0.219701079395
0.217333305251
0.21466530047
0.211785760399
0.208761108581
0.205671010448
0.202599751398
0.22146925725
0.221582013038
0.22174014155
0.221942895991
0.222186339229
0.222462784347
0.22275895335
0.223052727736
0.223304783494
0.223436146356
0.223276724472
0.22254611724
0.221070405456
0.218983061292
0.216510570015
0.213785982997
0.210880376125
0.207852349442
0.204773702958
0.201714424734
0.221941300697
0.222048914179
0.222198930606
0.222389633932
0.222615779815
0.222867947166
0.223130404351
0.223376169955
0.223553375907
0.223550102036
0.223144707126
0.222085492507
0.22034368518
0.218115295106
0.215580669327
0.212836177599
0.209938327875
0.206936260867
0.203888865608
0.200842879669
0.222380015564
0.222480602852
0.22261995913
0.222795460169
0.223000594606
0.223224108056
0.223446869722
0.223633528609
0.223709313533
0.223513592533
0.222799712704
0.221421556436
0.219481996009
0.217172133464
0.214620511704
0.211895189494
0.20903912236
0.20608814154
0.203075252559
0.200006187196
0.222779499536
0.222871483875
0.22299810659
0.223155910246
0.223337281417
0.223529038984
0.223707388409
0.223823448256
0.223766789631
0.223326795808
0.222292331629
0.220663990246
0.218608113202
0.216274626863
0.213749114659
0.21107686335
0.208284671202
0.205387860555
0.202383012814
0.199217837465
0.223130061611
0.223213098126
0.223326448961
0.223466080087
0.223623708632
0.223784842585
0.223921344239
0.223968070953
0.223768975019
0.2230751931
0.221770021982
0.219982308413
0.21788046734
0.215567456868
0.213096165475
0.210491582646
0.207763067167
0.204899534007
0.201855417027
0.198498285005
0.223425317208
0.223498981824
0.223598961871
0.22372106019
0.223856979546
0.223992411888
0.224098941153
0.224106628905
0.223832060916
0.22297671828
0.221483664788
0.21959507676
0.217477915868
0.215195718632
0.212774063362
0.210219479807
0.207525244
0.204657020583
0.201529552
0.197919138673
0.222921508309
0.221961391104
0.221206857932
0.22048275116
0.21925179284
0.218856902946
0.217309438047
0.217226359726
0.215740440678
0.215704888735
0.214637619149
0.214300451572
0.213680746371
0.21302074322
0.212819281861
0.21196470914
0.212054993246
0.211101920121
0.211335371284
0.210346489003
0.210606380322
0.209624348969
0.20986672839
0.208913581512
0.209145333193
0.208217629528
0.208463598516
0.207544147409
0.207822716015
0.206891313812
0.207210244182
0.206248750021
0.206607216393
0.205603438075
0.205995732317
0.204943742115
0.205361420518
0.204260409917
0.204694238542
0.203547368027
0.203988145057
0.20280114215
0.203239718057
0.202020876584
0.202450526529
0.201207894343
0.201620680036
0.200364093714
0.200757550063
0.199492413045
0.199863775189
0.198595593063
0.198950462286
0.197674450565
0.198018684608
0.196725745194
0.197065231932
0.195754989844
0.196103774247
0.194800291955
0.195198859285
0.193963961031
0.194513487381
0.193402406902
)
;

boundaryField
{
    inletfuel
    {
        type            fixedValue;
        value           nonuniform 0();
    }
    inletair
    {
        type            fixedValue;
        value           nonuniform 0();
    }
    outlet
    {
        type            zeroGradient;
    }
    axis
    {
        type            empty;
    }
    leftside
    {
        type            zeroGradient;
    }
    burnerwall
    {
        type            zeroGradient;
    }
    front
    {
        type            wedge;
    }
    back
    {
        type            wedge;
    }
    procBoundary1to0
    {
        type            processor;
        value           nonuniform List<scalar> 
27
(
0.000973489389055
0.00104086876507
0.0011952428757
0.0014289553219
0.218296233515
0.21925358384
0.220565358294
0.222347718051
0.224401272691
0.226193059934
0.226740368006
0.00200601648094
0.003604775149
0.00674979633155
0.0129250628565
0.0255556399699
0.0533411854547
0.110304486223
0.150185828269
0.174247771028
0.189795153992
0.200662586865
0.20687344383
0.209311882425
0.209311882425
0.224320845452
0.223233497169
)
;
    }
}


// ************************************************************************* //
