/*--------------------------------*- C++ -*----------------------------------*\
  =========                 |
  \\      /  F ield         | OpenFOAM: The Open Source CFD Toolbox
   \\    /   O peration     | Website:  https://openfoam.org
    \\  /    A nd           | Version:  7
     \\/     M anipulation  |
\*---------------------------------------------------------------------------*/
FoamFile
{
    version     2.0;
    format      ascii;
    class       volScalarField;
    location    "0.06";
    object      one_over_tauStar;
}
// * * * * * * * * * * * * * * * * * * * * * * * * * * * * * * * * * * * * * //

dimensions      [0 0 -1 0 0 0 0];

internalField   nonuniform List<scalar> 
815
(
307.571166906
306.476911595
303.906486292
275.854968446
275.134659487
273.535144655
252.054169644
251.718752979
250.954980796
229.823290024
229.81355103
229.788426545
218.368432226
218.54204311
218.908387443
231.277641997
231.45591327
231.808410328
225.484151797
225.516849223
225.400937312
171.484184241
171.41172396
171.278218697
110.789386564
110.791838751
110.806881322
64.6686252684
64.7006405465
64.814813579
45.370685283
45.4059549683
45.5196399149
38.1420760965
38.1809254067
38.2945527724
34.7102341522
34.7518781762
34.866083078
32.675291187
32.7149874808
32.8233513693
31.2759157531
31.3151756801
31.4216572394
30.2464635216
30.2831079684
30.3843431806
29.4430258812
29.4771168761
29.5741374263
28.7782294099
28.8101226527
28.9040882023
28.1972512191
28.2266783503
28.3172713263
27.6625483692
27.6889335405
27.7751620449
27.1412474832
27.164765665
27.2466808505
26.6191152677
26.6381419447
26.7123456077
26.0780560887
26.0923662392
26.1581986991
25.5072955852
25.5164815801
25.572732286
24.9031259728
24.9064922454
24.951497987
24.2629684126
24.2601117867
24.2927224614
23.596619794
23.5871686395
23.6059501179
22.9752788014
22.9593136686
22.9634167701
23.030663045
23.0068591249
22.9925983253
28.9043733097
28.878887316
28.8419616057
60.5524482841
60.545720521
60.4894588033
300.199424821
271.324163922
249.954623816
229.79898074
219.453455374
232.363553423
225.383166852
171.168563383
110.80074201
64.9390917809
45.684359447
38.4663236553
35.0363568606
32.9893881926
31.5850249057
30.5444670033
29.7309444084
29.0580624915
28.4679749734
27.9213373927
27.3872496199
26.8448518661
26.280450932
25.6825169859
25.0463256636
24.3706297893
23.6654266422
23.0033905377
23.0084252776
28.8138475483
60.4116614327
52.8485180211
50.0889602177
47.1228044011
43.4140749523
38.3939048895
31.7324202889
27.4367177171
292.125495897
278.136701508
262.133778438
245.719946251
229.285935661
209.404188863
178.553421363
148.646884225
127.950483403
110.031747394
90.7652002865
77.2460361157
70.3416815198
66.136681968
62.2251732997
57.6587531252
52.5730620949
46.8736276132
39.1092231519
31.2880505258
266.842990875
259.071024693
250.346199979
240.443927151
227.79158977
208.321005989
179.218570563
147.544498848
123.212388657
107.99529243
98.4470199719
91.8689168338
85.9873717908
80.1509263633
73.7155247032
66.8586840753
60.0867694276
53.7519344089
46.137980836
35.8583305827
247.993926106
245.104352005
241.79123593
236.453725763
226.887209332
209.852886058
183.616289388
155.147758719
135.175426632
124.915422151
117.508176625
109.754163716
100.870157959
91.3022129952
81.5804458226
72.2260776405
63.9741252518
57.6223991795
50.8364777581
40.119825033
229.903795624
230.897992946
232.169475093
231.594508611
226.419077995
214.773296501
195.524767259
175.021040797
158.896684144
145.139272069
131.960044217
118.865308237
105.999310866
93.5634874163
81.8813051981
71.5033062658
63.2471833648
57.9147511846
52.3294127119
43.3940790177
220.743948915
224.144589909
228.976150282
233.087048967
232.769936504
225.40062225
211.036138828
192.039214544
170.992855913
150.809665312
133.049365346
117.534437572
102.940940451
88.4826367811
75.0612045962
64.5120878239
58.1161488732
55.2489851158
51.1478175741
46.399004843
233.58051731
236.016948059
238.970604138
240.570019805
237.694907287
227.592429012
210.817513925
189.680831541
167.062430845
145.405655919
125.476022888
106.76933659
89.0181324919
73.3352290315
61.3508499502
54.0144345441
51.1331849199
50.9812628932
48.7852614577
50.6459946852
225.252743814
224.083067459
221.665498213
216.745497178
207.840593979
194.245202636
177.401697252
157.624094923
136.548187893
116.05831006
97.3265103937
80.6656652041
66.5584216882
55.8267722489
49.0409550189
45.8604102331
45.7138858219
47.1561930338
47.4495235064
55.1897852974
170.822660512
168.916477807
165.401250327
159.843343469
151.223054052
138.209231323
123.046776917
107.251371459
92.429339954
79.0006193162
67.1146055407
57.1295914113
49.4863165693
44.4562081011
41.8869860638
41.3482744038
42.4859178372
44.7005811979
47.4573281444
58.2723978158
110.608171037
108.715551824
105.41471207
100.559764114
93.9875575408
85.9315283534
77.5139435633
69.3456899688
61.7663657979
54.8587248302
48.8809320414
44.1243222532
40.8040280991
38.9327323258
38.3753107878
38.9802690443
40.6607604295
43.3782165685
47.7366444725
59.4722423271
65.0344566585
64.539990216
63.4306667498
61.6210222078
59.1196850368
56.0694911187
52.7240405332
49.2865727642
45.9105583661
42.7585197476
40.0491971885
37.9896656795
36.6926184757
36.1856449271
36.459471314
37.5282303044
39.4482850074
42.4581278522
47.4767691286
59.1769136184
45.9593975887
46.2213553577
46.2076974212
45.7766918554
44.8936357266
43.622769157
42.0912249949
40.4382990213
38.7757733647
37.2203728434
35.9084242626
34.9656424363
34.4801369606
34.5124738207
35.1218640811
36.3817356398
38.413963766
41.5209910686
46.6257099802
57.94292008
38.7858080374
39.2418265857
39.5237016456
39.4700803497
39.0302192661
38.2596515002
37.2820884381
36.2361053686
35.2218468504
34.3113619046
33.5741020418
33.0888945574
32.9393443866
33.2138435791
34.0032011763
35.3987919989
37.5208474466
40.6287106452
45.5232582514
56.281931226
35.3645468342
35.87291057
36.2516433565
36.3323320002
36.0495644403
35.4482413619
34.6541105081
33.8176670005
33.0468811314
32.3960487406
31.9004526777
31.6150971555
31.6309226469
32.0637792774
33.0245365839
34.5963226261
36.8483204415
39.9340971299
44.480563592
54.616256575
33.3189067847
33.8481724363
34.2729846425
34.4204601643
34.2120906367
33.677557671
32.9357769902
32.1470025346
31.4391774448
30.8728970588
30.4723887429
30.2848901001
30.4176235862
31.0189602781
32.2148242168
34.0524205696
36.5078194846
39.5757329619
43.7003452882
53.2440334386
31.9134748837
32.4545934379
32.9086727422
33.0978022262
32.9304735117
32.4193045634
31.6716444818
30.8525380173
30.1123408745
29.5335275283
29.1486197194
29.0128036796
29.2601922333
30.078981119
31.6014174343
33.8046650064
36.5231555782
39.5682919277
43.2462935209
52.2926112487
30.8719821324
31.4211452144
31.8937996201
32.1085032567
31.963037603
31.4537749498
30.6733141903
29.7849838878
28.9580197248
28.3044597593
27.8820263915
27.7728821894
28.1558638212
29.2680362386
31.2215056833
33.8672276975
36.8568801861
39.8454774446
43.0936690337
51.7657467393
30.0548346598
30.6068627879
31.088527316
31.3156534047
31.1784603116
30.659682491
29.8364627278
28.8645437822
27.924338237
27.1573567177
26.6586957793
26.560827024
27.1174723223
28.6155040019
31.0911671962
34.2073926698
37.4222982207
40.3063981899
43.1689832539
51.5979566684
29.3775027593
29.9269582209
30.407567915
30.6342896193
30.4930040023
29.9566324885
29.0884521976
28.0330877844
26.9740763304
26.0759995735
25.478650214
25.3914347168
26.1821069405
28.1712751035
31.2289587539
34.783948926
38.1372549766
40.8639838835
43.3990372858
51.71386387
28.7812412079
29.3216422082
29.7904551243
30.0037813825
29.8463122161
29.2851609505
28.3728461206
27.2417530654
26.0727019311
25.047303163
24.3515264944
24.2986425954
25.4132244812
27.9970555821
31.6416456743
35.5410054725
38.9272908884
41.4582950784
43.7280452371
52.0444159205
28.2254057011
28.7489440574
29.194541943
29.381300403
29.1955097411
28.6019841797
27.6462294466
26.4508791445
25.1915689423
24.061467571
23.2949169624
23.3403045622
24.9084450741
28.1604385957
32.3204669724
36.4257913736
39.7393865906
42.0549097074
44.124061699
52.542975493
27.6791332053
28.1775152231
28.5886113053
28.7361232213
28.5102172684
27.8770342454
26.8794962686
25.6340092361
24.3113623058
23.1146782812
22.3365030694
22.6027712403
24.7855439207
28.7021332911
33.2351604702
37.3903627327
40.5418819289
42.6441785325
44.5714041243
53.1772426769
27.1206150446
27.5850599952
27.9504209921
28.0468404032
27.7706053268
27.0924857392
26.0568626527
24.7779191078
23.4240247334
22.2130260212
21.5217405376
22.2045272496
25.1475991839
29.6196310681
34.3386817123
38.389958576
41.3260040454
43.2346365253
45.0694396839
53.9284249239
26.5349639359
26.9560946032
27.2652088794
27.3005786405
26.9665657441
26.2414549295
25.1747561317
23.8821707715
22.5348147457
21.3796112653
20.9297140751
22.2945151925
26.0428607326
30.8696522411
35.5704515067
39.4033526596
42.1039910366
43.8451013615
45.6319638685
54.7980604286
25.911384331
26.2805305967
26.5246826577
26.4918671767
26.096583625
25.326858695
24.2405081341
22.9590662532
21.6649584501
20.6665403988
20.6993597965
23.0190314688
27.4367775779
32.3666473248
36.8785249687
40.429368191
42.8982283426
44.5039735353
46.2788776196
55.7718899701
25.2447399021
25.5541819385
25.7269621906
25.622535716
25.1673467735
24.3610369273
23.2725465198
22.0341410363
20.8574702282
20.1794357475
21.0412786348
24.4293089014
29.2064991913
34.02155647
38.23465556
41.4802391801
43.7410326049
45.2481519879
47.0459887686
56.9055346998
24.5347267031
24.7789551718
24.8772660249
24.7026006561
24.1947063945
23.3666274983
22.3007679018
21.1489986631
20.1918833922
20.1089032916
22.1581443816
26.3896593418
31.2008263617
35.7566398927
39.6176036998
42.5733030891
44.6665890791
46.1220840947
47.9834179598
58.2220278171
23.7925890703
23.9686904949
23.9933464624
23.7549409491
23.2079665576
22.3800734197
21.3702289052
20.3693795396
19.8067722015
20.7070817893
24.0205840384
28.632832077
33.2818265994
37.5062246354
41.0225492995
43.738285533
45.7233354058
47.1950202134
49.1896602508
59.7744073522
23.0916563163
23.1980068562
23.151964098
22.8595502113
22.2913965423
21.4908171976
20.5800873726
19.8290047084
19.9352331169
22.1308813627
26.3171875645
30.9564267901
35.3551401463
39.2446748702
42.4738300099
45.0286188444
46.998842788
48.6031360623
50.8474246024
61.7710414319
23.0487504499
23.0694639981
22.9402402694
22.5913256845
22.0124409184
21.2628711592
20.4923997391
20.0867266323
21.0329110219
24.2738687845
28.7660668799
33.2857936661
37.4405950228
41.0685377598
44.1242965135
46.6509817744
48.7713144996
50.730599434
53.5311526436
65.2033142444
28.7582158253
28.5887119741
28.2758346365
27.8074830014
27.2045263062
26.5261519384
25.8649837527
25.4587220616
26.0549276268
28.5274313826
32.3202804263
36.4020465784
40.2369352141
43.6546714683
46.6589759162
49.3310378897
51.8596438007
54.5919315303
58.6755671153
72.28067246
60.2343475816
59.8398580977
59.3795018895
58.9451066953
58.5880443437
58.2847184786
57.7470260756
55.9642736683
51.0884022373
45.1961262223
43.2997410542
44.5783710396
46.985382931
49.7041896852
52.5608422091
55.5870450262
59.0570521227
63.6301616836
71.0102544552
89.747898886
40.5264060493
56.8796164704
41.6860418949
56.9442076633
43.6661986164
57.0146191176
47.6968134235
57.0847939225
58.3728397754
57.1505674448
84.4483506013
57.2217686533
115.249997161
266.999329655
131.995748743
289.915978493
139.957719617
309.109503913
142.956598327
326.593506901
144.209922741
342.541552237
145.749474985
356.860258174
148.000448598
370.154799602
150.832450849
383.456748443
154.174720663
397.2016613
157.842292026
411.467318039
161.739775968
426.269886766
165.828405092
441.530427499
170.15738262
457.163541476
174.739159332
473.045511637
179.531604165
489.023057689
184.539219747
504.925949554
189.607659014
520.530633125
194.857218118
535.539157421
199.926114932
549.541332065
205.20693827
561.932711771
210.312129943
572.025945214
214.943119662
578.857181977
219.959006034
581.532419682
226.583399408
579.817221355
234.59455905
574.865975776
238.01225335
564.982978717
)
;

boundaryField
{
    inletfuel
    {
        type            calculated;
        value           nonuniform 0();
    }
    inletair
    {
        type            calculated;
        value           nonuniform 0();
    }
    outlet
    {
        type            calculated;
        value           nonuniform List<scalar> 
26
(
60.5524482841
60.545720521
60.4894588033
60.4116614327
60.2343475816
59.8398580977
59.3795018895
58.9451066953
58.5880443437
58.2847184786
57.7470260756
55.9642736683
51.0884022373
45.1961262223
43.2997410542
44.5783710396
46.985382931
200
200
200
200
200
200
200
200
200
)
;
    }
    axis
    {
        type            empty;
    }
    leftside
    {
        type            calculated;
        value           nonuniform List<scalar> 
32
(
56.8796164704
56.9442076633
57.0146191176
57.0847939225
57.1505674448
57.2217686533
266.999329655
289.915978493
309.109503913
326.593506901
342.541552237
356.860258174
370.154799602
383.456748443
397.2016613
411.467318039
426.269886766
441.530427499
457.163541476
473.045511637
489.023057689
504.925949554
520.530633125
535.539157421
549.541332065
561.932711771
572.025945214
578.857181977
581.532419682
579.817221355
574.865975776
564.982978717
)
;
    }
    burnerwall
    {
        type            calculated;
        value           nonuniform 0();
    }
    front
    {
        type            wedge;
    }
    back
    {
        type            wedge;
    }
    procBoundary1to0
    {
        type            processor;
        value           nonuniform List<scalar> 
27
(
377.999087153
376.846492064
373.590820423
368.262822869
42.2399736008
38.7750297688
36.6663085071
33.9732806861
30.1083130336
25.5004714936
24.6924147256
354.479893264
325.458546555
295.549111259
265.214621798
237.422773086
214.050970853
186.496892312
158.761905025
143.264571736
127.662241509
101.777019104
73.470810648
58.2618096747
58.2618096747
39.7787645015
56.8237828287
)
;
    }
}


// ************************************************************************* //
