/*--------------------------------*- C++ -*----------------------------------*\
  =========                 |
  \\      /  F ield         | OpenFOAM: The Open Source CFD Toolbox
   \\    /   O peration     | Website:  https://openfoam.org
    \\  /    A nd           | Version:  7
     \\/     M anipulation  |
\*---------------------------------------------------------------------------*/
FoamFile
{
    version     2.0;
    format      ascii;
    class       volScalarField;
    location    "0.06";
    object      p;
}
// * * * * * * * * * * * * * * * * * * * * * * * * * * * * * * * * * * * * * //

dimensions      [1 -1 -2 0 0 0 0];

internalField   nonuniform List<scalar> 
815
(
97710.2708575
97710.2722445
97710.2602875
97714.7763284
97714.7870402
97714.7799303
97718.9875844
97719.000192
97718.9933977
97723.9452941
97723.950903
97723.9444885
97728.8142412
97728.8024944
97728.8008458
97736.5225258
97736.5071095
97736.4883657
97740.7455994
97740.7184365
97740.730005
97760.4045749
97760.3954308
97760.3824517
97776.0170278
97776.0293913
97776.052103
97806.8196242
97806.8207961
97806.8204684
97838.4625975
97838.4717267
97838.4860416
97879.2152743
97879.2057191
97879.1657754
97927.4679724
97927.4793432
97927.5053702
97984.9835747
97984.9859506
97984.98224
98051.4616112
98051.464594
98051.4647254
98128.6833802
98128.6860956
98128.6869177
98217.9693087
98217.9712964
98217.9715132
98320.0690613
98320.0712486
98320.0720886
98436.3092366
98436.3120656
98436.3143072
98568.0025907
98568.0059677
98568.0096149
98716.1081727
98716.1120923
98716.1171353
98881.3365931
98881.340723
98881.3460002
99064.0550426
99064.0595487
99064.0659211
99264.1388866
99264.1446918
99264.1535581
99482.2584438
99482.2653875
99482.2765589
99719.3924424
99719.3993922
99719.4098798
99975.6786438
99975.6850965
99975.6942139
100249.760953
100249.762701
100249.761827
100535.405265
100535.407233
100535.408384
100835.885453
100835.894206
100835.91119
101156.008459
101156.011882
101156.01841
97710.242528
97714.7666049
97718.9823627
97723.9324813
97728.7902876
97736.479446
97740.734338
97760.361821
97776.0828792
97806.8197144
97838.5024975
97879.1210315
97927.5409973
97984.9762917
98051.4648983
98128.688088
98217.9722305
98320.0736254
98436.3177927
98568.0151579
98716.1244324
98881.3537524
99064.0755214
99264.1665968
99482.2927413
99719.4248006
99975.706943
100249.760786
100535.410723
100835.934484
101156.027373
97704.2039184
97703.6614609
97703.080494
97702.7906732
97701.624053
97700.493439
97699.8358248
97710.201067
97710.1225391
97710.0260925
97709.9050827
97709.8025258
97709.7119185
97709.5506867
97709.3510066
97709.0929642
97709.0798007
97708.6911192
97708.5638275
97708.22633
97707.8859902
97707.3726938
97706.7690301
97705.987083
97705.7360131
97704.6175781
97703.7896288
97714.7406319
97714.7088281
97714.6453599
97714.5288855
97714.4558014
97714.3038783
97714.168231
97714.0664289
97713.9386687
97713.6404192
97713.4360076
97713.1418227
97712.79573
97712.4147036
97711.8322322
97711.1679599
97710.539353
97710.0457923
97708.9604894
97708.2756215
97718.9536453
97718.9270478
97718.8516349
97718.8335381
97718.7707002
97718.6417122
97718.4670412
97718.2778221
97717.9415515
97717.803001
97717.5387268
97717.4539355
97717.2253321
97717.0578881
97716.7521645
97716.3235792
97715.850969
97715.1622332
97714.6766189
97713.8685618
97723.9098877
97723.8887297
97723.8566264
97723.8416143
97723.778721
97723.8003784
97723.6116534
97723.4690504
97723.3446095
97723.2336906
97723.0073601
97722.7188206
97722.4264971
97722.1903097
97721.7631228
97721.1695081
97720.6975228
97720.1221896
97719.6709054
97719.2405235
97728.7689573
97728.7438221
97728.7179631
97728.6583881
97728.6417288
97728.5677964
97728.4774254
97728.3341853
97728.0038323
97727.8748256
97727.8641033
97727.9613901
97727.795386
97727.4900994
97727.4346223
97727.4387841
97727.2840878
97727.0230432
97726.9996238
97726.7003837
97736.4224488
97736.3190851
97736.0991813
97735.8478157
97735.4907606
97735.0823094
97734.7199374
97734.9294249
97735.2331554
97735.3854942
97735.5400912
97735.4670178
97735.332662
97735.3849997
97735.2885743
97735.1851237
97735.1269883
97734.9763158
97734.6519972
97735.0872586
97740.775401
97740.8299168
97740.9590511
97741.1806997
97741.8040586
97742.5321136
97742.9075591
97743.3214039
97743.5283139
97744.0599994
97744.3808711
97744.7550548
97745.2806012
97745.6761762
97746.1480938
97746.5959617
97747.0724045
97747.3492487
97748.5487491
97748.5640447
97760.3113785
97760.1845364
97760.0075425
97759.7676358
97759.5286976
97759.3005049
97759.3432596
97759.4039098
97759.6726093
97759.7360623
97760.0567292
97760.5542358
97761.0361193
97761.4237815
97761.7191025
97761.9585773
97762.175299
97762.7512361
97763.8269841
97764.9555008
97776.1491936
97776.2950135
97776.5082336
97776.8040406
97777.1856847
97777.6596757
97778.1638948
97778.6613331
97779.0716263
97779.3626754
97779.8918936
97780.4717552
97781.1674589
97781.8138423
97782.3786319
97782.9034572
97783.5819431
97784.5128143
97785.5778885
97786.5133402
97806.8199499
97806.8211976
97806.8101217
97806.7809292
97806.7173672
97806.6025835
97806.4093888
97806.1018614
97806.4412002
97807.0757812
97807.578416
97807.9818489
97808.3182377
97808.6649946
97809.0571691
97809.6064825
97810.3581419
97811.6386908
97812.6572756
97813.9985156
97838.5351758
97838.5868675
97838.6332175
97838.6564506
97838.6436918
97838.5326329
97838.8065708
97839.3439937
97839.5218392
97839.8261324
97840.2492605
97840.6827674
97841.0962667
97841.5073291
97842.0041697
97842.7218916
97843.6189223
97844.9802388
97846.1874713
97847.4296436
97879.040169
97878.9325723
97878.8733179
97878.8745537
97879.1265646
97879.5919476
97879.8193749
97880.0609015
97880.2893564
97880.5121148
97880.7569645
97881.0373683
97881.3768613
97881.7982321
97882.4061791
97883.2317369
97884.2574896
97885.6436506
97886.9581878
97888.023011
97927.6132793
97927.7578889
97927.9199199
97928.1080364
97928.1790706
97928.2386951
97928.3093521
97928.3947083
97928.5020931
97928.6493164
97928.8564618
97929.1534396
97929.5521481
97930.0900058
97930.8441411
97931.7984602
97932.9824169
97934.4493551
97935.8092816
97936.7766385
97984.9642193
97984.9499216
97984.945231
97984.9562172
97984.9826853
97985.0247074
97985.0823635
97985.1609024
97985.2712378
97985.4307259
97985.6621546
97985.9925341
97986.4553573
97987.096921
97987.9785025
97989.0783388
97990.4390239
97991.8857498
97993.2538998
97994.2240612
98051.4656557
98051.4684162
98051.4736352
98051.4843346
98051.503632
98051.536658
98051.5901394
98051.6741922
98051.8029905
98051.9963241
98052.2799876
98052.6864014
98053.2531973
98054.028212
98055.0348626
98056.2668545
98057.7425808
98059.4171058
98061.0035557
98062.3091855
98128.6905413
98128.6968297
98128.7069215
98128.7244065
98128.7529141
98128.7985425
98128.8693018
98128.9765837
98129.1354917
98129.3663743
98129.6950257
98130.1557012
98130.7949078
98131.6651488
98132.7844852
98134.1665868
98135.811678
98137.5237324
98138.9369126
98140.0748784
98217.9744887
98217.9820832
98217.9949389
98218.0164139
98218.0502531
98218.1026787
98218.1821355
98218.3014807
98218.4783394
98218.7387637
98219.1175202
98219.6617543
98220.4319171
98221.4588118
98222.7514533
98224.2709537
98225.9358195
98227.5758843
98228.930079
98229.9827286
98320.0776129
98320.0891902
98320.1082858
98320.1392849
98320.1873394
98320.2609824
98320.3719363
98320.537426
98320.7801299
98321.1305769
98321.624511
98322.3046558
98323.2116017
98324.3503798
98325.7599173
98327.4819286
98329.4518372
98331.3696413
98332.5211173
98333.4203592
98436.3261283
98436.347529
98436.3817785
98436.4347018
98436.513263
98436.6279133
98436.7922805
98437.024991
98437.3492521
98437.7959696
98438.4036085
98439.2238905
98440.3045351
98441.6662811
98443.3142321
98445.1597317
98446.9388293
98448.5148777
98449.9703921
98450.9703793
98568.0283308
98568.0608589
98568.1116471
98568.1869097
98568.2939581
98568.4433774
98568.649213
98568.9317085
98569.3184855
98569.8489986
98570.5740578
98571.5452726
98572.7744497
98574.2262014
98575.8678672
98577.6866179
98579.5634046
98581.3071445
98582.5869394
98583.5280044
98716.1412794
98716.1814269
98716.2433721
98716.3346088
98716.4639645
98716.6444005
98716.8934088
98717.2351983
98717.7015119
98718.3314525
98719.1649095
98720.22441
98721.4947348
98722.9466689
98724.6435557
98726.4796292
98728.2546788
98729.7894447
98730.9626782
98731.7804399
98881.3714968
98881.4145251
98881.4815367
98881.581647
98881.7256873
98881.9293699
98882.2131202
98882.602655
98883.1285523
98883.8227801
98884.7151387
98885.8205709
98887.1414747
98888.6883101
98890.4486655
98892.1546673
98893.7837828
98895.1562383
98896.1291309
98896.7720972
99064.0981377
99064.1531353
99064.2385606
99064.3640456
99064.5406309
99064.7827012
99065.1076698
99065.5355877
99066.0906462
99066.800693
99067.6981197
99068.8055967
99070.1422532
99071.6843331
99073.2610625
99074.8125458
99076.2822793
99077.5149929
99078.3657955
99078.868532
99264.1967991
99264.2681448
99264.3777462
99264.536686
99264.757692
99265.0567765
99265.4537802
99265.971323
99266.6349668
99267.4674582
99268.4764735
99269.6442117
99270.958942
99272.3878815
99273.9484058
99275.5254868
99276.6710286
99277.6076876
99278.3779451
99278.9094094
99482.3299836
99482.4167718
99482.5496002
99482.7412896
99483.0056511
99483.3588508
99483.818351
99484.4011582
99485.1223911
99485.9935015
99487.0201213
99488.2331236
99489.5852123
99490.9704952
99492.108708
99493.707241
99495.0129565
99495.8307064
99496.328741
99496.6797202
99719.4588686
99719.537854
99719.6589974
99719.8354304
99720.0815132
99720.415965
99720.8610911
99721.4440085
99722.1946391
99723.1368241
99724.2594188
99725.4606552
99726.6781757
99728.0103899
99729.6531072
99730.2290926
99730.9896172
99731.8154062
99732.3168554
99732.5178799
99975.7357355
99975.801841
99975.9026117
99976.0486489
99976.2513332
99976.524956
99976.8860276
99977.3534414
99977.9480924
99978.6772435
99979.5337308
99980.4849271
99981.5825338
99982.520146
99983.3833486
99984.0949439
99984.42967
99984.7329597
99984.9403763
99985.094034
100249.758618
100249.756895
100249.755826
100249.760263
100249.774979
100249.809983
100249.878994
100250.004485
100250.21663
100250.530241
100250.924863
100251.432233
100251.978315
100252.619604
100252.866102
100253.255083
100253.640678
100253.916474
100254.018881
100254.204242
100535.416743
100535.434191
100535.461984
100535.506084
100535.571642
100535.667566
100535.802488
100535.990751
100536.237338
100536.531847
100536.873068
100537.293243
100537.743936
100538.116126
100538.293015
100538.46636
100538.745452
100539.115632
100539.28029
100539.54993
100835.987005
100836.100121
100836.26509
100836.487758
100836.769989
100837.109179
100837.494844
100837.916594
100838.345828
100838.785481
100839.213848
100839.652183
100839.980892
100840.165647
100840.433244
100840.740575
100840.957067
100841.313245
100841.466831
100841.769044
101156.047605
101156.092079
101156.158112
101156.252908
101156.381321
101156.552399
101156.770261
101157.039551
101157.348124
101157.708934
101158.041029
101158.366658
101158.560085
101158.823802
101159.073622
101159.415601
101159.539269
101159.703613
101159.66087
101159.812332
97699.6098493
97699.6070319
97703.4597427
97703.4336932
97708.0106927
97707.9729618
97713.6581264
97713.6077746
97719.2018148
97719.1685457
97726.6177951
97726.609445
97735.3330073
97735.3700664
97748.6380948
97748.6360999
97765.0971932
97765.1169555
97786.6235276
97786.635697
97813.999055
97814.0299539
97847.5976519
97847.7052445
97887.9110715
97887.8312322
97936.850518
97936.8652924
97994.1886585
97994.1856176
98062.3297758
98062.3625182
98140.095714
98140.1213169
98230.0235544
98230.0472181
98333.4214991
98333.4403502
98450.9834114
98451.0004659
98583.5309534
98583.5492687
98731.7597042
98731.7703342
98896.7473073
98896.7533744
99078.8064335
99078.8078055
99278.8734511
99278.8752532
99496.5799588
99496.5826876
99732.396451
99732.3797362
99984.9152846
99984.9095262
100254.031484
100254.020364
100539.325632
100539.334804
100841.461003
100841.506168
101159.763001
101159.834157
)
;

boundaryField
{
    inletfuel
    {
        type            zeroGradient;
    }
    inletair
    {
        type            zeroGradient;
    }
    outlet
    {
        type            fixedValue;
        value           uniform 101325;
    }
    axis
    {
        type            empty;
    }
    leftside
    {
        type            zeroGradient;
    }
    burnerwall
    {
        type            zeroGradient;
    }
    front
    {
        type            wedge;
    }
    back
    {
        type            wedge;
    }
    procBoundary1to0
    {
        type            processor;
        value           nonuniform List<scalar> 
27
(
97707.3667109
97707.3545204
97707.3452341
97707.3292155
97701.6363773
97701.2638517
97700.4086421
97699.5536084
97698.4946923
97697.5883338
97696.8648357
97707.2786028
97707.1342524
97706.9679861
97706.6960473
97706.5420094
97705.7868557
97705.6674759
97705.3359373
97705.6610011
97705.2766799
97705.5218805
97704.9980339
97704.7010255
97704.7010255
97696.6255444
97696.6244426
)
;
    }
}


// ************************************************************************* //
