/*--------------------------------*- C++ -*----------------------------------*\
  =========                 |
  \\      /  F ield         | OpenFOAM: The Open Source CFD Toolbox
   \\    /   O peration     | Website:  https://openfoam.org
    \\  /    A nd           | Version:  7
     \\/     M anipulation  |
\*---------------------------------------------------------------------------*/
FoamFile
{
    version     2.0;
    format      ascii;
    class       volScalarField;
    location    "0.06";
    object      PaSR<psiReactionThermo>:kappa;
}
// * * * * * * * * * * * * * * * * * * * * * * * * * * * * * * * * * * * * * //

dimensions      [0 0 0 0 0 0 0];

internalField   nonuniform List<scalar> 
815
(
1.9800736772e-12
1.97157335669e-12
1.95456743606e-12
1.77169756841e-12
1.76706802208e-12
1.75661307516e-12
1.61822500298e-12
1.61558754371e-12
1.61083648427e-12
1.47332253193e-12
1.47369005677e-12
1.47395967733e-12
1.41065685544e-12
1.41145286412e-12
1.41424195755e-12
1.51215120571e-12
1.51341149822e-12
1.51572316473e-12
1.43875523009e-12
1.43818276431e-12
1.43693724444e-12
1.04777065643e-12
1.04749326733e-12
1.04682880758e-12
6.97317466101e-13
6.97313009474e-13
6.97532121255e-13
4.3566763859e-13
4.35906506929e-13
4.36681553148e-13
3.16418751745e-13
3.16658512771e-13
3.17431785536e-13
2.69573729655e-13
2.6984148801e-13
2.70624595427e-13
2.46763554291e-13
2.47056574319e-13
2.47852917296e-13
2.33015103022e-13
2.33290211358e-13
2.34049887928e-13
2.23408746859e-13
2.23686676334e-13
2.24438047496e-13
2.16272112776e-13
2.16528317612e-13
2.17245178075e-13
2.10639834261e-13
2.10880764088e-13
2.11570494108e-13
2.05937901438e-13
2.06164589105e-13
2.06834935346e-13
2.01793487737e-13
2.02003589173e-13
2.02651833596e-13
1.97949073785e-13
1.98138097833e-13
1.98756575676e-13
1.94173211675e-13
1.94342837799e-13
1.94931816961e-13
1.9037249921e-13
1.90508669312e-13
1.91043071345e-13
1.86414786018e-13
1.86517832079e-13
1.86992877358e-13
1.82230761958e-13
1.82297188732e-13
1.82704087088e-13
1.77800117462e-13
1.77825114163e-13
1.7815181261e-13
1.73112790688e-13
1.73093441319e-13
1.73331736317e-13
1.68246964068e-13
1.68180282156e-13
1.68319739177e-13
1.63698657893e-13
1.63585248152e-13
1.63619994368e-13
1.63795496476e-13
1.63625874761e-13
1.63531327039e-13
2.03244981079e-13
2.03070806751e-13
2.028314208e-13
4.10187775825e-13
4.10139505894e-13
4.0980562357e-13
1.92935347992e-12
1.74214587567e-12
1.60420324918e-12
1.47463562742e-12
1.41794726845e-12
1.519426536e-12
1.43581908783e-12
1.04644013268e-12
6.97701598632e-13
4.3755603014e-13
3.18554084465e-13
2.71810808837e-13
2.49041845937e-13
2.35215835674e-13
2.25593130228e-13
2.1838135232e-13
2.12687760609e-13
2.0793579852e-13
2.03732422864e-13
1.9980722683e-13
1.9594454437e-13
1.91999126881e-13
1.87876663183e-13
1.83499387427e-13
1.78840474032e-13
1.7389958364e-13
1.68755807558e-13
1.63916846204e-13
1.63657986716e-13
2.02667152257e-13
4.09362296664e-13
3.26568365388e-13
3.08635601247e-13
2.90576000196e-13
2.70326035521e-13
2.4380113724e-13
2.08447611941e-13
1.88090963485e-13
1.87516259078e-12
1.77865706536e-12
1.66337876647e-12
1.53901734511e-12
1.41313468863e-12
1.28921357308e-12
1.08516709876e-12
8.72859099534e-13
7.26329956381e-13
6.16101412354e-13
5.14567330219e-13
4.5022441714e-13
4.17741581254e-13
3.94812776314e-13
3.72055321496e-13
3.47076398339e-13
3.2125019291e-13
2.93115566361e-13
2.53123007119e-13
2.12863128529e-13
1.71203409326e-12
1.65695086321e-12
1.59038598905e-12
1.51156057067e-12
1.42026484787e-12
1.30124177081e-12
1.10436249778e-12
8.79242221079e-13
7.11842176817e-13
6.1755526231e-13
5.66629659253e-13
5.34888516559e-13
5.04270712704e-13
4.71247105293e-13
4.34738850685e-13
3.97689078127e-13
3.63731048837e-13
3.34099245815e-13
2.96621562294e-13
2.42689414466e-13
1.59115219885e-12
1.56964103994e-12
1.54098953534e-12
1.49541745656e-12
1.42778447108e-12
1.32510436359e-12
1.14942670004e-12
9.47832980639e-13
8.06951212148e-13
7.38576374863e-13
6.93968883482e-13
6.47885243694e-13
5.94009168975e-13
5.36175797087e-13
4.79520189192e-13
4.28300298807e-13
3.86853744459e-13
3.58967214773e-13
3.27851987935e-13
2.71633468452e-13
1.47593229583e-12
1.48175142757e-12
1.48623764507e-12
1.47536359556e-12
1.43581962603e-12
1.36854358123e-12
1.24352678642e-12
1.09848256337e-12
9.8245332016e-13
8.86345479227e-13
7.96659621769e-13
7.09497626748e-13
6.26507453283e-13
5.49976310786e-13
4.82394168384e-13
4.26575760436e-13
3.86149327521e-13
3.64746702698e-13
3.40878262323e-13
2.95380009509e-13
1.42700912222e-12
1.44975726927e-12
1.48038177335e-12
1.50387987899e-12
1.49663121565e-12
1.44877331534e-12
1.35384839774e-12
1.2201305078e-12
1.06919774091e-12
9.26060121697e-13
8.03612313099e-13
7.00981670112e-13
6.09512277353e-13
5.24299133322e-13
4.49422217621e-13
3.93412376586e-13
3.62855734682e-13
3.54270541094e-13
3.3782438148e-13
3.18331750929e-13
1.52718084232e-12
1.54208433732e-12
1.55858063764e-12
1.56312769353e-12
1.53470334395e-12
1.46101028274e-12
1.34230625152e-12
1.19136253522e-12
1.03162030084e-12
8.83878511728e-13
7.54342759144e-13
6.39488984664e-13
5.36433217364e-13
4.48695827493e-13
3.82743701773e-13
3.43025989645e-13
3.29772867977e-13
3.34493287709e-13
3.27886658475e-13
3.50869738409e-13
1.43320956101e-12
1.42257376347e-12
1.40453866403e-12
1.36862920866e-12
1.30499138464e-12
1.2101632764e-12
1.0946699192e-12
9.626242135e-13
8.27386512377e-13
7.01829664513e-13
5.92145160011e-13
4.97988435357e-13
4.19396305901e-13
3.59281040393e-13
3.20921035027e-13
3.03391835678e-13
3.04768631095e-13
3.17648096614e-13
3.25607051634e-13
3.86961490208e-13
1.04478227308e-12
1.0335397642e-12
1.01193308543e-12
9.7718922672e-13
9.23537456335e-13
8.43762176459e-13
7.52212751795e-13
6.58270425374e-13
5.71723647912e-13
4.9483940524e-13
4.27628533975e-13
3.71104526058e-13
3.27378348576e-13
2.98370678793e-13
2.83894153901e-13
2.82014099238e-13
2.91261764608e-13
3.08775686014e-13
3.32175450959e-13
4.13734443616e-13
6.97070247429e-13
6.86691674765e-13
6.67632866303e-13
6.38685294205e-13
5.9872038225e-13
5.49296593131e-13
4.97536763089e-13
4.47673011943e-13
4.02025001775e-13
3.61007967919e-13
3.25800705581e-13
2.97883629934e-13
2.78555803257e-13
2.68114133577e-13
2.65983341946e-13
2.71552656349e-13
2.84658894938e-13
3.05656325454e-13
3.39447000674e-13
4.26511494688e-13
4.38289279119e-13
4.35248274188e-13
4.27981589769e-13
4.15768424769e-13
3.98640200412e-13
3.77700664494e-13
3.54944946672e-13
3.32088896629e-13
3.10329153468e-13
2.90645741472e-13
2.74211113969e-13
2.62128185195e-13
2.55024779733e-13
2.53110742575e-13
2.5643657738e-13
2.65286307649e-13
2.80260158e-13
3.03328035071e-13
3.41265178812e-13
4.27246039308e-13
3.20418893026e-13
3.22125935419e-13
3.21781216089e-13
3.18326011619e-13
3.11503783561e-13
3.01858617554e-13
2.90494199217e-13
2.78655504291e-13
2.67311482803e-13
2.57272795012e-13
2.49322957361e-13
2.44132327965e-13
2.42170247698e-13
2.43806036924e-13
2.49476534419e-13
2.59766333518e-13
2.75626682739e-13
2.99313443767e-13
3.37470741208e-13
4.20072693429e-13
2.74005790233e-13
2.77076172729e-13
2.78807457657e-13
2.78009010481e-13
2.74298885281e-13
2.68115339545e-13
2.60473859958e-13
2.52566840887e-13
2.45298117491e-13
2.39258401535e-13
2.34883657166e-13
2.32598008698e-13
2.32853947068e-13
2.36181656832e-13
2.43183070288e-13
2.54504883849e-13
2.7102106681e-13
2.94601548772e-13
3.30952223133e-13
4.09079617772e-13
2.5132457542e-13
2.54813149853e-13
2.57293661619e-13
2.57525585362e-13
2.55014198382e-13
2.50095529248e-13
2.43754050322e-13
2.3722559936e-13
2.3146962396e-13
2.2700718216e-13
2.24116214648e-13
2.23114772118e-13
2.24520124223e-13
2.29025336903e-13
2.37324071641e-13
2.49956105986e-13
2.67389911111e-13
2.90701696096e-13
3.24324282332e-13
3.97652566388e-13
2.37527126784e-13
2.41205359296e-13
2.44070164924e-13
2.44848821526e-13
2.42947439009e-13
2.38576902346e-13
2.32643096882e-13
2.26418275558e-13
2.20992759702e-13
2.16963785962e-13
2.14595776972e-13
2.14213437218e-13
2.16470126331e-13
2.22259660237e-13
2.32329280394e-13
2.46916188147e-13
2.65794628244e-13
2.88881411737e-13
3.19291483153e-13
3.88152285051e-13
2.27912328528e-13
2.31708045914e-13
2.34827950842e-13
2.35963234036e-13
2.34423764613e-13
2.3028804491e-13
2.24358813162e-13
2.17915227819e-13
2.1218898707e-13
2.07944862653e-13
2.05555736861e-13
2.05470611832e-13
2.08573435004e-13
2.16017837412e-13
2.28532995622e-13
2.45802433798e-13
2.6656063109e-13
2.89399877049e-13
3.16451345133e-13
3.81608887266e-13
2.20705911163e-13
2.24585817519e-13
2.27876492702e-13
2.29244116857e-13
2.27920220609e-13
2.23860629325e-13
2.17748583173e-13
2.10829362883e-13
2.04448219508e-13
1.99576633468e-13
1.96797951556e-13
1.96822451299e-13
2.00917779377e-13
2.10576553481e-13
2.26302759611e-13
2.46810891436e-13
2.69505654406e-13
2.91860072153e-13
3.15699400616e-13
3.78097544103e-13
2.1499614011e-13
2.18918271797e-13
2.22305037609e-13
2.23803335103e-13
2.22589958745e-13
2.18519435388e-13
2.12155302168e-13
2.04672434974e-13
1.97475487514e-13
1.91731908171e-13
1.88303184709e-13
1.88320262805e-13
1.93673268454e-13
2.06218443107e-13
2.25816266e-13
2.49757018844e-13
2.74048417699e-13
2.95574064177e-13
3.16539554441e-13
3.77162255076e-13
2.10220498583e-13
2.14142250451e-13
2.17547875913e-13
2.19078556119e-13
2.17880202497e-13
2.13735457146e-13
2.071032243e-13
1.99067579871e-13
1.91038257242e-13
1.84328959609e-13
1.80117267368e-13
1.80129132583e-13
1.87169398311e-13
2.03360771222e-13
2.27250811017e-13
2.54373596418e-13
2.79619658972e-13
2.999335409e-13
3.18459716528e-13
3.78262573622e-13
2.05979615167e-13
2.09851519578e-13
2.13194675062e-13
2.1465908487e-13
2.13382933331e-13
2.09107151195e-13
2.02210966686e-13
1.93683483511e-13
1.84901789797e-13
1.77283921415e-13
1.72326229398e-13
1.7252572344e-13
1.81908418718e-13
2.02491168533e-13
2.30680161794e-13
2.60270472859e-13
2.85692645195e-13
3.04517057276e-13
3.2106598993e-13
3.80900961311e-13
2.0199387904e-13
2.05757291019e-13
2.08952260667e-13
2.10251028897e-13
2.08804485844e-13
2.04338027778e-13
1.97179981241e-13
1.88245451362e-13
1.78864945554e-13
1.7052475245e-13
1.65055040382e-13
1.6593883548e-13
1.78626564058e-13
2.0412646195e-13
2.36050602969e-13
2.67070988231e-13
2.91890190821e-13
3.09083462093e-13
3.2413422545e-13
3.84741230802e-13
1.98048270007e-13
2.01641391949e-13
2.04603830827e-13
2.05641681235e-13
2.03935249696e-13
1.99221211598e-13
1.9181017459e-13
1.82570549244e-13
1.72791341605e-13
1.64019371375e-13
1.58493973223e-13
1.6099112317e-13
1.78195609369e-13
2.08570553494e-13
2.43140348225e-13
2.74428467324e-13
2.97987472899e-13
3.13569731543e-13
3.27555944552e-13
3.89550712855e-13
1.93990556376e-13
1.97348315081e-13
1.99994606573e-13
2.00682816995e-13
1.98639174212e-13
1.93635947395e-13
1.85995866431e-13
1.76570485594e-13
1.66626459891e-13
1.57809523227e-13
1.52963902781e-13
1.58539364512e-13
1.81377357357e-13
2.15796075382e-13
2.5159824459e-13
2.82016150268e-13
3.03925233917e-13
3.1804392368e-13
3.31331092421e-13
3.95195221561e-13
1.89718105036e-13
1.92771292022e-13
1.9502340135e-13
1.95287505495e-13
1.9285016715e-13
1.87540358711e-13
1.79719651223e-13
1.70249997441e-13
1.60414269671e-13
1.52065114026e-13
1.49038313065e-13
1.59680001122e-13
1.88531995557e-13
2.25465303103e-13
2.60972054103e-13
2.89679917601e-13
3.09797126238e-13
3.22647764145e-13
3.35563496297e-13
4.0168499117e-13
1.85158566608e-13
1.87843422206e-13
1.89636705343e-13
1.89423317467e-13
1.86565259375e-13
1.80964408169e-13
1.73043926381e-13
1.6370736862e-13
1.54317301637e-13
1.47172713193e-13
1.47740720683e-13
1.65521050498e-13
1.99397236491e-13
2.36924257252e-13
2.70874987182e-13
2.97412632181e-13
3.15770065134e-13
3.27592009455e-13
3.40400354054e-13
4.08915462398e-13
1.80282344551e-13
1.82542205052e-13
1.83829185866e-13
1.83112355103e-13
1.79842445978e-13
1.74007604844e-13
1.66112609895e-13
1.57138287648e-13
1.486594021e-13
1.43915180524e-13
1.50643961587e-13
1.76493485262e-13
2.13031473507e-13
2.4949868099e-13
2.81097738241e-13
3.05305250489e-13
3.22082915413e-13
3.33148208097e-13
3.46102814908e-13
4.17280403227e-13
1.75096109957e-13
1.76890660227e-13
1.77648224068e-13
1.76437211949e-13
1.72806951206e-13
1.66844472034e-13
1.59152883577e-13
1.50855894718e-13
1.44033006472e-13
1.43706335097e-13
1.5930956287e-13
1.9161070156e-13
2.28268873471e-13
2.62606266134e-13
2.91482914912e-13
3.1348499289e-13
3.2898619518e-13
3.39640614424e-13
3.5303266618e-13
4.26931708048e-13
1.69688151044e-13
1.70996259703e-13
1.71230009657e-13
1.69571457599e-13
1.65678788222e-13
1.59746372195e-13
1.52498677465e-13
1.45346831625e-13
1.41462629652e-13
1.4843778921e-13
1.73612442347e-13
2.0882266585e-13
2.44054344909e-13
2.75759371422e-13
3.01993163176e-13
3.22167909136e-13
3.36831745189e-13
3.47570718454e-13
3.61899032147e-13
4.38218624925e-13
1.64571656706e-13
1.65382871135e-13
1.65115334616e-13
1.63080206202e-13
1.590541878e-13
1.53346778791e-13
1.46855076895e-13
1.41573466279e-13
1.42656032914e-13
1.59334518598e-13
1.91222883941e-13
2.2652369947e-13
2.59674410959e-13
2.88765314425e-13
3.12801637436e-13
3.31738895473e-13
3.46252565551e-13
3.57923264721e-13
3.74013722196e-13
4.52573887922e-13
1.63975715735e-13
1.6418659637e-13
1.63339514627e-13
1.60919182846e-13
1.56840425385e-13
1.51531068148e-13
1.46099054776e-13
1.43413868043e-13
1.50823660088e-13
1.75556205967e-13
2.09854124977e-13
2.44084574902e-13
2.75261505184e-13
3.02321752444e-13
3.25016803161e-13
3.43698419115e-13
3.59267715865e-13
3.73479189406e-13
3.93508945094e-13
4.76982577243e-13
2.02347204464e-13
2.01295497321e-13
1.99236720475e-13
1.96045345493e-13
1.91851027141e-13
1.87096491139e-13
1.8256304243e-13
1.80319117999e-13
1.86338281633e-13
2.06682900024e-13
2.36201000633e-13
2.67160432617e-13
2.95905033027e-13
3.21359196634e-13
3.43624984047e-13
3.6332010361e-13
3.81811444998e-13
4.01554912473e-13
4.30639259896e-13
5.2679204227e-13
4.08357682247e-13
4.06039616227e-13
4.03195710431e-13
4.00313474767e-13
3.97700139392e-13
3.95335228644e-13
3.9189499858e-13
3.82515772858e-13
3.5716276032e-13
3.24774820669e-13
3.15595954682e-13
3.26717579867e-13
3.45166146157e-13
3.65522000353e-13
3.86667074483e-13
4.08862591028e-13
4.34058388521e-13
4.66857096707e-13
5.18900893901e-13
6.48198433396e-13
2.74355504576e-13
3.66151085076e-13
2.82064838013e-13
3.68821078754e-13
2.95590995e-13
3.7213184334e-13
3.23135278733e-13
3.76972690425e-13
3.92589929233e-13
3.83225839916e-13
5.5612806447e-13
3.95913010971e-13
7.47769338523e-13
1.60818387592e-12
8.6401764568e-13
1.77452180887e-12
9.30819703248e-13
1.91683871165e-12
9.64770011805e-13
2.04693333385e-12
9.83171899658e-13
2.1649377861e-12
9.99787398364e-13
2.27007495808e-12
1.01882566216e-12
2.36708230704e-12
1.04080859533e-12
2.46362312083e-12
1.06604654842e-12
2.56293243062e-12
1.09374152605e-12
2.66563932595e-12
1.12328458372e-12
2.77188577823e-12
1.15436581065e-12
2.88111186403e-12
1.1871398904e-12
2.99272123561e-12
1.22162292054e-12
3.10582004373e-12
1.25742632581e-12
3.21931564114e-12
1.29454706995e-12
3.33198096978e-12
1.3319128956e-12
3.44222167444e-12
1.37023413869e-12
3.5479102538e-12
1.40702658652e-12
3.64614996946e-12
1.44465990474e-12
3.73262274589e-12
1.48033418445e-12
3.80253947206e-12
1.51126663982e-12
3.84923392233e-12
1.54196221956e-12
3.86668239232e-12
1.57856929357e-12
3.85354910974e-12
1.61837038889e-12
3.81789673077e-12
1.62906447747e-12
3.74611665712e-12
)
;

boundaryField
{
    inletfuel
    {
        type            calculated;
        value           nonuniform 0();
    }
    inletair
    {
        type            calculated;
        value           nonuniform 0();
    }
    outlet
    {
        type            calculated;
        value           uniform 0;
    }
    axis
    {
        type            empty;
    }
    leftside
    {
        type            calculated;
        value           uniform 0;
    }
    burnerwall
    {
        type            calculated;
        value           nonuniform 0();
    }
    front
    {
        type            wedge;
    }
    back
    {
        type            wedge;
    }
    procBoundary1to0
    {
        type            processor;
        value           uniform 0;
    }
}


// ************************************************************************* //
