/*--------------------------------*- C++ -*----------------------------------*\
  =========                 |
  \\      /  F ield         | OpenFOAM: The Open Source CFD Toolbox
   \\    /   O peration     | Website:  https://openfoam.org
    \\  /    A nd           | Version:  7
     \\/     M anipulation  |
\*---------------------------------------------------------------------------*/
FoamFile
{
    version     2.0;
    format      ascii;
    class       surfaceScalarField;
    location    "0.06";
    object      phi;
}
// * * * * * * * * * * * * * * * * * * * * * * * * * * * * * * * * * * * * * //

dimensions      [1 0 -1 0 0 0 0];

internalField   nonuniform List<scalar> 
1572
(
-1.16773203922e-09
2.55354482115e-09
-4.64263076326e-09
7.17766771137e-09
1.09573082104e-08
-1.09954403375e-08
-3.93490845079e-09
6.0760849224e-09
-1.58111159543e-08
1.78063693258e-08
2.88683971354e-08
-3.58399829208e-08
-4.2888723416e-09
9.99980899387e-09
-1.71164964428e-08
2.95135106463e-08
4.84046190075e-08
-3.85442708328e-08
-3.03571129229e-09
1.27246027671e-08
-1.23836345725e-08
3.79306213517e-08
6.22866213105e-08
-2.78235141369e-08
4.89020017645e-10
1.20775227606e-08
1.45494258044e-09
3.64647317161e-08
5.99207873369e-08
3.01137491711e-09
5.69710984838e-09
6.56737963492e-09
2.27604231274e-08
2.00292667378e-08
3.27560642309e-08
5.09265047076e-08
1.09664779492e-08
-3.68596829434e-09
4.42717827479e-08
-1.12262932529e-08
-1.91556281236e-08
9.96200745532e-08
7.53511894732e-09
-1.52546684498e-08
3.06906124822e-08
-4.65738086621e-08
-7.80635398561e-08
6.91460437073e-08
-1.50563978339e-09
-1.69133810713e-08
-6.27319004031e-09
-5.14981329259e-08
-8.58407490717e-08
-1.48039481643e-08
-5.84656847292e-09
-1.31307402484e-08
-2.35749582019e-08
-3.99883587137e-08
-6.64308974863e-08
-5.33266356822e-08
-6.76084166846e-09
-7.85643762493e-09
-2.70385973946e-08
-2.41738450756e-08
-4.01383646001e-08
-6.07595483415e-08
-6.11966310952e-09
-3.09486386267e-09
-2.44673395696e-08
-9.85102202486e-09
-1.63297641785e-08
-5.50123163819e-08
-5.20475390476e-09
5.77827480577e-10
-2.07636364912e-08
1.17999271607e-09
1.96557651013e-09
-4.6608810518e-08
-4.37757067293e-09
3.16237860897e-09
-1.72821413825e-08
8.68654168955e-09
1.43744609718e-08
-3.86563193086e-08
-3.76366743595e-09
4.87808628393e-09
-1.48852645367e-08
1.37015018249e-08
2.26607512056e-08
-3.33249594633e-08
-3.28818769715e-09
5.86919223252e-09
-1.31036955789e-08
1.65900007047e-08
2.73993627884e-08
-2.93828221966e-08
-3.03601333524e-09
6.27666891919e-09
-1.19873242685e-08
1.7649478149e-08
2.9108684536e-08
-2.68395949767e-08
-2.8990876053e-09
6.21347620694e-09
-1.1442175398e-08
1.73106875067e-08
2.85016484008e-08
-2.56268144992e-08
-2.9162427587e-09
5.83564532633e-09
-1.14975990537e-08
1.6024077541e-08
2.63235149742e-08
-2.57598911594e-08
-3.10406640659e-09
5.30975643305e-09
-1.21918501395e-08
1.42402901917e-08
2.33283136152e-08
-2.7308517703e-08
-3.32177243783e-09
4.68583418732e-09
-1.32330189677e-08
1.23428590238e-08
2.01519786075e-08
-2.97309827175e-08
-3.6992880808e-09
4.17641429269e-09
-1.47537622951e-08
1.07775395277e-08
1.75209002145e-08
-3.31608552604e-08
-4.1824321498e-09
3.9324110983e-09
-1.65994896523e-08
9.91433294769e-09
1.60684094625e-08
-3.72992557149e-08
-4.69453552463e-09
4.02277000361e-09
-1.86248645686e-08
1.00902719735e-08
1.63527725441e-08
-4.18431773048e-08
-5.21667557754e-09
4.61051553844e-09
-2.07217955432e-08
1.17520049408e-08
1.91157387744e-08
-4.65784642655e-08
-5.76381687274e-09
5.823334493e-09
-2.29344352214e-08
1.53222021134e-08
2.50615474322e-08
-5.15512153871e-08
-6.28058139447e-09
7.78208647365e-09
-2.50377291288e-08
2.11674334993e-08
3.4797434887e-08
-5.62763775279e-08
-6.47363123723e-09
1.06342927411e-08
-2.59076151685e-08
2.9744981455e-08
4.90931979622e-08
-5.83001223461e-08
-5.96539276543e-09
1.41633247561e-08
-2.40234360899e-08
4.03169785298e-08
6.68145682488e-08
-5.43395984663e-08
-5.23680034192e-09
1.76008789097e-08
-2.12140422366e-08
5.09992811834e-08
8.49562299581e-08
-4.81537465706e-08
-2.67726012397e-09
-1.1419197844e-08
-2.62346703138e-08
1.16912499895e-08
-1.9599870093e-08
3.36277039063e-08
-6.03588180142e-08
5.69393254984e-08
-6.41892885987e-08
7.38943887281e-08
-4.66396573392e-08
7.12195221098e-08
4.68421617942e-09
3.8232265251e-08
8.5265883314e-08
-2.35104394861e-08
1.65432533447e-07
-9.36276280657e-08
1.14689342598e-07
-1.02138938358e-07
-2.59625159509e-08
-7.84645630637e-08
-8.93877414915e-08
-4.70543564518e-08
-1.01060045691e-07
-1.85713238124e-08
-9.15520432111e-08
3.15258046658e-09
-7.73384902282e-08
1.8015671186e-08
-6.42388716011e-08
2.79425768412e-08
-5.53774079103e-08
3.36390955395e-08
-4.89123988643e-08
3.56692771757e-08
-4.4610872687e-08
3.49451025599e-08
-4.26151621083e-08
3.23430203548e-08
-4.28460549453e-08
2.87504764174e-08
-4.54086992716e-08
2.50009184088e-08
-4.95465604994e-08
2.18798991394e-08
-5.52614426867e-08
2.01257009029e-08
-6.21178460507e-08
2.04583550474e-08
-6.96592804145e-08
2.37538153585e-08
-7.75666958718e-08
3.08537661318e-08
-8.58341924491e-08
4.24863331177e-08
-9.36895406407e-08
5.96004715534e-08
-9.71410535425e-08
8.07737015818e-08
-9.07501462833e-08
1.02567550088e-07
-8.04558169427e-08
-4.41123884813e-08
-4.24077879912e-07
1.65715437451e-05
1.46593591508e-06
1.96019905034e-05
3.26741357082e-06
2.45720468785e-05
4.83556217051e-06
3.19547099308e-05
5.08868738266e-06
4.33532664783e-05
4.11311743712e-06
5.73411731669e-05
7.18889974871e-05
1.70123639128e-06
-5.95224447884e-08
3.33804235691e-08
-1.44128722659e-07
3.22406252521e-08
-3.00612730724e-07
2.59627221935e-08
-5.71170102397e-07
4.05242788481e-08
-1.0308104349e-06
1.60341539084e-07
-1.83608008738e-06
6.0938923399e-07
-2.96229941387e-06
1.58885760914e-06
-4.17121808807e-06
3.00066162872e-06
-5.09336044693e-06
4.49714135762e-06
-4.82429969793e-06
5.83525150555e-06
-3.81219821628e-06
7.19026467583e-06
-2.2887922114e-06
8.24799082262e-06
-4.90063142228e-07
9.20876156242e-06
1.49152598823e-06
1.05069805734e-05
3.54030112411e-06
1.27168367437e-05
5.69724027878e-06
1.65935232922e-05
7.89764277918e-06
2.27609876626e-05
8.56614271406e-06
3.44143991895e-05
7.24490539095e-06
5.03378584295e-05
6.99601258547e-05
2.72170130025e-06
-1.54031223764e-07
1.16985180089e-07
-3.10345558931e-07
1.70626328952e-07
-5.51544392733e-07
2.34803414814e-07
-9.26315584584e-07
3.47602691704e-07
-1.54153795965e-06
5.88843685337e-07
-2.40175389891e-06
1.16196560799e-06
-3.25691047705e-06
2.04503603285e-06
-3.70939677348e-06
2.97259702224e-06
-3.41619375327e-06
3.54184667508e-06
-2.65019559696e-06
4.06099882861e-06
-1.37876410723e-06
4.40499004296e-06
2.41410345446e-07
4.62105796347e-06
2.13462782998e-06
4.94543287037e-06
4.18994213347e-06
5.73961145291e-06
6.37752767617e-06
7.39743656064e-06
8.64486888308e-06
1.05518512564e-05
1.04788925232e-05
1.62738452873e-05
1.15908223615e-05
2.71472825294e-05
9.98396785682e-06
4.49804225024e-05
7.06427114396e-05
3.91158494537e-06
-1.59607454273e-07
2.03354492721e-07
-3.12159347656e-07
3.07347384187e-07
-5.40220423705e-07
4.3462344579e-07
-8.43697604362e-07
5.93296101061e-07
-1.25305770344e-06
8.45641986563e-07
-1.6595929957e-06
1.32240051213e-06
-1.87424113378e-06
1.91223727808e-06
-1.55425374255e-06
2.1715893104e-06
-9.34903606633e-07
2.26776998659e-06
7.20239992767e-08
2.18359492913e-06
1.47073717002e-06
1.9515076027e-06
3.16870442713e-06
1.75826797567e-06
5.09768451742e-06
1.81012657729e-06
7.19340693038e-06
2.41023876916e-06
9.37328736322e-06
3.89913442084e-06
1.14590553809e-05
6.88178140661e-06
1.31409653232e-05
1.24170028956e-05
1.37219647594e-05
2.32734886137e-05
1.192190957e-05
4.27074624571e-05
7.52542816048e-05
4.55514234607e-06
-1.17298611049e-07
2.67039679305e-07
-2.27380519491e-07
4.0605059701e-07
-3.72771651971e-07
5.62279775631e-07
-5.30857772979e-07
7.20012910169e-07
-6.48491979734e-07
8.83180406534e-07
-5.12505936742e-07
1.04973839591e-06
-1.94897260441e-08
1.20912206725e-06
6.26915266907e-07
1.17127936796e-06
1.57593112385e-06
8.90896820194e-07
2.84258869002e-06
4.84423967683e-07
4.39390246957e-06
4.59617511755e-08
6.16590260129e-06
-2.31220132462e-07
8.06869538464e-06
-1.44225952963e-07
9.78828594418e-06
7.79662321005e-07
1.11492492264e-05
2.63991615063e-06
1.22006048068e-05
5.73459148353e-06
1.27604418797e-05
1.12933260833e-05
1.2771528287e-05
2.1994424676e-05
1.04921761841e-05
4.3708516178e-05
8.21673982584e-05
3.60206203711e-06
8.59087891568e-09
2.59518842567e-07
2.33090079546e-08
3.86119235533e-07
7.32554110316e-08
5.06177144231e-07
1.93414882447e-07
5.93855564863e-07
4.46976590409e-07
6.23441455525e-07
9.02419407593e-07
5.8911822431e-07
1.64402067424e-06
4.65891220101e-07
2.7194034151e-06
1.2405569332e-07
4.06255637197e-06
-3.51514630989e-07
5.56759956489e-06
-8.32911161522e-07
7.09560088597e-06
-1.21967392757e-06
8.61395486161e-06
-1.43093631461e-06
9.75651163462e-06
-7.94964328487e-07
1.05560265776e-05
6.11692500023e-07
1.10512325987e-05
2.70693697026e-06
1.10845086117e-05
6.10813567689e-06
1.06173994129e-05
1.19542538664e-05
9.36098217669e-06
2.33048981427e-05
7.0501247466e-06
4.69406356934e-05
8.98672176003e-05
1.3434895768e-06
2.14881529075e-07
1.35138578469e-07
4.24189913829e-07
1.8746669084e-07
7.3664833963e-07
2.14226059669e-07
1.19708975796e-06
1.75556008034e-07
1.89492585965e-06
1.51183599065e-08
2.84190592904e-06
-1.76061979846e-07
4.03676805263e-06
-4.33472393433e-07
5.38658451489e-06
-8.14252848134e-07
6.96063076099e-06
-1.45441367012e-06
8.44518200825e-06
-1.71244094583e-06
9.51260988591e-06
-1.50574131148e-06
9.69196059508e-06
-7.482776197e-07
9.13789469847e-06
4.23812655873e-07
8.17780862935e-06
1.94382600228e-06
7.0158042688e-06
4.20984911158e-06
5.93994018002e-06
7.61385553879e-06
5.04209005615e-06
1.35155895083e-05
3.75052208395e-06
2.58031891051e-05
6.6497433545e-07
5.26715753562e-05
9.37580191048e-05
-2.01702757248e-06
4.08131835366e-07
-9.13887106875e-08
7.8868374565e-07
-1.58496867305e-07
1.31403843727e-06
-2.60209741986e-07
1.96602941505e-06
-4.16695189234e-07
2.68180297442e-06
-6.58501056913e-07
3.67582095101e-06
-1.1166237151e-06
4.79348475931e-06
-1.4234418207e-06
5.83050197315e-06
-1.53711952246e-06
6.25732204583e-06
-1.41187354808e-06
6.04761354002e-06
-1.02656279882e-06
5.26195028275e-06
-3.42269947671e-07
4.16080233244e-06
4.92922057484e-07
2.91446898989e-06
1.66763470851e-06
1.58910454986e-06
3.34780200361e-06
2.65714728586e-07
5.77665045548e-06
-1.08246020848e-06
9.49560071707e-06
-2.5726207837e-06
1.59709702019e-05
-4.63135652556e-06
2.94323773169e-05
-6.41714339379e-06
5.71518202081e-05
9.18011386926e-05
-3.6882723417e-06
2.79600024255e-07
-3.4779472282e-07
5.28352350545e-07
-5.44984314344e-07
8.5838827976e-07
-7.71318530044e-07
1.24017307963e-06
-1.01137119237e-06
1.58911544896e-06
-1.2265838673e-06
1.63589009718e-06
-1.3448251408e-06
1.39591667131e-06
-1.35676535452e-06
9.11823615325e-07
-1.22781488362e-06
2.49104787041e-07
-9.30925549677e-07
-5.75287370998e-07
-3.99400620466e-07
-1.48274497762e-06
3.30127847732e-07
-2.5157043343e-06
1.32489907323e-06
-3.69408149303e-06
2.75448661169e-06
-5.05288863468e-06
4.74573360674e-06
-6.65752203872e-06
7.5934424722e-06
-8.57929410534e-06
1.18829493038e-05
-1.09297740168e-05
1.91132793521e-05
-1.36169333391e-05
3.33054010779e-05
-1.27884984954e-05
5.84626855023e-05
8.35362285745e-05
-4.58153603305e-06
-7.39190243981e-08
-3.72743491855e-07
-1.66062757377e-07
-5.63786861901e-07
-3.28995721854e-07
-7.5991241923e-07
-5.94266361317e-07
-9.36668919139e-07
-9.81400480382e-07
-1.06413274621e-06
-1.46574606852e-06
-1.10849227223e-06
-2.04908105298e-06
-1.03240019941e-06
-2.73645111615e-06
-7.95210831855e-07
-3.56579177318e-06
-3.41178749373e-07
-4.5049912625e-06
2.82488281213e-07
-5.57214503527e-06
1.13819035714e-06
-6.82297610799e-06
2.3798431617e-06
-8.29272791199e-06
4.09668544333e-06
-1.00523486185e-05
6.45459534765e-06
-1.21614653969e-05
9.75891606333e-06
-1.46636507742e-05
1.46027136947e-05
-1.75453529288e-05
2.23998194708e-05
-1.98938520214e-05
3.62914344571e-05
-1.67129650077e-05
5.63682119541e-05
7.03365176104e-05
-4.78792340219e-06
-2.25059651549e-07
-2.82403060673e-07
-4.41470021876e-07
-4.16913172191e-07
-7.54580528709e-07
-5.42505411869e-07
-1.17794316785e-06
-6.34662491679e-07
-1.7219968519e-06
-6.63833936273e-07
-2.39638702036e-06
-5.94810020626e-07
-3.21036399235e-06
-3.89084408966e-07
-4.19079814122e-06
8.86452213406e-09
-5.24469326757e-06
4.87924083449e-07
-6.45412313427e-06
1.2484599353e-06
-7.88335378337e-06
2.33502088864e-06
-9.56023228968e-06
3.83058772344e-06
-1.15348102106e-05
5.84957209985e-06
-1.38699807379e-05
8.57687904889e-06
-1.65955405807e-05
1.22941401831e-05
-1.96609533078e-05
1.75217983475e-05
-2.25346161556e-05
2.51739855293e-05
-2.33327593756e-05
3.70639579336e-05
-1.78848366592e-05
5.07199806888e-05
5.44440823383e-05
-4.42985405151e-06
-2.50554719918e-07
-1.65549768472e-07
-4.86177412397e-07
-2.31712120097e-07
-8.24054571094e-07
-2.74933021716e-07
-1.27935648959e-06
-2.70543348666e-07
-1.86910424264e-06
-1.85948862204e-07
-2.60996044191e-06
1.32170233909e-08
-3.46491234702e-06
2.93394753639e-07
-4.43356074162e-06
7.59639572323e-07
-5.62387028157e-06
1.44916002634e-06
-7.03218760382e-06
2.41818283929e-06
-8.69435167796e-06
3.74218731648e-06
-1.06609160302e-05
5.51248413879e-06
-1.29941377334e-05
7.85542353386e-06
-1.57245369123e-05
1.09292383814e-05
-1.87990142681e-05
1.49372867413e-05
-2.19621045156e-05
2.01927712379e-05
-2.43858368531e-05
2.70062664012e-05
-2.38497305214e-05
3.57575843294e-05
-1.70588196531e-05
4.2519580297e-05
3.80968114512e-05
-4.04727251753e-06
-2.27331829635e-07
-5.94971974663e-08
-4.43224813052e-07
-6.29049333184e-08
-7.59582210072e-07
-2.72347442296e-08
-1.17588071676e-06
5.24312822047e-08
-1.70256872953e-06
2.15935390629e-07
-2.35096659765e-06
5.00266261956e-07
-3.18584426945e-06
9.42118328026e-07
-4.21987506528e-06
1.58337786863e-06
-5.48088909881e-06
2.47323508721e-06
-7.00474348314e-06
3.67371447528e-06
-8.83458999357e-06
5.26303664546e-06
-1.10211246691e-05
7.33362951179e-06
-1.36045980213e-05
9.99783479322e-06
-1.65595540821e-05
1.33478814961e-05
-1.97286589307e-05
1.74515464353e-05
-2.26275105101e-05
2.22800016315e-05
-2.4282286887e-05
2.76061712275e-05
-2.24615750694e-05
3.24659221604e-05
-1.51288660675e-05
3.28157176286e-05
2.25640231419e-05
-3.55841332765e-06
-1.90455500453e-07
1.99001746501e-08
-3.66558451341e-07
5.97159423939e-08
-6.14021200265e-07
1.43352042776e-07
-9.64622988616e-07
2.96837973361e-07
-1.43793422077e-06
5.52571003829e-07
-2.05508681933e-06
9.48358062812e-07
-2.84282722614e-06
1.52655192451e-06
-3.83270478748e-06
2.33378282837e-06
-5.06151494019e-06
3.42352107674e-06
-6.57157835882e-06
4.86041885948e-06
-8.41054297873e-06
6.7223538061e-06
-1.0627130805e-05
9.09567662491e-06
-1.32336397807e-05
1.20500272405e-05
-1.61572540929e-05
1.55857691743e-05
-1.91445383059e-05
1.95778480751e-05
-2.16023383179e-05
2.36299288655e-05
-2.24776134636e-05
2.6998619769e-05
-1.99571284358e-05
2.78578329386e-05
-1.29300907261e-05
2.26952634193e-05
8.25421749498e-06
-3.10557690904e-06
-1.59133338026e-07
7.52654918321e-08
-3.10869227497e-07
1.49334529545e-07
-5.33308217904e-07
2.76766102881e-07
-8.43450763101e-07
4.86515924357e-07
-1.26220293319e-06
8.14876914985e-07
-1.8152721487e-06
1.30472784132e-06
-2.53366722115e-06
2.00421053258e-06
-3.45359233524e-06
2.96557296268e-06
-4.6162271958e-06
4.24661466588e-06
-6.06733888438e-06
5.91366578137e-06
-7.85483427143e-06
8.0409310543e-06
-1.00147405509e-05
1.06948979631e-05
-1.25345505516e-05
1.38874726137e-05
-1.52916448478e-05
1.74971564381e-05
-1.79521840864e-05
2.11673062798e-05
-1.98686898453e-05
2.41480028014e-05
-2.00105486492e-05
2.52516804167e-05
-1.70269624141e-05
2.22420503741e-05
-1.07295438974e-05
1.26984068262e-05
-4.85916929695e-06
-2.69626876231e-06
-1.37131882871e-07
1.12185119968e-07
-2.67890016227e-07
2.09312167919e-07
-4.60256906941e-07
3.67056472529e-07
-7.30019611876e-07
6.17083608984e-07
-1.09701330875e-06
9.99424214825e-07
-1.58617132645e-06
1.56203602531e-06
-2.2283935587e-06
2.35935032885e-06
-3.06093485531e-06
3.45039289645e-06
-4.1265497603e-06
4.89813447265e-06
-5.47164156298e-06
6.77020497319e-06
-7.14106502279e-06
9.1338851793e-06
-9.16057759666e-06
1.20282288649e-05
-1.14988296548e-05
1.53969186357e-05
-1.39927111702e-05
1.89703600532e-05
-1.62545990867e-05
2.21375205766e-05
-1.76311786138e-05
2.38317965351e-05
-1.72067712899e-05
2.25373040578e-05
-1.43372317189e-05
1.62205109118e-05
-9.04754112823e-06
3.13285983013e-06
-1.71714226193e-05
-2.23538510053e-06
-1.21372682701e-07
1.33402511172e-07
-2.37344668124e-07
2.44181020385e-07
-4.08184477379e-07
4.20509588851e-07
-6.48325678033e-07
6.96342499634e-07
-9.76177107672e-07
1.11501142542e-06
-1.41533545183e-06
1.72920888181e-06
-1.99553313345e-06
2.5994658681e-06
-2.75310031488e-06
3.79165107429e-06
-3.72986742953e-06
5.3742205972e-06
-4.9702666453e-06
7.41584329003e-06
-6.51458492038e-06
9.97524034432e-06
-8.37987127575e-06
1.30602389156e-05
-1.05159258173e-05
1.65346086601e-05
-1.27235957606e-05
1.99570732742e-05
-1.45795620131e-05
2.24500058858e-05
-1.54610772619e-05
2.26903463092e-05
-1.46959156448e-05
1.90583360812e-05
-1.19970306603e-05
9.88163884836e-06
-7.45940522628e-06
-6.17077321632e-06
-2.88564888479e-05
-1.92568094493e-06
-1.10647020658e-07
1.41091028488e-07
-2.16374587566e-07
2.57397737563e-07
-3.72129023302e-07
4.42032437116e-07
-5.91092382064e-07
7.30672621422e-07
-8.9006544957e-07
1.16921996866e-06
-1.290697076e-06
1.81423911775e-06
-1.82043274965e-06
2.73147760849e-06
-2.51316694865e-06
3.99294699117e-06
-3.40813572815e-06
5.67215452697e-06
-4.54677200218e-06
7.83856739081e-06
-5.96456425799e-06
1.05412342566e-05
-7.67002270141e-06
1.37544442218e-05
-9.59407343416e-06
1.72524851814e-05
-1.15034203249e-05
2.04042305198e-05
-1.29549406679e-05
2.20705811547e-05
-1.34049420631e-05
2.07679366697e-05
-1.24105275876e-05
1.49314010618e-05
-9.95394494596e-06
3.28405102867e-06
-6.22201471833e-06
-1.5250935298e-05
-4.00924056428e-05
-1.65954985324e-06
-1.05848915704e-07
1.38629162468e-07
-2.07055520779e-07
2.54278634019e-07
-3.55989656996e-07
4.39243091471e-07
-5.64973941628e-07
7.30293810617e-07
-8.49595932643e-07
1.17507227131e-06
-1.22975139769e-06
1.83284394936e-06
-1.73058022432e-06
2.77321062802e-06
-2.38315749613e-06
4.07290716779e-06
-3.22341727457e-06
5.8092627537e-06
-4.28856770297e-06
8.05168536043e-06
-5.60701568296e-06
1.08379620784e-05
-7.17494558449e-06
1.41067357297e-05
-8.89708234922e-06
1.7533078598e-05
-1.05048171709e-05
2.02823854923e-05
-1.15522509591e-05
2.09660454564e-05
-1.16125864436e-05
1.80473520464e-05
-1.04778607391e-05
1.01692546593e-05
-8.20379381457e-06
-3.6327404463e-06
-5.07027361255e-06
-2.42340961043e-05
-5.11042238211e-05
-1.3788291259e-06
-1.06503641814e-07
1.29202460476e-07
-2.08297184368e-07
2.39838279375e-07
-3.57850161723e-07
4.19374361557e-07
-5.67097218463e-07
7.05057187577e-07
-8.50882915246e-07
1.14539664073e-06
-1.22773850278e-06
1.80107266461e-06
-1.72060962053e-06
2.74383803347e-06
-2.35729237433e-06
4.053099131e-06
-3.1692208709e-06
5.80782103721e-06
-4.1874656689e-06
8.07499503223e-06
-5.43197846995e-06
1.08791170105e-05
-6.88539734432e-06
1.41204127643e-05
-8.42260053906e-06
1.7363865249e-05
-9.73689820936e-06
1.95642237604e-05
-1.04009354306e-05
1.913537534e-05
-1.01235212531e-05
1.46160054683e-05
-8.90066318357e-06
4.92606069695e-06
-6.86673942813e-06
-1.07648650373e-05
-4.15392270526e-06
-3.32746534069e-05
-6.19778593943e-05
-1.13368558644e-06
-1.1284403545e-07
1.16088146429e-07
-2.20521657964e-07
2.19266918958e-07
-3.78314748642e-07
3.89951645178e-07
-5.98228095107e-07
6.65330565635e-07
-8.94794159325e-07
1.09395211917e-06
-1.28558557786e-06
1.73664143332e-06
-1.79158972002e-06
2.66544332681e-06
-2.43719471729e-06
3.95979080064e-06
-3.24895703241e-06
5.6973356026e-06
-4.25140253599e-06
7.93958786377e-06
-5.45461930434e-06
1.06947626827e-05
-6.81998397578e-06
1.38190608306e-05
-8.17368075373e-06
1.67531711048e-05
-9.15477402767e-06
1.82375920541e-05
-9.39448531355e-06
1.65755622781e-05
-8.82043903216e-06
1.05232532313e-05
-7.62885463279e-06
-7.29355944682e-07
-5.71873358251e-06
-1.81919312658e-05
-3.42555163948e-06
-4.23579142611e-05
-7.2788463292e-05
-9.44312518842e-07
-1.23338510724e-07
1.02347350184e-07
-2.41000822088e-07
1.97415167103e-07
-4.13035556362e-07
3.58019356519e-07
-6.51960003457e-07
6.20830628057e-07
-9.72533221652e-07
1.03365952061e-06
-1.39194281396e-06
1.65620860155e-06
-1.92983355244e-06
2.55894437631e-06
-2.60775962978e-06
3.8186868042e-06
-3.44761899849e-06
5.50881445818e-06
-4.46633362087e-06
7.68200424493e-06
-5.66023425719e-06
1.03263393526e-05
-6.95838765246e-06
1.32433699355e-05
-8.12642961232e-06
1.57312360763e-05
-8.77064620382e-06
1.63325717023e-05
-8.6695402054e-06
1.33996405486e-05
-7.94790476196e-06
5.97962426756e-06
-6.61506989564e-06
-6.79713648597e-06
-4.80611699421e-06
-2.58334475643e-05
-2.82256296374e-06
-5.14758361191e-05
-8.35767360209e-05
-7.66665635773e-07
-1.37466178662e-07
9.0810797333e-08
-2.68344176482e-07
1.7873404766e-07
-4.59306217424e-07
3.30009818912e-07
-7.23676776493e-07
5.8036729907e-07
-1.07676633669e-06
9.76162735785e-07
-1.53572562073e-06
1.57480444956e-06
-2.11916430358e-06
2.44345097621e-06
-2.84598997487e-06
3.65386061015e-06
-3.73331255331e-06
5.27235249926e-06
-4.7892623586e-06
7.33884247016e-06
-5.99340770975e-06
9.81571008512e-06
-7.230739542e-06
1.24307866536e-05
-8.19540342092e-06
1.43209577258e-05
-8.50283943217e-06
1.38993213048e-05
-8.14724053787e-06
9.76646343776e-06
-7.24373355839e-06
1.04512282083e-06
-5.80320185044e-06
-1.31602163614e-05
-4.12434325889e-06
-3.35220930428e-05
-2.34045160837e-06
-6.0593267158e-05
-9.43215639568e-05
-5.76811298272e-07
-1.54402938552e-07
8.427283131e-08
-3.01170209212e-07
1.67682154926e-07
-5.14958359836e-07
3.12434211669e-07
-8.10144426638e-07
5.52966268512e-07
-1.20283808273e-06
9.3362986399e-07
-1.71041325615e-06
1.50857898459e-06
-2.35064175763e-06
2.34026028556e-06
-3.14008954151e-06
3.49350122426e-06
-4.09122693548e-06
5.02494992952e-06
-5.20354592133e-06
6.95807635159e-06
-6.4344899831e-06
9.21986591549e-06
-7.6090727557e-06
1.14388746559e-05
-8.34927194764e-06
1.25860912059e-05
-8.40917534749e-06
1.11319117036e-05
-7.82634279851e-06
5.81213229473e-06
-6.69565787508e-06
-4.20804099597e-06
-5.22294944942e-06
-1.96145455737e-05
-3.61973981553e-06
-4.11894367438e-05
-2.05330443492e-06
-6.95594946425e-05
-0.000104962101531
-5.05455093866e-07
-1.72973790259e-07
8.53691851902e-08
-3.37108332209e-07
1.68476556191e-07
-5.75770433849e-07
3.11424578106e-07
-9.04501667387e-07
5.47175735139e-07
-1.34035952991e-06
9.17557736749e-07
-1.90139441439e-06
1.47286491752e-06
-2.60537022212e-06
2.26966228862e-06
-3.46806107919e-06
3.36464382988e-06
-4.49868124798e-06
4.80256842274e-06
-5.68637366389e-06
6.58641174946e-06
-6.95193965825e-06
8.59239859166e-06
-8.03745230684e-06
1.03212622794e-05
-8.57440035021e-06
1.0656625902e-05
-8.370028309e-06
8.11323734376e-06
-7.49203227319e-06
1.56132394026e-06
-6.23604843731e-06
-9.49836496952e-06
-4.8320222767e-06
-2.59548768396e-05
-3.37704492996e-06
-4.86403646688e-05
-1.94445569223e-06
-7.8300550028e-05
-0.000115459093903
-4.37089050107e-07
-1.92586760501e-07
9.73434889107e-08
-3.75176255131e-07
1.86307158374e-07
-6.40359782274e-07
3.3465599163e-07
-1.0049746467e-06
5.73792051142e-07
-1.48726631309e-06
9.42798845594e-07
-2.10616841727e-06
1.48779399874e-06
-2.8797059712e-06
2.25895300911e-06
-3.82260320324e-06
3.30409969083e-06
-4.9394325099e-06
4.65413528803e-06
-6.20261068354e-06
6.28406544796e-06
-7.48112288165e-06
7.99538798392e-06
-8.46090574001e-06
9.16479540419e-06
-8.79525564517e-06
8.64143646797e-06
-8.22990648414e-06
4.88775157261e-06
-7.33765373562e-06
-2.52236395867e-06
-6.06261548772e-06
-1.45760827532e-05
-4.72345392486e-06
-3.19643643478e-05
-3.43779587344e-06
-5.56888835983e-05
-2.07759177394e-06
-8.67196801351e-05
-0.00012575316792
-4.73575684856e-07
-2.12913435223e-07
1.23336267629e-07
-4.1444451573e-07
2.26225306644e-07
-7.06696453583e-07
3.89666386124e-07
-1.10770588581e-06
6.43539130904e-07
-1.63689972275e-06
1.02432680191e-06
-2.31422094873e-06
1.57393008543e-06
-3.1587975059e-06
2.33632978726e-06
-4.18555157347e-06
3.35001674392e-06
-5.39440436398e-06
4.62946580596e-06
-6.73122063518e-06
6.10949632872e-06
-7.99630850749e-06
7.49744564084e-06
-8.89473066849e-06
8.13909472543e-06
-8.85453706406e-06
6.52096918109e-06
-8.24297422973e-06
1.85131849831e-06
-7.2378707829e-06
-6.37729101809e-06
-6.10104319041e-06
-1.92177948098e-05
-4.95017760383e-06
-3.73742792276e-05
-3.76099704328e-06
-6.21307078972e-05
-2.45118801211e-06
-9.45491702895e-05
-0.000135721547188
-5.71352630972e-07
-2.32167988708e-07
1.66040850087e-07
-4.51588333165e-07
2.92578937385e-07
-7.69326640265e-07
4.82953322187e-07
-1.20463555698e-06
7.65872377594e-07
-1.77792949311e-06
1.17566422574e-06
-2.51008883947e-06
1.75064628417e-06
-3.42036866919e-06
2.52937049866e-06
-4.52095540393e-06
3.5407674417e-06
-5.79769812087e-06
4.77819276287e-06
-7.14994739235e-06
6.11801522946e-06
-8.41189558833e-06
7.26352031107e-06
-8.92992610334e-06
7.08557010521e-06
-8.74342877597e-06
4.64844747564e-06
-8.1291626405e-06
-6.57706114781e-07
-7.20696325654e-06
-9.60732323877e-06
-6.32547803329e-06
-2.30247925536e-05
-5.50890780613e-06
-4.18912461582e-05
-4.59909370182e-06
-6.764582952e-05
-3.25517170214e-06
-0.000101601392418
-0.000145328615114
-7.3257083703e-07
-2.40806180153e-07
2.28982874129e-07
-4.68276606734e-07
3.91054659073e-07
-7.97462840576e-07
6.23008100064e-07
-1.2481846492e-06
9.52922005831e-07
-1.84159858033e-06
1.41369004483e-06
-2.59947451604e-06
2.0410209154e-06
-3.54159905455e-06
2.86900823343e-06
-4.67659699107e-06
3.91631307703e-06
-5.97028569542e-06
5.14791889626e-06
-7.30904913032e-06
6.4052404804e-06
-8.27756446623e-06
7.14354713435e-06
-8.58144701566e-06
6.30961485716e-06
-8.3756519226e-06
3.2742393446e-06
-7.87626078287e-06
-2.59723079534e-06
-7.30011004178e-06
-1.19733966427e-05
-6.80444166727e-06
-2.58295923591e-05
-6.37072519783e-06
-4.53200098229e-05
-5.77994832217e-06
-7.20604936739e-05
-4.35032171464e-06
-0.000107787481877
-0.000154650483506
-8.83675688272e-07
-2.25677089933e-07
3.06990101413e-07
-4.39186824888e-07
5.13418488372e-07
-7.48343422921e-07
7.97841638908e-07
-1.17187188566e-06
1.18806952061e-06
-1.7305512076e-06
1.71621453154e-06
-2.44590658765e-06
2.41618797267e-06
-3.33769903695e-06
3.31879728939e-06
-4.40858910415e-06
4.43133425651e-06
-5.59937931198e-06
5.68358740058e-06
-6.73275277702e-06
6.85315313861e-06
-7.39211337666e-06
7.16645318997e-06
-7.56052211114e-06
5.87008684088e-06
-7.42040516339e-06
2.44106839498e-06
-7.08218057926e-06
-3.80470313638e-06
-6.91013672484e-06
-1.34124280283e-05
-6.89310630572e-06
-2.75872309715e-05
-6.91772623764e-06
-4.76006428799e-05
-6.58559392753e-06
-7.53613547811e-05
-5.04134464852e-06
-0.000113009479367
-0.00016320226205
-9.81440521858e-07
-1.99999208077e-07
3.87613792263e-07
-3.8889930811e-07
6.40272001091e-07
-6.61637408535e-07
9.7992601471e-07
-1.03403541421e-06
1.43463624636e-06
-1.52328066346e-06
2.03669771377e-06
-2.14742420969e-06
2.81979568697e-06
-2.92279186598e-06
3.81399011017e-06
-3.847634077e-06
5.01959546064e-06
-4.84409035241e-06
6.32898278246e-06
-5.64934329161e-06
7.37940454794e-06
-6.09697745251e-06
7.44546266672e-06
-6.23109363128e-06
5.88165776463e-06
-6.20129938153e-06
2.22859063874e-06
-6.2169604891e-06
-4.15921229757e-06
-6.34228596371e-06
-1.39544644224e-05
-6.62213022475e-06
-2.83787927554e-05
-6.92541715119e-06
-4.88129943266e-05
-6.83703296364e-06
-7.74299185405e-05
-5.08444280061e-06
-0.000117189794961
-0.000170479853944
-7.29316150911e-07
-1.1092396587e-07
-2.16422134742e-07
-3.68104226661e-07
-5.74307485462e-07
-8.43253833489e-07
-1.18377556493e-06
-1.60154992575e-06
-2.09145472571e-06
-2.58050024148e-06
-2.84273270473e-06
-2.75570352952e-06
-2.47698397988e-06
-2.15160475465e-06
-1.98919569939e-06
-1.92091787322e-06
-2.02673398175e-06
-2.07644967358e-06
-2.05122409844e-06
-1.5584521343e-06
-4.97804360984e-07
8.87620337531e-07
1.35658213894e-05
1.09979232418e-05
1.37320797882e-06
1.39148909063e-05
1.15090210157e-05
1.99728822584e-06
1.4942272895e-05
1.2665870292e-05
2.35721850934e-06
1.65223140226e-05
1.42619879963e-05
1.79560766641e-06
1.79343099106e-05
1.53962507526e-05
4.61025390738e-07
1.84928805806e-05
1.5302965794e-05
-1.21606416292e-06
1.73185255795e-05
1.36177467759e-05
-1.98567954269e-06
1.52317842647e-05
1.11890329423e-05
-2.31296681971e-06
1.24954910657e-05
8.37026315114e-06
-2.31272136953e-06
9.40920044198e-06
5.42798043931e-06
-2.09607156306e-06
6.31048487931e-06
2.57155396596e-06
-1.92140938252e-06
3.27703976739e-06
-2.34239881131e-07
-1.65088103929e-06
3.64243312404e-07
-2.8736523058e-06
-1.47115931596e-06
-2.38483493411e-06
-5.44567587221e-06
-1.30082205414e-06
-5.02025986647e-06
-7.97303458294e-06
-1.08773717359e-06
-7.53617858218e-06
-1.04319360855e-05
-9.73558032023e-07
-9.99633233236e-06
-1.29141392797e-05
-8.4969166058e-07
-1.24207010906e-05
-1.53821150647e-05
-7.23406020081e-07
-1.485420065e-05
-1.78940407047e-05
-6.1044639803e-07
-1.72752879692e-05
-2.04215112085e-05
-5.15348981501e-07
-1.97187002452e-05
-2.29776819995e-05
-4.18429816352e-07
-2.21808161697e-05
-2.55508044526e-05
-3.18209708353e-07
-2.46227430561e-05
-2.81072624908e-05
-2.85612482512e-07
-2.70662828444e-05
-3.06885045835e-05
-2.07218274895e-07
-2.95082777283e-05
-3.31986179046e-05
-2.29814112859e-07
-3.19105173445e-05
-3.5697133966e-05
-2.26737654553e-07
-3.42904648133e-05
-3.81084861357e-05
-3.12769727687e-07
-3.65630090546e-05
-4.04422131285e-05
-2.90134707753e-07
-3.87728773481e-05
-4.25600456201e-05
-3.63868649049e-07
-4.07828718227e-05
-4.45081048316e-05
-3.28459399293e-07
-4.22599704688e-05
-4.60327648488e-05
-6.93438957986e-08
)
;

boundaryField
{
    inletfuel
    {
        type            calculated;
        value           nonuniform 0();
    }
    inletair
    {
        type            calculated;
        value           nonuniform 0();
    }
    outlet
    {
        type            calculated;