/*--------------------------------*- C++ -*----------------------------------*\
  =========                 |
  \\      /  F ield         | OpenFOAM: The Open Source CFD Toolbox
   \\    /   O peration     | Website:  https://openfoam.org
    \\  /    A nd           | Version:  7
     \\/     M anipulation  |
\*---------------------------------------------------------------------------*/
FoamFile
{
    version     2.0;
    format      ascii;
    class       volScalarField;
    location    "0.06";
    object      Qdot;
}
// * * * * * * * * * * * * * * * * * * * * * * * * * * * * * * * * * * * * * //

dimensions      [1 -1 -3 0 0 0 0];

internalField   nonuniform List<scalar> 
815
(
3790383.79981
4019967.65195
4578274.35162
4965420.87205
5282998.78426
5989430.58441
5248146.02645
5516998.47029
6148766.64989
4955130.86069
5169887.47609
5634611.16698
5138338.86041
5257469.02757
5556987.60071
10953413.0817
11093605.5524
11394195.4471
60179384.1351
60535148.0142
61727771.8585
23866452.2327
23668423.4828
23240585.9234
6178583.40911
6128028.8549
6034536.67657
1396021.57559
1387759.93711
1370121.23336
384223.342062
382096.147437
377951.136567
142096.35579
141428.62772
140137.574705
62991.1118437
62747.390641
62259.4083306
30378.4930909
30257.5352146
30058.5222693
15140.6639654
15096.4344215
15016.5051811
7644.31019673
7621.40731
7589.07199585
3851.33969276
3842.65712605
3830.52953149
1925.68013011
1921.97334487
1917.39348107
949.548191722
947.931068018
946.258135484
460.12517164
459.401933087
458.812121985
218.866640208
218.54835499
218.350673569
102.43191918
102.276173565
102.229098087
47.6669342778
47.6101939949
47.6163891449
22.76195575
22.7390013492
22.7535659779
11.8978845015
11.8882342313
11.8989883244
7.46201844534
7.45552645274
7.45862120507
5.8626939597
5.85493183874
5.84942302334
5.44485230095
5.43368355408
5.41889889818
5.51026754207
5.49368523581
5.4683326039
6.32065636342
6.30220352338
6.26488972262
8.73208343743
8.70654440135
8.65448108928
5386555.0863
7034982.15931
7065906.15963
6314312.31444
5974919.79688
11835292.5567
63401528.525
22684339.3267
5902287.88687
1344494.95692
372221.26301
138455.274183
61645.1719346
29814.2176961
14922.6088604
7552.85433623
3818.31975234
1913.58713704
945.321016714
458.741410674
218.468956317
102.357353793
47.7180312352
22.8190541142
11.9371016311
7.4765296733
5.85161581913
5.4070254036
5.44168759898
6.21842160758
8.58274707057
28244.7960924
21675.2078904
16351.1328917
11428.7702023
7049.57674839
3634.47429212
1384.99256568
7280185.99481
12179991.1452
21655207.1206
40894963.3642
83663432.5162
37984540.8477
14566540.5146
5424304.07654
1929906.85021
659987.382534
226350.347308
105928.544471
71416.4568907
55215.7124543
42772.7171084
31600.6219503
21735.4222749
13459.5733444
6901.75511618
2522.11239449
9411292.62743
15528276.9319
27487571.2953
52195915.9362
59283430.3907
23308164.6717
8789569.57075
3104720.49881
1125042.67199
483224.695628
270600.909821
189427.408945
144559.779875
111130.991649
82145.5178616
57621.7793741
37884.9095025
22832.9464699
11744.664785
4112.87680175
9165346.11789
14523036.9816
24877311.0227
45871230.7351
48447363.9517
19267091.0383
7550386.94865
3070640.32024
1472362.03225
871496.082845
583654.290525
415720.72008
296281.174885
207628.611538
140927.826169
91569.1393479
56533.1879899
32828.2888192
16585.0993302
5641.66962956
7855110.02663
11671670.0966
18659411.3371
31809453.0121
48013930.4462
21084938.6292
9722671.98896
4987671.38853
2950133.37497
1846363.46368
1174319.19121
747486.462135
475832.518978
301920.818295
189015.97403
115316.464736
67643.4327013
37850.597561
18675.6190439
6225.05358064
6962154.06013
9368984.05639
13606800.8547
21136358.7242
35566574.5172
30897662.6294
15632275.1892
8581457.59126
4956111.32983
2914315.06696
1718932.96915
1015069.02358
593027.009363
339131.438848
190924.561725
107550.439967
61482.44899
34747.3812293
17045.6710342
5639.2967652
12850936.5536
15268625.0431
19461243.872
26721213.0005
40376526.8354
34800602.3649
19412981.477
10998327.0685
6158475.8044
3363187.33982
1778928.59185
910492.012012
460140.455505
237152.678677
127084.548972
71956.9083148
43088.1713246
25819.6344581
13064.882869
4408.48932712
67643067.9814
75685762.4597
60578930.6346
44683353.0688
29954519.2934
18756885.7607
11234954.882
6355220.21529
3370264.0718
1703077.97136
851045.176455
431452.970698
224359.35033
120797.915054
68753.206055
41643.3671538
26765.575234
17092.7794232
9113.94461031
3167.70742518
21418565.6351
18925582.8253
15656681.4823
12002121.023
8452764.64801
5414357.83007
3228049.97075
1829686.31728
1013238.9267
557648.58269
308017.066623
172014.614519
97983.4160195
57921.6553994
36046.4444852
23621.7593081
16121.5081005
10785.9773037
6020.30809086
2047.65525485
5603242.77997
4918995.78634
4022036.25322
3045062.05148
2135057.46104
1399493.89831
880202.932041
541212.390994
330291.442184
200815.610614
122085.324482
74673.741035
46475.5767025
29726.6166956
19736.6195933
13580.26677
9583.7059819
6547.9342564
3687.17850588
1198.45498712
1284861.74609
1146497.47674
963071.016006
759385.173325
564623.184926
400758.940398
276089.232474
186784.886556
124974.105015
82891.1155196
54621.8779334
35999.926762
23907.6983319
16114.5246224
11124.6178396
7855.0785629
5601.5893033
3806.00559884
2086.84286191
645.151224474
359276.161627
329880.474156
289226.511247
241327.892757
192145.94344
147073.717779
109248.233187
79349.5841757
56607.9981051
39769.7316307
27598.3262518
19027.5165955
13121.4199407
9111.08867765
6412.33295285
4559.44632289
3215.94979298
2118.13946856
1104.03025074
325.655808814
134658.970256
126190.625125
114039.928539
98947.0557398
82441.0511509
66200.1720566
51495.0056423
39011.9485436
28909.6378199
21019.523509
15040.4337912
10647.0594326
7505.23767027
5297.4859988
3754.0822441
2651.0493401
1820.26567993
1140.43063262
556.940797147
157.494010017
60260.7705708
57223.5700394
52751.2546853
46964.3559217
40306.0996925
33380.1934411
26754.4701411
20837.285538
15830.7974176
11769.6779124
8591.49062181
6188.1690303
4423.58644967
3149.34164093
2228.76882553
1547.68176571
1022.8574335
602.006212941
273.29557617
74.6077853381
29272.6733625
28079.0280067
26267.3138401
23834.4991939
20917.127875
17741.3891291
14558.3176059
11588.121051
8977.86659069
6793.31948514
5038.97553758
3681.04334424
2660.1597621
1903.00540798
1338.45310339
908.432950149
573.968594878
315.622773858
132.987531808
35.3329269582
14709.2225576
14231.7289238
13480.581576
12431.975622
11122.2310179
9633.55091334
8073.79717957
6555.53740211
5171.57421051
3978.80795138
2997.67269646
2220.82081822
1621.82116143
1164.07187693
811.406386532
536.161023298
322.733697125
165.773856002
65.2053933751
17.001230454
7471.97539689
7285.63510023
6977.88372005
6528.78313657
5943.71446912
5249.48786749
4489.22808476
3716.9935548
2986.47001838
2338.04875936
1791.6943018
1348.54183752
996.617529923
717.832928402
495.162402039
317.741724391
182.049791332
87.8118004994
32.6014162577
8.4165361849
3790.04202737
3721.25847083
3599.47846846
3412.03506165
3156.53946181
2839.80669168
2477.11585132
2092.44834298
1714.40677553
1368.43162332
1069.38771387
820.108741857
615.041263914
445.113512456
303.510536635
188.806474891
103.128811675
47.0870096115
16.722235145
4.31105294984
1904.60344923
1881.4602993
1835.9748866
1761.02044115
1653.50599283
1514.02447946
1346.92909761
1161.84791125
972.744495906
793.987592229
635.026047336
498.177219895
380.56105272
277.183223601
186.523153055
112.348651026
58.7041467142
25.6136674096
8.82315571536
2.28549589661
943.05292226
936.595555479
921.173311778
893.115805571
850.292806312
791.937636077
718.720370645
634.020057121
544.020555704
455.987040066
375.016600624
302.389637138
236.270682008
173.289889371
114.737721262
66.8613550836
33.5832352405
14.1406035321
4.78130025495
1.25007315118
458.546333787
457.577669019
453.26921235
443.874446946
428.233316814
405.642314129
375.856527557
339.855640928
300.065976184
259.657921764
220.811004792
183.924714935
147.504610415
108.698345926
70.5052837109
39.7585838686
19.3064193043
7.91766649658
2.65089705807
0.701373203752
218.744858939
219.226418297
218.622849372
216.168095546
211.333683708
203.731076467
193.077512177
179.564883409
163.973371575
147.361177049
130.267599735
112.592647758
92.7873035661
68.245295007
43.1552168111
23.5843371208
11.1401695375
4.48451153443
1.49494174591
0.400523479143
102.668082097
103.325544669
103.727290118
103.582115699
102.701027556
100.935903929
98.1385106244
94.2988516528
89.5495133145
83.99969516
77.4734058843
69.6922369675
58.7694187758
42.6780811173
26.2198121643
13.9297145881
6.4366495241
2.55962173027
0.85237167635
0.231084612005
47.9532368528
48.4643454986
48.9886204841
49.4434934012
49.7944968405
50.0210041615
50.07910247
49.9291818716
49.4878969958
48.5321449436
46.7300098678
43.7447138966
37.2691706887
26.4033721949
15.7477978577
8.16664840541
3.71228314167
1.46462125268
0.487849362394
0.133497531917
22.9706286995
23.3062954215
23.7177100702
24.199726663
24.7753267701
25.4715697288
26.2931078644
27.2056908546
28.0823095367
28.6668061659
28.7403860876
27.8003641344
23.4207243622
16.0478707361
9.31191258205
4.73625099979
2.12891823153
0.835741026927
0.278468558317
0.0766528814166
12.0256636273
12.2235846126
12.4880746472
12.8353283124
13.2999954221
13.9162749793
14.700712523
15.6271858364
16.591452219
17.4354050344
18.093441484
17.7146750392
14.4118747692
9.52378016697
5.39876083719
2.7075393153
1.20792248022
0.472488223893
0.157243725443
0.0432979339201
7.51895114055
7.61492345325
7.74656041006
7.93055624165
8.19523314923
8.56741162302
9.0608474881
9.65925641535
10.3082816001
10.9857009081
11.6358907784
11.1254377714
8.60428230283
5.49844039847
3.06120815801
1.52094335606
0.675214668013
0.263245046155
0.0872903335649
0.0239055573514
5.85849106384
5.8741965035
5.89078372808
5.91914154939
5.9781707768
6.08583940156
6.2527417026
6.47738681534
6.766875752
7.19582864083
7.52636929255
6.77709564723
4.96702043459
3.08750531788
1.69664263747
0.837841646476
0.370595633515
0.143896495904
0.0474000530292
0.0128067988382
5.38278575015
5.32890326249
5.24342975925
5.13170562957
5.00610656311
4.88005991455
4.76610944018
4.68366779326
4.69769318934
4.86971881146
4.79080900694
3.98789251814
2.78470678629
1.69296491341
0.921569992139
0.453117730463
0.19974297277
0.0771357652402
0.0250856136692
0.00656113947599
5.3861878296
5.26564924127
5.08673965791
4.85302297761
4.57490134638
4.26582809398
3.94349733554
3.646220459
3.45892444246
3.34627338122
2.97918836871
2.29180549829
1.53404496059
0.914877379954
0.493794753503
0.241532457041
0.105796829747
0.0403725318586
0.01279440562
0.00314565936117
6.11834878919
5.90775279191
5.61991205684
5.26555748585
4.85628096327
4.40180489978
3.90882127488
3.38892681261
2.8798823639
2.39355524837
1.86800206762
1.32395072494
0.848059296165
0.494324597345
0.26322696215
0.127240681108
0.0548888767508
0.0204248961387
0.00618009242157
0.00137117480393
8.42602570014
8.10704932275
7.69130057434
7.19478167012
6.62405782238
5.97157756244
5.21211423948
4.28658682544
3.14595273756
2.04934835657
1.30273722058
0.818499196077
0.49047294863
0.274955195591
0.14270154457
0.0674842779679
0.0283853992331
0.0101976614921
0.00291093615369
0.000565855050105
720.600803627
508.279917484
1233.61745863
838.112035457
1861.03629224
1165.22315867
2365.4824406
1296.50635948
2536.22590499
1067.35596541
2204.63334112
482.53874176
1630.12070544
667.865319903
1007.28231505
280.295958013
593.294960117
135.970452792
345.918745442
74.4517667605
195.837222441
42.1040915444
106.127657951
23.0497104211
55.2158170258
12.0515472244
27.9988392825
6.12647335992
14.0997614511
3.0976528407
7.1819494182
1.58747963752
3.74130540797
0.834621103002
2.00589836416
0.452643790378
1.10758503093
0.252999369539
0.62815203284
0.145110262625
0.363600775309
0.08479432989
0.213084340995
0.0500282101851
0.12547838337
0.0295909828041
0.0734642806565
0.0173341332521
0.0424835024231
0.0100011881707
0.0239495025206
0.00559347301352
0.0131018368522
0.00302167998375
0.00684151868018
0.00154377938051
0.00331633566959
0.000715870253047
0.00142373801269
0.000285322171606
0.000509609554358
9.37010289819e-05
0.000152594764066
2.71447705987e-05
)
;

boundaryField
{
    inletfuel
    {
        type            zeroGradient;
    }
    inletair
    {
        type            zeroGradient;
    }
    outlet
    {
        type            zeroGradient;
    }
    axis
    {
        type            empty;
    }
    leftside
    {
        type            zeroGradient;
    }
    burnerwall
    {
        type            zeroGradient;
    }
    front
    {
        type            wedge;
    }
    back
    {
        type            wedge;
    }
    procBoundary1to0
    {
        type            processor;
        value           nonuniform List<scalar> 
27
(
2100665.0754
2246095.08098
2561298.21437
3031016.72444
16671.4905271
11128.2310917
8220.36790873
5687.56167758
3491.64934734
1806.25123067
712.3441197
4127213.66342
6945726.95125
12217394.1252
22182320.4708
42921971.4853
78896599.8312
29659819.9942
12018678.3392
4626531.24241
1568075.44362
421021.542999
106981.735315
42871.1441677
42871.1441677
386.239232221
277.945592902
)
;
    }
}


// ************************************************************************* //
