/*--------------------------------*- C++ -*----------------------------------*\
  =========                 |
  \\      /  F ield         | OpenFOAM: The Open Source CFD Toolbox
   \\    /   O peration     | Website:  https://openfoam.org
    \\  /    A nd           | Version:  7
     \\/     M anipulation  |
\*---------------------------------------------------------------------------*/
FoamFile
{
    version     2.0;
    format      ascii;
    class       volScalarField;
    location    "0.06";
    object      T;
}
// * * * * * * * * * * * * * * * * * * * * * * * * * * * * * * * * * * * * * //

dimensions      [0 0 0 1 0 0 0];

internalField   nonuniform List<scalar> 
815
(
1651.93437902
1663.13206755
1687.22052015
1821.61996981
1832.83907913
1856.59882376
1939.30672419
1949.24261948
1970.26361147
2035.68746603
2043.83923722
2061.14374068
2127.23782748
2132.87023113
2144.96924763
2237.70304698
2241.22149189
2248.85859157
2271.44072055
2271.6573355
2272.00014977
1371.19153564
1369.04544498
1365.38202644
882.149613399
881.730786909
881.002174494
701.677147343
701.507714564
701.242613132
627.005239536
626.9018106
626.728811954
589.592875168
589.506929251
589.352802945
567.262146463
567.168563815
566.991861119
551.824495244
551.722115676
551.519864167
539.957989638
539.844323435
539.613462406
530.031008574
529.906906058
529.64937882
521.163768623
521.030075532
520.749071929
512.879323088
512.734322928
512.429233408
504.885215231
504.729956739
504.403223752
497.033412004
496.869135135
496.52369806
489.269052483
489.096548477
488.735056045
481.563140892
481.386501997
481.015174138
473.940562714
473.762180399
473.386255627
466.450617365
466.271491078
465.894713638
459.139582112
458.962238993
458.589794748
452.080049
451.906337598
451.542459238
445.333615765
445.166993478
444.818149364
438.974725147
438.819153688
438.492767043
433.1077907
432.966689716
432.668609482
427.94919753
427.819793239
427.547941855
423.60237193
423.486808798
423.243963513
1719.91981731
1888.4836687
1998.41422455
2084.39024616
2161.32780187
2259.26820247
2271.96712949
1360.41010245
879.770741352
700.825061618
626.506738812
589.161739257
566.767178851
551.25346348
539.302971369
529.298577758
520.363202833
512.009445331
503.953315222
496.047925848
488.237329115
480.503078447
472.866775139
465.373626495
458.074517384
451.039431877
444.335982954
438.041026818
432.255203604
427.170783431
422.907119899
608.941245229
596.555076401
569.900212516
529.153497325
476.804199932
424.026770467
391.140087395
1790.57394841
1919.90625508
2067.33077398
2186.96412313
2174.13959398
1821.96067649
1427.10816394
1150.10540043
983.251861565
877.452753221
812.039341562
786.791248592
787.451269015
790.302907622
775.173364079
736.876792599
675.97400128
594.597736078
501.412935738
429.060439422
1954.4886773
2071.55020772
2191.01246377
2251.90406368
2129.86132856
1760.76963904
1428.93470801
1208.71555274
1089.11081836
1030.6026537
1009.41328517
1015.20517394
1029.79510344
1030.94825468
1005.88664866
951.605959687
866.746217442
750.311790555
607.372118242
476.026140037
2056.46536982
2158.87898652
2261.89628361
2311.7738465
2200.52840545
1878.17191685
1587.14619171
1401.90406324
1314.12151378
1285.01242287
1286.68638375
1296.6590491
1294.94237224
1271.09612499
1222.19049235
1149.0798366
1048.05102357
908.140072351
717.787470548
521.597607623
2133.06112754
2220.72350488
2313.54964076
2376.16592078
2341.63818599
2101.22767263
1860.71532892
1706.50815178
1630.46568987
1587.71762395
1549.84870242
1500.33560305
1436.52126909
1364.81416604
1293.23788435
1222.88258083
1139.19200002
1007.20368842
791.121298279
548.494835511
2196.94901061
2264.31498735
2341.90301336
2409.66212889
2431.65706306
2322.36786604
2140.74736819
1980.05443897
1842.09948026
1709.28477936
1578.85011479
1456.3452432
1347.82175456
1258.96163324
1196.43548464
1155.88000728
1113.91652367
1017.72923717
803.664761571
550.668145535
2282.20011705
2325.39350481
2376.09676704
2421.18893773
2433.02951971
2327.14444489
2134.77832496
1913.89944543
1692.61592345
1496.41893433
1331.85367027
1205.27959355
1117.49014406
1064.81863018
1039.07177419
1030.85366038
1018.77790608
951.237704784
760.089310672
537.514180875
2269.92831233
2250.46968602
2186.49502229
2082.24686025
1931.38840671
1739.83054974
1550.37427231
1370.66859787
1218.23288738
1100.64832015
1017.03335967
961.791740653
928.27707995
911.244311008
907.114233129
909.352735283
901.470065225
844.039065441
690.217552691
524.545658016
1348.26785874
1318.8544791
1274.07530351
1215.63760812
1145.98639816
1068.67272953
999.084706257
939.923072734
892.87867314
857.450162779
832.595923951
816.586323858
807.783675352
804.837954609
805.202202317
803.280152305
788.069141182
737.019183756
626.674469684
514.567362445
876.500240786
866.780343479
852.358714123
833.968233327
813.535357983
792.994180925
774.37882825
758.596524613
746.390851221
737.622111471
732.035436169
728.992335084
727.768866149
727.050527554
724.585763127
716.435253139
696.33702824
653.376254452
578.757688965
508.817686268
699.805035854
697.13209106
693.237427653
688.303817396
682.956601022
677.912846215
673.735656979
670.767406096
669.170257807
668.774733212
669.144004192
669.655790214
669.414435694
667.182133721
661.277205166
649.466586355
628.899168054
595.396041586
547.460936153
507.034667188
626.041629284
625.068973333
623.793074632
622.34277981
621.004468983
620.087484805
619.846674983
620.408198812
621.689546255
623.368964658
624.910211245
625.556361636
624.388718704
620.415693066
612.643991172
600.178644416
582.19783839
558.008821656
529.16626439
508.028113263
588.778828559
588.072872751
587.225577312
586.363850571
585.694268719
585.438397078
585.760591159
586.70993516
588.151973349
589.7147682
590.799303647
590.639035579
588.43821943
583.530737023
575.539917242
564.463731873
550.65076988
534.934933481
519.559208967
510.381391081
566.309541064
565.460697221
564.42009157
563.307298877
562.293476498
561.570080323
561.295640139
561.526346543
562.142072051
562.798237961
562.939336922
561.892453762
559.048289623
554.06377431
547.032391078
538.503659297
529.40469061
521.014092239
515.078278375
513.070158525
550.694327606
549.60625825
548.208638749
546.608086061
544.958001341
543.433463235
542.192191123
541.316971912
540.747412698
540.229043511
539.323910252
537.516924344
534.414594709
529.968565209
524.612876941
519.200812116
514.82013282
512.606503571
513.316476712
515.628742971
538.639036251
537.304912101
535.536146608
533.421822018
531.094495721
528.71184051
526.429825303
524.361830541
522.522456168
520.777993008
518.849922152
516.418215764
513.324633311
509.791694945
506.501397321
504.418426277
504.504624385
507.420433055
512.905995393
518.003383222
528.538974642
526.980611985
524.872216689
522.284939786
519.331025787
516.149950775
512.891822063
509.694496818
506.643764638
503.731338517
500.852957605
497.903249627
494.977826282
492.570669725
491.552743365
492.831856786
497.026831947
504.181970286
513.215467565
520.31652477
519.520597502
517.767183948
515.363829652
512.367235552
508.872524426
505.002874893
500.900231449
496.718881945
492.603018274
488.657503238
484.945269717
481.577869926
478.928046619
477.777421411
479.136392567
483.704931938
491.601563449
502.264725022
514.049630165
522.743091803
511.090410129
509.168148794
506.514499545
503.175593278
499.234337729
494.802305969
490.014445424
485.035728696
480.054238022
475.265488216
470.88353537
467.231521815
464.965687701
465.179968385
468.970897168
476.682435538
487.853600484
501.427770741
515.417953658
525.437171231
502.967370286
500.901704776
498.040653296
494.424658346
490.13042969
485.264093404
479.9575358
474.382871393
468.761456955
463.363770578
458.52712746
454.766431328
453.025041981
454.728647441
460.978291829
471.62149126
485.635925474
501.615233358
517.399100829
528.520793976
495.00539891
492.821354654
489.794282351
485.963730886
481.406195789
476.227886274
470.563881433
464.59736118
458.576231672
452.82700148
447.783104141
444.129858499
443.10695543
446.464786904
455.168249812
468.470459711
484.902003727
502.851554202
520.08153798
532.081936876
487.147808381
484.870238143
481.717711873
477.732726083
472.99722459
467.624656179
461.75992083
455.600385068
449.415852296
443.572352567
438.578449813
435.281595866
435.234911166
440.450256339
451.558795676
467.207790963
485.636153328
505.172682621
523.539251294
536.184468198
479.381565972
477.03878817
473.803542238
469.725837801
464.898069228
459.44642805
453.530560775
447.364197823
441.234735325
435.536740197
430.84596474
428.183615237
429.438534901
436.731834444
450.135185056
467.779687266
487.822816208
508.6013543
527.812632019
540.859580734
471.728609818
469.351970743
466.079995607
461.973896036
457.139705171
451.720277665
445.892811671
439.886933648
434.005892571
428.668175732
424.524219526
422.814377711
425.764511418
435.328430295
450.830374927
470.120622835
491.437985659
513.143532673
532.921368808
546.118759584
464.233030072
461.855511764
458.595568883
454.526495188
449.770695342
444.48841394
438.875436219
433.176847368
427.709705097
422.921940326
419.574733001
419.206012024
424.288431316
436.197635609
453.530450788
474.147675018
496.423437632
518.76026373
538.834955361
551.940184686
456.948181418
454.60543643
451.408325774
447.44232915
442.84690631
437.798819182
432.511910124
427.244510196
422.330790638
418.27235709
416.017423275
417.478158993
425.073941718
439.238816168
458.109338077
479.749301826
502.68861534
525.378161427
545.498749067
558.282434711
449.942350889
447.67071899
444.586897627
440.788586379
436.429773181
431.702786405
426.836139956
422.102157706
417.866338533
414.739380369
413.977395652
417.817577777
428.106291403
444.277022815
464.363823189
486.721746176
510.038269581
532.824834537
552.777205927
565.053305386
443.28634374
441.122638921
438.20182683
434.632272222
430.579705175
426.248559969
421.878855517
417.764359328
414.336259398
412.417018507
413.677912003
420.329463026
433.19476865
450.988047436
471.95082416
494.735362458
518.163192326
540.81906616
560.448456355
572.163126889
437.057880281
435.037318283
432.325472626
429.038392635
425.350133814
421.473296662
417.66063642
414.244433728
411.791072622
411.474677543
415.28367453
424.835788884
439.843070505
458.795646514
480.272254022
503.178026181
526.47100309
548.847732639
568.196553946
579.575700853
431.354360116
429.506041449
427.040029424
424.077254391
420.794804403
417.409101249
414.188423778
411.533341826
410.24068756
411.90654596
418.473497852
430.534972099
447.066457652
466.696409537
488.335269891
511.111973257
534.152593437
556.327127166
575.702378919
587.140030183
426.350724348
424.679462193
422.468109369
419.839205461
416.967340415
414.065288998
411.410576622
409.484573189
409.387750168
413.11632085
422.156225045
436.046785744
453.491193958
473.398068844
494.962321239
517.524341234
540.391918274
562.654674435
582.542078796
594.478118905
422.172940661
420.685156772
418.729473582
416.425487157
413.940471378
411.474516161
409.291574574
407.880504519
408.498304994
413.555930545
424.328413393
439.449537408
457.436394892
477.459506321
498.956061141
521.456634738
544.434218127
567.170551528
588.025272042
600.589732783
423.645173307
443.917420355
444.616356008
459.55849761
468.121042513
475.862712195
490.111831571
490.666895507
504.254879039
501.352544667
508.302192485
506.285530793
508.205682297
505.325114951
505.579432285
500.482389128
501.911799962
494.346084843
498.884639729
489.03356236
497.313076917
485.315271458
497.125341035
483.051896151
497.859352953
481.818578429
499.109371394
481.302572908
500.645171034
481.327914646
502.406713088
481.824579729
504.405802078
482.753674694
506.6864973
484.096919933
509.28126369
485.828705806
512.221848754
487.92958038
515.526684413
490.373291132
519.200862152
493.138340723
523.243676033
496.189549486
527.610478518
499.480878904
532.274028826
502.93062251
537.110710195
506.458841183
542.039170399
509.881320227
546.88112193
512.903101451
551.336570837
515.131215514
554.959302778
516.288132449
557.374225208
516.656707444
558.498141681
517.278315583
)
;

boundaryField
{
    inletfuel
    {
        type            fixedValue;
        value           nonuniform 0();
    }
    inletair
    {
        type            fixedValue;
        value           nonuniform 0();
    }
    outlet
    {
        type            zeroGradient;
    }
    axis
    {
        type            empty;
    }
    leftside
    {
        type            fixedValue;
        value           uniform 294;
    }
    burnerwall
    {
        type            zeroGradient;
    }
    front
    {
        type            wedge;
    }
    back
    {
        type            wedge;
    }
    procBoundary1to0
    {
        type            processor;
        value           nonuniform List<scalar> 
27
(
1409.527156
1419.59387001
1441.65249447
1472.15677496
489.918135643
477.359507206
458.264873448
431.838388549
401.092765289
373.635384019
363.54360928
1541.52396452
1679.17109995
1847.15081806
2029.36612697
2174.44043903
2129.8541424
1635.82264909
1258.75429834
1012.03916792
835.615753827
708.603154563
638.984896419
614.950481944
614.950481944
406.354798097
429.755147807
)
;
    }
}


// ************************************************************************* //
