/*--------------------------------*- C++ -*----------------------------------*\
  =========                 |
  \\      /  F ield         | OpenFOAM: The Open Source CFD Toolbox
   \\    /   O peration     | Website:  https://openfoam.org
    \\  /    A nd           | Version:  7
     \\/     M anipulation  |
\*---------------------------------------------------------------------------*/
FoamFile
{
    version     2.0;
    format      ascii;
    class       volVectorField;
    location    "0.06";
    object      U;
}
// * * * * * * * * * * * * * * * * * * * * * * * * * * * * * * * * * * * * * //

dimensions      [0 1 -1 0 0 0 0];

internalField   nonuniform List<vector> 
815
(
(-0.0217812130063 1.68521303096e-11 0.719675921045)
(-0.0563461327834 4.78661274711e-11 0.635299265241)
(-0.0907786542754 7.94584022149e-11 0.48882092264)
(-0.0670260816837 -2.81672793336e-11 2.61759925179)
(-0.175423211359 -7.99419554819e-11 2.55063389507)
(-0.279748961398 -1.33288771813e-10 2.44186028006)
(-0.0711531047646 -1.27845894594e-10 5.02130108586)
(-0.1853882401 -7.31388813665e-11 4.95110706424)
(-0.292179212418 -4.26013288446e-11 4.83940681349)
(-0.0461424091323 -8.22539031441e-11 7.16039016776)
(-0.121760924727 5.43742300957e-12 7.09232444302)
(-0.194825813272 -1.00841344231e-10 6.98356436507)
(0.00744798215302 -1.15974669351e-10 8.05023451037)
(0.0162671239936 -9.49504338971e-11 7.98241804344)
(0.0217575953871 -9.86000342109e-11 7.87899137492)
(0.0769769319824 -1.05319330919e-11 5.94975234914)
(0.20121853452 -2.65010055383e-11 5.89737721546)
(0.318738369362 -3.86112785722e-11 5.80535415529)
(0.127144718232 -4.28778443752e-12 -0.13007716914)
(0.334331997775 -1.20367214068e-11 -0.174608464972)
(0.531065619533 -1.92249298572e-11 -0.235073609069)
(0.0430000710623 1.44663150956e-12 -2.96640327788)
(0.112964536309 2.53822260718e-12 -2.99009894278)
(0.181310026414 -1.05908712379e-11 -3.00023749403)
(-0.00530008708916 6.6832807846e-11 -2.45542955685)
(-0.0134611308203 2.00326611617e-10 -2.47556936214)
(-0.0224496638354 5.83048802748e-11 -2.47551274863)
(-0.0149333889427 5.97841170956e-13 -1.74873692001)
(-0.0384928541988 -2.49933581949e-12 -1.76166736275)
(-0.0613334399841 -1.51303357053e-11 -1.75435002333)
(-0.0148214015542 5.99321028018e-11 -1.05053953691)
(-0.0384643724187 -2.54186162694e-11 -1.06455058076)
(-0.0608666834162 -1.07234934785e-10 -1.05972288335)
(-0.0120285769482 -1.2170205216e-11 -0.494320804343)
(-0.0312504902632 -3.44127323103e-11 -0.510028599564)
(-0.0493862539065 -5.56263538854e-11 -0.507325690853)
(-0.00946240369638 -1.18514771041e-11 -0.0814968482674)
(-0.0245308268756 -3.32613663385e-11 -0.098688585081)
(-0.0387117711619 -5.29858399065e-11 -0.0974410625693)
(-0.00746713217165 -4.83632516244e-11 0.227467059455)
(-0.0192713984774 -1.39333382069e-10 0.206563290415)
(-0.0302403875894 -1.5560236413e-10 0.205252973629)
(-0.0060009978216 -2.13094916741e-11 0.4127447745)
(-0.0154978489395 -5.87983027063e-11 0.39021645579)
(-0.0243934779358 -8.75136839143e-11 0.388192751141)
(-0.00497092859345 -1.45901004887e-12 0.530864001833)
(-0.0128904599843 -2.86170312231e-12 0.504319571832)
(-0.0203739704207 -7.25951750002e-11 0.500363105905)
(-0.00433018895672 -1.55268466007e-11 0.57382836981)
(-0.0111708370048 -4.46244964674e-11 0.545019136709)
(-0.0175471223283 -7.65930201537e-11 0.540431884222)
(-0.00390912299185 -1.52935550634e-11 0.571622276983)
(-0.0100614023662 -4.34444566358e-11 0.54038172881)
(-0.0158203100576 -7.18512073376e-11 0.535347843739)
(-0.00371979958651 -1.30747570277e-11 0.534836781452)
(-0.0095506056399 -3.70926688425e-11 0.501119460174)
(-0.0150246449276 -6.11147918324e-11 0.495735399805)
(-0.00375087589162 4.08989709478e-11 0.48097730478)
(-0.00958847260132 1.2156909024e-10 0.444792796445)
(-0.0150513421011 8.41544824483e-11 0.43905163379)
(-0.00378205700217 3.69618708699e-11 0.420276425594)
(-0.00973344827339 1.03167124844e-10 0.382092657589)
(-0.015459440007 3.20862244068e-11 0.37629077599)
(-0.0039929206602 4.83874486802e-12 0.369166451451)
(-0.0102612030053 1.07289819767e-11 0.327787679175)
(-0.0163157787628 1.08161519897e-12 0.32122006825)
(-0.00426973284758 4.99042189414e-14 0.331134809802)
(-0.0109368998346 -7.61147114873e-13 0.28798907739)
(-0.0173226940733 -6.15946767512e-12 0.281246568539)
(-0.00453117683907 -1.48566473885e-12 0.318104873273)
(-0.011573967549 -4.50317636215e-12 0.273304345251)
(-0.0183527378398 -9.00655552501e-12 0.266437192991)
(-0.00475556706826 -1.88033907235e-12 0.338959270078)
(-0.0121460268578 -5.39012432745e-12 0.293017171705)
(-0.0192819215455 -9.33954999406e-12 0.286166356288)
(-0.00496315111161 -7.30076621042e-11 0.404023842026)
(-0.0126595394457 -3.51406553619e-11 0.35734575628)
(-0.0201416076256 -8.75925644906e-12 0.350619903096)
(-0.00511513100238 -6.72772524316e-12 0.521388312858)
(-0.0130274578123 -1.61407957578e-11 0.473938546574)
(-0.0207686206142 -2.15183688342e-11 0.467019647344)
(-0.00498001234177 4.09019889825e-11 0.701565465388)
(-0.0127054546729 -7.23059850094e-11 0.65355574019)
(-0.0203255943601 -6.1244710545e-11 0.646257067747)
(-0.00433322168535 -7.43270010552e-11 0.939629928903)
(-0.0112085261342 -3.62011953908e-11 0.891160015376)
(-0.01793054121 2.5903584347e-12 0.883525450656)
(-0.00358272989859 1.31697657315e-11 1.18549880879)
(-0.00924821434417 4.25723472737e-11 1.14521623329)
(-0.0149722830524 -5.97024137571e-11 1.14215875199)
(-0.00173462412253 -8.05148765403e-11 1.40158587364)
(-0.00462367342523 1.34827962466e-10 1.37168098561)
(-0.00775803878462 1.21723170249e-10 1.37377512971)
(-0.131326434974 1.09361841309e-10 0.312930909868)
(-0.388613327095 -5.89251276319e-11 2.31321977879)
(-0.397760722115 -2.58897719569e-11 4.70408799165)
(-0.269844949036 -7.25792026334e-11 6.8497641309)
(0.0269785326652 -1.15356319289e-10 7.75109150501)
(0.436578445461 -4.74764513953e-11 5.68535719429)
(0.71740724498 -2.49288657433e-11 -0.308324366142)
(0.247888171315 -2.09225740708e-11 -2.99537941529)
(-0.0323128773387 6.57314006357e-12 -2.4582858487)
(-0.0855316048566 -2.96828030595e-11 -1.73076709775)
(-0.0832709325002 -8.99088253045e-11 -1.04001821661)
(-0.067637435404 -7.19543412958e-11 -0.490283149763)
(-0.0528862129802 -6.86284550557e-11 -0.0820202738975)
(-0.041175271714 -1.40705736052e-10 0.218605977979)
(-0.0333007444014 -1.04834392615e-10 0.401264209142)
(-0.0277839274346 -1.24051455098e-10 0.512312059679)
(-0.0239273766251 -1.04536745127e-10 0.552396063062)
(-0.0215912361561 -9.73421474726e-11 0.547536345004)
(-0.0205179361251 -8.24832725787e-11 0.508190599726)
(-0.020556272774 1.67191779752e-12 0.451723175632)
(-0.0211703102977 -2.22301252052e-11 0.389319254098)
(-0.0223225760659 -1.59671598903e-11 0.333829817502)
(-0.0236992360472 -1.44593888382e-11 0.293785944614)
(-0.0251022439175 -1.42665954419e-11 0.278755933701)
(-0.0263876605572 -1.33383678372e-11 0.298141875104)
(-0.027567577708 8.83636155672e-12 0.362150817345)
(-0.0284231849743 -3.05798175522e-11 0.477708033327)
(-0.0278430739033 -7.02970035354e-11 0.655763306391)
(-0.0246113580115 -3.69859970115e-11 0.891447746123)
(-0.020624892593 -4.2373170084e-11 1.15098091257)
(-0.0106918680079 5.32032503296e-11 1.38197574034)
(-0.108181222213 -1.35942039079e-11 2.89356522646)
(0.0552453356091 -7.20774729065e-12 2.71356419917)
(0.192741520401 -1.18567512304e-11 2.55402995039)
(0.246866646508 -6.16034340404e-12 2.42735774252)
(0.217677700286 -3.65677708416e-12 2.29330374957)
(0.164112502179 -3.29491560526e-12 2.14049271368)
(0.0800229434514 -7.19431695881e-12 1.98810163382)
(-0.218643114138 1.60151910721e-10 -0.0184536096756)
(-0.39534236124 2.31458074955e-10 -0.469210752629)
(-0.626808650227 8.19380992725e-11 -0.772963510936)
(-0.913947813173 1.92863606338e-11 -0.727713545213)
(-1.18901183461 -4.02781429792e-13 -0.0968006441172)
(-1.34282697187 -1.26290431049e-11 1.08969906782)
(-1.35241856528 -2.63803256458e-11 2.16259647222)
(-1.3333512407 -4.62572969745e-11 2.71425061368)
(-1.26931788868 -6.82557659185e-11 2.9718091304)
(-1.00789039179 -4.5146398252e-11 3.11018073453)
(-0.684240632495 -3.54684367716e-11 3.14657864479)
(-0.441177965739 -1.71004340298e-11 3.00661403002)
(-0.186572931638 -2.26813350391e-11 2.81563490044)
(0.0769760332637 -1.27377787042e-11 2.64339379523)
(0.28050252447 1.88116392568e-12 2.51532822746)
(0.436226669263 -8.17687289787e-12 2.46442044999)
(0.497139155123 -5.86012905033e-12 2.38790784908)
(0.428964941265 -4.18936450433e-12 2.31481283159)
(0.304512772014 -1.07403226178e-11 2.19866524565)
(0.152353477363 -7.16363230106e-12 2.05092491541)
(-0.585320791718 6.99634827717e-12 2.07897559705)
(-0.866410739327 -1.76003960256e-11 1.74579698599)
(-1.13828573053 7.67522501232e-11 1.49567647542)
(-1.42964388944 -3.60019229984e-11 1.47468297719)
(-1.58019676383 -1.41980554381e-11 1.8546499754)
(-1.57087649261 -1.91721479038e-11 2.56180068687)
(-1.47939569013 -3.04534820735e-11 3.04253409724)
(-1.30206274438 -4.55249969569e-11 3.15651715381)
(-1.00892849484 -5.78324559206e-11 3.11103926965)
(-0.690129499372 -4.43716736657e-11 3.01080220543)
(-0.427054939375 -1.57523408077e-11 2.80866022074)
(-0.113283056787 -1.66180856374e-11 2.5350963899)
(0.20603751195 -1.61457273852e-11 2.29558779598)
(0.486679870842 -1.20469141688e-11 2.13600371211)
(0.732689084398 -3.65461121471e-13 2.08720953698)
(0.834261837213 -3.81991860347e-12 2.1467427483)
(0.809563717456 -3.594833661e-12 2.23701647503)
(0.697732084724 -3.51921773883e-12 2.31709433673)
(0.467484920411 -9.94466338284e-12 2.30764656836)
(0.209102786741 -7.47139041304e-12 2.22025654148)
(-0.583691668828 -1.64674589675e-11 4.44993581894)
(-0.835287833582 -6.04256711599e-11 4.03342934211)
(-1.09041718201 3.95703419099e-11 3.59290897521)
(-1.28453931884 6.11167446789e-11 3.24759135767)
(-1.28153691529 3.99780033753e-13 3.19661750641)
(-1.16772261499 -1.95724235795e-11 3.41612265284)
(-1.00645290824 -3.77116879104e-11 3.50308689153)
(-0.69603170814 -8.03208841381e-11 3.27836689039)
(-0.403162125766 -5.80881808774e-11 2.91437008696)
(-0.135126687997 -7.51270079107e-11 2.48562789002)
(0.191445740119 -2.8012673297e-11 2.04637683163)
(0.531511525958 -1.64332926084e-11 1.66883347123)
(0.877825445309 -1.37445856865e-11 1.40599183764)
(1.14816667466 -1.18384258963e-11 1.32397724005)
(1.29652589472 -2.64867966816e-12 1.40611508485)
(1.30506053315 -5.92394502282e-13 1.63746650456)
(1.21183977388 1.31294509494e-11 1.99266397986)
(0.967543815036 9.08540001624e-13 2.3045347722)
(0.607241088814 -8.66609272004e-12 2.51305870646)
(0.255130628688 -1.28933310922e-11 2.52236968616)
(-0.406321014661 -5.65811297468e-11 6.58433549858)
(-0.587362683242 -1.14059811138e-10 6.0991121958)
(-0.750237488533 -2.04332056566e-11 5.49674911803)
(-0.816686195416 -3.99233547023e-11 4.87283600888)
(-0.763387920999 -9.11487367551e-12 4.36746108567)
(-0.508839869579 -3.49703621111e-12 4.07662526782)
(-0.173261216649 3.21563174765e-11 3.6862618729)
(0.17647901949 -3.30392086647e-11 3.00400731874)
(0.499954581039 -6.70910768043e-12 2.18680036773)
(0.834667661405 -6.63350760515e-11 1.43645790778)
(1.15985048795 -1.0016254242e-11 0.788527792167)
(1.44286163234 -3.22137034901e-11 0.37743588017)
(1.61906401246 -3.4497262809e-11 0.244673482388)
(1.64734921724 -1.73866399565e-11 0.356994104795)
(1.58755945251 1.58125868517e-11 0.652225432386)
(1.48407927382 6.52650228826e-12 1.10979550887)
(1.26566893949 1.16487771454e-11 1.6893275965)
(0.985460800005 4.34727924237e-12 2.29640983333)
(0.553741929497 -6.87032804413e-12 2.78175784728)
(0.221194203954 -1.23629384338e-11 2.95521774114)
(0.0299154388242 -1.69447603283e-10 7.48512383152)
(0.0404652483033 -7.25392012911e-11 6.97547949316)
(0.100103864223 -2.31841814035e-11 6.27825061421)
(0.22158685375 -1.72906258426e-11 5.41868115005)
(0.440175816587 -1.22198639877e-11 4.4599717045)
(0.726283690012 -1.03388620013e-11 3.5449280666)
(1.04297521703 -3.08611860365e-12 2.54515979939)
(1.37922224912 -1.47808526988e-11 1.4149719402)
(1.70092815486 -1.44613554464e-11 0.346261349059)
(1.89371378593 -2.3233399176e-11 -0.398489577634)
(1.90357482413 -1.38668148554e-11 -0.737119266084)
(1.86351610168 5.85754282931e-12 -0.691573789298)
(1.75590711056 -2.41843994834e-11 -0.400313473042)
(1.59311006937 -1.66070832012e-11 0.0413196358742)
(1.44161386564 1.91236405603e-12 0.528017620838)
(1.27055655431 7.484301223e-12 1.04483163921)
(1.05015055315 1.19622734218e-11 1.66066118343)
(0.727675968057 5.64882928531e-12 2.44876690331)
(0.357415273336 1.39466845104e-12 3.17812541669)
(0.148697674027 -1.16731070805e-11 3.44507173851)
(0.656193874357 -5.90788849776e-11 5.42069885138)
(0.962212148143 -4.47322250149e-11 4.8867204794)
(1.28487017116 -3.0046518231e-11 4.12315597233)
(1.63446980551 -2.45563131421e-11 3.12363719537)
(2.05538632168 -2.26620548726e-11 1.94197342434)
(2.4571668992 -2.15275294808e-11 0.71089443)
(2.58723585051 -1.87089356686e-11 -0.353392373883)
(2.52753330304 -1.67353211954e-11 -1.12927858989)
(2.45683033157 -1.34271644835e-11 -1.440287311)
(2.30066270587 -1.15452967159e-11 -1.34633914502)
(2.05864021148 -7.83116089803e-12 -0.98138344332)
(1.72415049016 -2.45925079136e-12 -0.511829618182)
(1.37228913187 -9.1471300094e-12 -0.0536100947568)
(1.07374965008 -9.42351875484e-12 0.370527255484)
(0.823421003166 3.68453451463e-12 0.757565354056)
(0.626522336368 8.24564541729e-12 1.16375329061)
(0.453607991333 1.04312748329e-11 1.70230529061)
(0.296941854564 4.42883766432e-12 2.48915802537)
(0.0759821739957 6.29519701664e-12 3.32092628631)
(-0.039970673353 -1.06878706843e-11 3.59621911602)
(1.05833610534 -3.33315866385e-11 -0.463731906264)
(1.50731714155 -3.71248855585e-11 -0.750639308469)
(1.89968711173 -3.7810377922e-11 -1.12351536972)
(2.11796749644 -3.79029652633e-11 -1.53900259622)
(2.07973275696 -3.77295944968e-11 -1.89646240928)
(2.04022036069 -3.58645557469e-11 -2.0318399581)
(1.99940499441 -3.02975838503e-11 -1.90609566354)
(1.85280256578 -2.25275605522e-11 -1.53387635021)
(1.5763311766 -1.42237948546e-11 -1.06576516774)
(1.23119361376 -8.33013313934e-12 -0.623462555291)
(0.906755225527 -4.45208092613e-12 -0.24075027433)
(0.622326396622 -1.42261990125e-12 0.0779699488936)
(0.400801200862 -6.14009558384e-12 0.368934921228)
(0.218691250351 -3.61236418692e-12 0.638404599239)
(0.0810221259455 6.31235497642e-12 0.920198466507)
(-0.0398045651399 7.89429422495e-12 1.2614795259)
(-0.146850335199 7.87310553422e-12 1.74121848845)
(-0.24899737717 2.41714929209e-12 2.45525647356)
(-0.252890624821 3.55409977082e-12 3.20594481976)
(-0.167882123101 -9.4438466353e-12 3.4613233344)
(0.366885392647 -3.4418229757e-11 -2.96646078624)
(0.506543105451 -4.14793711645e-11 -2.87470890589)
(0.630553300792 -5.88063971198e-11 -2.72566807998)
(0.688542112904 -5.97331067607e-11 -2.50653417078)
(0.688456977374 -5.62463072031e-11 -2.19094343189)
(0.582423392119 -4.90381178544e-11 -1.75413051618)
(0.412282545552 -3.30538987435e-11 -1.32512964631)
(0.244190683562 -1.82994614221e-11 -0.923976146394)
(0.0976944098905 -8.11997947562e-12 -0.572880484436)
(-0.0349322828183 -3.52254954212e-12 -0.25553067929)
(-0.152052179679 -1.84125729073e-12 0.0294805837771)
(-0.241771518209 -1.40333818163e-12 0.294580181461)
(-0.32156524308 -3.70956248307e-12 0.549012773847)
(-0.396300172829 1.575331791e-12 0.800880064532)
(-0.466702291288 7.6230300982e-12 1.07431690236)
(-0.557558469606 8.42567132598e-12 1.39746119955)
(-0.625552399754 1.47309047588e-11 1.83105078439)
(-0.641803932514 1.17865391247e-12 2.4287904238)
(-0.488154944195 1.74026123892e-12 3.04223198019)
(-0.261856573764 -8.06186123315e-12 3.18667225091)
(-0.052297345488 -2.63838751481e-11 -2.40695424077)
(-0.0873235179823 1.05650365069e-11 -2.27401419984)
(-0.133589049776 -1.26589323989e-10 -2.08342122087)
(-0.192992486441 -9.23601981963e-11 -1.83661521088)
(-0.26348236314 -7.80418324924e-11 -1.5481550499)
(-0.329886730876 -9.89296411471e-11 -1.23743886375)
(-0.385485708415 -3.3613577152e-11 -0.919170076027)
(-0.437214479589 -1.19010415772e-11 -0.608100116047)
(-0.484232719351 -2.45765568435e-12 -0.310201696397)
(-0.529940455184 4.0894651399e-13 -0.0292926427211)
(-0.57220335297 4.56605559883e-13 0.240219386443)
(-0.614237253257 -3.10756932018e-12 0.496278485644)
(-0.66041413752 -1.80622232234e-11 0.741823965887)
(-0.712677436476 4.40415043292e-12 0.984954949135)
(-0.771346369639 8.30941893407e-12 1.24095467372)
(-0.833683358836 9.85342542776e-12 1.53088947748)
(-0.850432955478 1.72018250116e-11 1.90303084957)
(-0.829796628111 1.32133900372e-12 2.35215775151)
(-0.61388111029 4.86456518293e-12 2.78167263358)
(-0.300309709567 -6.2792103417e-12 2.76417828162)
(-0.128193681192 -5.3634923902e-11 -1.67568434725)
(-0.18859048457 -7.83087773347e-11 -1.56036469733)
(-0.251530870908 -1.25976016552e-10 -1.40256770524)
(-0.316735858956 -1.70482401648e-10 -1.20300296058)
(-0.380893492281 -9.02005324354e-11 -0.971744058234)
(-0.443470455549 -6.75287546735e-11 -0.719944722602)
(-0.502846780107 -2.73800758637e-11 -0.461109773928)
(-0.560378534099 -6.58724330081e-12 -0.202455276272)
(-0.610494188843 3.54768441528e-12 0.0511766583698)
(-0.655325570892 7.59809085608e-12 0.297226418552)
(-0.701806355422 1.70327366598e-11 0.535478531785)
(-0.754382888967 4.36646995305e-12 0.765777752886)
(-0.812460273346 1.10075580892e-11 0.98830629582)
(-0.871319640754 7.327348422e-12 1.20903604862)
(-0.93116204789 8.67922022517e-12 1.4344012066)
(-0.964942200826 9.88752870222e-12 1.67718752601)
(-0.957341023531 1.20182939401e-11 1.9510465733)
(-0.887817677319 8.81196867477e-13 2.22916136702)
(-0.637374737687 -1.29348829759e-12 2.44665492163)
(-0.292927548599 -4.2390120737e-12 2.24441576087)
(-0.122181761071 -9.65310300031e-11 -0.991856405648)
(-0.177498010137 -1.54156781139e-10 -0.89371472295)
(-0.235320514011 -1.31276817859e-10 -0.7623688487)
(-0.295063002398 -1.27248070142e-10 -0.59999137193)
(-0.355287142996 -9.51679391215e-11 -0.412781200693)
(-0.415860069059 -9.43253913639e-11 -0.208113641188)
(-0.472741431555 -3.02385185237e-11 0.0065112431263)
(-0.523529639452 -2.00029876091e-11 0.224083191092)
(-0.575023277327 2.39067695276e-11 0.440901031468)
(-0.630855227729 1.38795806377e-11 0.65340135504)
(-0.68790244816 2.02664542218e-11 0.861140412967)
(-0.751825797035 2.70003662464e-11 1.06280616848)
(-0.818507047418 1.34816903675e-11 1.25830047942)
(-0.88290608826 1.99653453954e-11 1.44752094514)
(-0.937254582838 9.01389946886e-12 1.62843083241)
(-0.959347581314 9.12245176144e-12 1.80414062508)
(-0.936994833538 9.22976655419e-12 1.95883104063)
(-0.844598446324 9.33603777078e-13 2.06916775981)
(-0.59836652413 -8.54515042648e-13 2.05970422588)
(-0.260254987962 -1.87511069515e-12 1.68471590121)
(-0.0997456995457 -9.50321397929e-11 -0.447031573572)
(-0.145385686707 -1.18766634434e-10 -0.359247699189)
(-0.194339920792 -1.19312455953e-10 -0.242102604914)
(-0.244450635715 -1.10497141357e-10 -0.0974768614032)
(-0.292713904359 -8.53552154047e-11 0.069348910355)
(-0.339517675369 -6.65136309012e-11 0.251797891294)
(-0.389359521007 -2.63972885927e-11 0.443272579971)
(-0.444301138262 -6.57334706229e-12 0.637228881963)
(-0.502763499955 1.95968110511e-11 0.828876094608)
(-0.564190523832 1.75092505749e-11 1.0166542111)
(-0.630147826677 2.25954474835e-11 1.19932713778)
(-0.702059840178 2.39281470917e-11 1.37390168556)
(-0.773369035423 1.61772009158e-11 1.53849513051)
(-0.839505427412 1.63704340996e-11 1.68544037419)
(-0.885615871039 8.78414924117e-12 1.80673250239)
(-0.898187707577 7.93618630366e-12 1.89137524321)
(-0.866425794219 7.20657659937e-12 1.91598418719)
(-0.757207630726 1.27180124741e-12 1.85035220946)
(-0.525935562011 -3.44500708111e-13 1.63255666853)
(-0.218423830219 2.17381638369e-13 1.11289444258)
(-0.0774920951598 -9.08354419433e-11 -0.0414703243787)
(-0.111623059746 -1.07870826266e-10 0.0413660891423)
(-0.146390690891 -1.06263521024e-10 0.151944415399)
(-0.184200495931 -9.46292221492e-11 0.288551655111)
(-0.226031773745 -7.31921850639e-11 0.44636991374)
(-0.270930745287 -5.27380769509e-11 0.61883308264)
(-0.318186425176 -2.2177371995e-11 0.798790031121)
(-0.36872682612 -3.07555162113e-13 0.980375610655)
(-0.423564061025 3.20028819395e-11 1.15914347827)
(-0.483039217057 1.9564951823e-11 1.3323293978)
(-0.548459652473 2.30145312747e-11 1.49745641292)
(-0.617190002226 2.34699234712e-11 1.65078436987)
(-0.684704036011 1.61936535316e-11 1.78527776552)
(-0.746107993973 1.5006861764e-11 1.8878730442)
(-0.785377248458 7.62915008809e-12 1.94352596056)
(-0.79285629743 1.27814540135e-12 1.93046563063)
(-0.756524766041 6.05097944446e-12 1.82300083656)
(-0.64746654932 1.83599748824e-12 1.59285110071)
(-0.447268460372 5.84996934811e-13 1.19010009378)
(-0.181843537691 1.80557042795e-12 0.564043317867)
(-0.0604666047833 -1.57004120636e-10 0.256680367283)
(-0.0880692201742 -1.15483280384e-10 0.336808841642)
(-0.117739227492 -1.00356390813e-10 0.444276273784)
(-0.150015913043 -8.24398192627e-11 0.577197737975)
(-0.184865924609 -5.62883311942e-11 0.731394229514)
(-0.222757790016 -1.71624655714e-11 0.900871652608)
(-0.263994176731 -1.99972996064e-11 1.07863300845)
(-0.309029746321 -1.71264779975e-11 1.25765432025)
(-0.358369685313 1.07496633566e-11 1.43235410341)
(-0.412445670535 1.91719741835e-11 1.5986640255)
(-0.471227591205 2.44509877333e-11 1.75272722731)
(-0.533067103589 3.33211422914e-11 1.88835323482)
(-0.594443626329 5.13550105135e-12 1.99342904934)
(-0.647905623048 1.4513513705e-11 2.04974986884)
(-0.68026146881 1.48342637481e-11 2.0351265486)
(-0.683995682817 3.84323999863e-12 1.9219043785)
(-0.642499839568 1.02816287052e-11 1.68494072474)
(-0.545003725322 2.43889499192e-12 1.30053406417)
(-0.379745302166 1.38552388816e-12 0.752235425036)
(-0.151512077597 2.83359757581e-12 0.0562207960967)
(-0.0490346263288 -1.24814284391e-10 0.438849450057)
(-0.0713775361911 -1.28538380114e-10 0.518237640659)
(-0.0954414963583 -1.50567136291e-10 0.625341707534)
(-0.121796092314 -8.45073540357e-11 0.758727369215)
(-0.150474499168 -4.93630262117e-11 0.914262822464)
(-0.181980432801 -2.07738892194e-11 1.08596695897)
(-0.216675112054 -1.81078310842e-11 1.26665670815)
(-0.255094757915 -1.2148417985e-11 1.44869562753)
(-0.29763909376 8.97341130898e-12 1.62522128949)
(-0.344479597089 1.74708134657e-11 1.79057410323)
(-0.395471682599 2.42161087748e-11 1.9390206383)
(-0.449124356003 2.75892988791e-11 2.06124237465)
(-0.502172237585 7.59089486194e-12 2.1410022293)
(-0.546593038804 1.39069068775e-11 2.15381700478)
(-0.57310885463 1.31607355972e-11 2.07045357511)
(-0.574342126497 4.92609480406e-12 1.86020027469)
(-0.538748890686 8.30160989957e-12 1.50218851901)
(-0.450128339277 1.97315047465e-12 0.986500660789)
(-0.309731865683 1.5525595692e-12 0.329139400567)
(-0.124587356078 3.34295477648e-12 -0.411956273032)
(-0.0409238265849 -2.08921367361e-10 0.549088495208)
(-0.059631490847 -1.44228414661e-10 0.628414920569)
(-0.0797589807715 -1.25653904911e-10 0.736054191928)
(-0.101828323258 -8.21070675878e-11 0.870728247716)
(-0.125885655009 -4.21094547135e-11 1.02848668432)
(-0.152399142043 1.68737680986e-12 1.2034552474)
(-0.18174488522 -1.47859208882e-11 1.38832146108)
(-0.214395310861 -1.17579677618e-11 1.57484605485)
(-0.250747957119 2.51748336988e-12 1.75501482159)
(-0.290825576122 -2.49219998352e-12 1.92152372089)
(-0.334496536038 2.45147498238e-11 2.06671725881)
(-0.380098953885 3.7912458658e-11 2.17833441902)
(-0.424593163164 9.08904664245e-12 2.23562820467)
(-0.46036789587 1.43340737473e-11 2.20684673326)
(-0.482119332333 1.89853256847e-11 2.05601623941)
(-0.483389590542 5.74933566935e-12 1.75294063032)
(-0.446741672071 5.76791990883e-12 1.28625531339)
(-0.365224967046 -6.89734944313e-12 0.665990795044)
(-0.248394791228 5.12034195475e-13 -0.0771894854388)
(-0.100450380464 3.45577877729e-12 -0.85239489818)
(-0.0352611379388 -1.43655879773e-10 0.589360922299)
(-0.0513419466115 -1.38425556496e-10 0.669054438333)
(-0.0686584033221 -1.26952924616e-10 0.777607724571)
(-0.0875832845678 -1.1516899327e-10 0.913866486459)
(-0.108178489246 -4.70312487197e-11 1.07407327566)
(-0.130803518825 -1.04569950066e-11 1.25243756912)
(-0.155787581425 -1.45937089479e-11 1.44163613122)
(-0.183473355639 -1.11954774269e-11 1.63296775456)
(-0.214334689715 -7.00068480404e-13 1.81746487435)
(-0.248122929058 5.56789798549e-13 1.98633448914)
(-0.285112675338 2.41086920669e-11 2.13013912416)
(-0.323033104153 3.40390705628e-11 2.23384006113)
(-0.3594171796 1.12977687798e-11 2.27171958018)
(-0.387812214848 1.34210739991e-11 2.20399523396)
(-0.405342198471 9.40340568241e-12 1.98860247572)
(-0.40323518459 4.59351353738e-12 1.60005738183)
(-0.364521923297 3.32646369172e-12 1.03997493576)
(-0.293352049545 -5.17783897433e-12 0.332738520641)
(-0.198935213513 -7.21376449175e-13 -0.474436163287)
(-0.0817899952568 2.68351590524e-12 -1.27577643628)
(-0.0318801134618 -1.38553552969e-10 0.58502572712)
(-0.0464366432697 -1.87756057237e-10 0.665111385786)
(-0.0620674998102 -1.30716189902e-10 0.774373896754)
(-0.0790657088265 -1.00415456963e-10 0.911741657149)
(-0.0974671625044 -5.12805179769e-11 1.07362224496)
(-0.117510354666 -2.1117754931e-11 1.25428509807)
(-0.139474307733 -3.25956708051e-11 1.4464681557)
(-0.163545337782 -1.27048244271e-11 1.64117870641)
(-0.190219630302 -2.45266164126e-12 1.82874563753)
(-0.219042831405 1.50976634117e-12 1.99923752984)
(-0.250530878571 2.43597665116e-11 2.14142520823)
(-0.281650955141 4.38428164491e-11 2.23770144605)
(-0.311108881742 2.27148062345e-11 2.2570023476)
(-0.3334946291 1.27621127626e-11 2.15117775753)
(-0.344977891618 6.71089012659e-12 1.87277342757)
(-0.337750350627 -7.40634979518e-12 1.4051903748)
(-0.29759992913 1.51732486149e-13 0.764179591739)
(-0.234913498727 -4.96108905691e-12 -0.0143282173434)
(-0.157033515877 -2.23042094244e-12 -0.869488906907)
(-0.0644978635782 1.30350640403e-12 -1.69288084362)
(-0.0303290925166 -1.16164711294e-10 0.546181082142)
(-0.044166765272 -1.42484553687e-10 0.626466216028)
(-0.058978359995 -1.26266623213e-10 0.736000770517)
(-0.0749972297957 -1.23222239015e-10 0.873752045954)
(-0.0922005178778 -5.83444766115e-11 1.03619536863)
(-0.110742683129 -2.96183567493e-11 1.21765668604)
(-0.130789816263 -3.03230962492e-11 1.41094192007)
(-0.152406309734 -1.55270362668e-11 1.60698612543)
(-0.175970230712 -4.62092057436e-12 1.79561043216)
(-0.200899850481 1.98910159764e-12 1.96591705751)
(-0.227680973879 1.15681619161e-11 2.10515266914)
(-0.253048585345 4.02742982598e-11 2.19334929689)
(-0.276533057626 2.26738736626e-11 2.1935052457)
(-0.294339076137 1.15544018653e-11 2.0491157634)
(-0.299644264311 -2.56522526358e-12 1.70927794035)
(-0.284857330762 -1.61308870715e-11 1.16966082632)
(-0.245362472569 -3.06452781997e-12 0.461399305203)
(-0.190949299549 -5.10652153167e-12 -0.37381366664)
(-0.124847699094 -4.37719327899e-12 -1.2647903577)
(-0.0510056876159 -4.62663222817e-13 -2.10712626583)
(-0.0303837678025 -7.31293983603e-11 0.490012765989)
(-0.0442022015819 -9.98966106484e-11 0.57009025182)
(-0.0589427393979 -6.50687086555e-11 0.679210827636)
(-0.0747703003851 -6.37926457603e-11 0.81632632056)
(-0.0916135189688 -5.43777994503e-11 0.977879265786)
(-0.109536599813 -3.51793744543e-11 1.15825507514)
(-0.128578947019 -3.50789442192e-11 1.35029000501)
(-0.148704985229 -4.5040560131e-11 1.5448613461)
(-0.170077711684 -2.72101138506e-11 1.73148640084)
(-0.192146156022 2.18516063739e-12 1.89859940982)
(-0.215029098505 1.40013207035e-11 2.03217441665)
(-0.236101245912 4.79222598543e-11 2.10985032703)
(-0.254038252352 2.36315517902e-11 2.08796209346)
(-0.266513754374 1.80596952793e-11 1.90152932487)
(-0.264634290463 8.19933789914e-12 1.50039663723)
(-0.240416683658 -1.19692580443e-11 0.897220354429)
(-0.203606585999 -4.40874166116e-12 0.129824662662)
(-0.156379826458 -6.08962514487e-12 -0.746835059846)
(-0.0983777616566 -1.24344974559e-11 -1.66671403608)
(-0.0413203107983 -2.57920344319e-12 -2.52416794411)
(-0.0313739661097 -1.10671744702e-10 0.427851436483)
(-0.0456496671883 -4.30007110853e-11 0.507231571905)
(-0.0608075668983 -1.03354287159e-10 0.615151878277)
(-0.0769888802704 -9.57614856133e-11 0.750501004979)
(-0.0940630284286 -5.62236705949e-11 0.909607160508)
(-0.112022904272 -3.83053849707e-11 1.08683366163)
(-0.130777255799 -3.61541841431e-11 1.27499451021)
(-0.150247572408 -3.94039433506e-11 1.46496535223)
(-0.170269137387 -2.2383444424e-11 1.6461594527)
(-0.190528319897 1.63136700951e-11 1.80662428191)
(-0.210392101001 4.98303220457e-12 1.93124930258)
(-0.228194727505 5.09105958985e-11 1.99478582926)
(-0.241288245734 1.52455434428e-11 1.94582505028)
(-0.249396690533 9.11677201124e-12 1.71163910232)
(-0.236516578315 5.35229239476e-12 1.25036830306)
(-0.210769225456 -7.6775237041e-12 0.589251672516)
(-0.174388645336 2.45805813302e-12 -0.225876798983)
(-0.127941703935 -5.9006032701e-12 -1.13448468403)
(-0.0791863455191 -1.13516076382e-11 -2.07822980915)
(-0.0323387626545 -4.48788779124e-12 -2.94796630504)
(-0.0330448577273 -4.28659454464e-11 0.371744641451)
(-0.0480269729636 -1.92178783982e-12 0.449664679702)
(-0.0638853459881 -6.89048490474e-11 0.555411566121)
(-0.0807261081584 -7.67893991909e-11 0.68763382627)
(-0.0983708674121 -5.46145156716e-11 0.842495837935)
(-0.116735791762 -3.848619199e-11 1.01424518369)
(-0.135631539639 -3.13958215422e-11 1.19569223901)
(-0.154903255384 -1.27957023404e-11 1.37772313775)
(-0.174127829568 -1.66194433431e-11 1.54990269025)
(-0.193231761814 1.41769895475e-11 1.6999763268)
(-0.210507825634 1.03506251095e-11 1.81182241617)
(-0.225944129299 4.38129798446e-11 1.85595173932)
(-0.235405477102 1.50337300335e-11 1.7722844256)
(-0.235440688729 8.33141232323e-12 1.48396495557)
(-0.216069761269 3.60346427503e-12 0.963468434581)
(-0.189306464077 -4.9242216896e-12 0.251017218753)
(-0.150043626447 -6.754756189e-13 -0.598450405192)
(-0.106986861669 -6.7539835565e-12 -1.53515392955)
(-0.0651683664853 -1.67585913593e-11 -2.49596689065)
(-0.0247070986531 -6.38647708179e-12 -3.37843948513)
(-0.0350602507985 -2.82561838641e-11 0.330976922846)
(-0.0509048105399 -2.25625763425e-11 0.406688102299)
(-0.0676505726594 -5.74522724266e-11 0.509181140221)