/*--------------------------------*- C++ -*----------------------------------*\
  =========                 |
  \\      /  F ield         | OpenFOAM: The Open Source CFD Toolbox
   \\    /   O peration     | Website:  https://openfoam.org
    \\  /    A nd           | Version:  7
     \\/     M anipulation  |
\*---------------------------------------------------------------------------*/
FoamFile
{
    version     2.0;
    format      ascii;
    class       volScalarField;
    location    "0.09";
    object      alphat;
}
// * * * * * * * * * * * * * * * * * * * * * * * * * * * * * * * * * * * * * //

dimensions      [1 -1 -1 0 0 0 0];

internalField   nonuniform List<scalar> 
814
(
0.000194052080016
0.000118378297189
1.48694549492e-05
0.000159371585136
9.77592324687e-05
1.27451619002e-05
0.000145567480046
9.25938860624e-05
1.19287365759e-05
0.000123945679503
7.9623657867e-05
2.43808135045e-05
0.000107977870118
7.25223148676e-05
4.00988906071e-05
9.53486454676e-05
7.07180657138e-05
5.25749674496e-05
8.76562944783e-05
7.40242705957e-05
6.58042161242e-05
8.55428645047e-05
8.0740847308e-05
7.85040749116e-05
8.78924634332e-05
8.94973870766e-05
8.97609868596e-05
9.36300062805e-05
9.90995289745e-05
9.91686169297e-05
0.000101497750723
0.000108476172964
0.000106770683958
0.000110448139306
0.00011695106869
0.000112882059893
0.000119382258472
0.000124280678736
0.000117760775108
0.000127797138162
0.00013060468838
0.000122351564436
0.00013545091424
0.000136586385239
0.000127510121256
0.000142446999325
0.00014236906282
0.000133355841687
0.000148887594707
0.000148241880308
0.000140119436523
0.000155260044829
0.000154361475698
0.000147801408621
0.000161960582731
0.00016110097044
0.000156448364076
0.000168880226596
0.000168668816565
0.000166024020897
0.000177401392706
0.000177692430588
0.000177137803596
0.000187538108902
0.000188727446751
0.000190066140528
0.000201614530593
0.000203146340227
0.000205937119096
0.000217172757983
0.000219408207249
0.000223119620625
0.000235336439674
0.000236776200574
0.0002402448117
0.000244885963956
0.000246504997303
0.000248696896491
0.000243905781244
0.000243765154678
0.00024443445346
0.000225055899076
0.00022530050981
0.0002249152864
0.00020078570256
0.000200363767627
0.000200568416797
0.000181374165265
0.000182240293932
0.000183454629691
0.000181601335603
0.000182002287149
0.000184145894138
0.000188027476623
0.000189490671693
0.000191546435818
0.000110287015582
3.93414209233e-05
4.84035639381e-05
5.92870846023e-05
6.83871955933e-05
7.56233220317e-05
8.12624663979e-05
8.57406542425e-05
8.97006163615e-05
9.35648437311e-05
9.85593474772e-05
0.000105101522476
0.000113127205348
0.000122864954436
0.000134245367651
0.000146687785076
0.000160054749867
0.000174563504199
0.000190643410444
0.000208700154605
0.000227205823151
0.00024377887651
0.000250979406169
0.00024424991116
0.000224230027087
0.00020030652272
0.00018534259501
0.000186532407223
0.000194525763504
3.01256480472e-05
0.000184013770247
0.000247467971356
0.000282758669711
0.000307868413464
0.000333239300163
0.000358091484785
0.000383526621251
0.000408185216725
0.000428962271291
0.000445723398168
0.000455720298437
0.00045965072764
0.000456210791448
0.000448614215517
0.000435811284916
0.000424499632215
0.000410638554105
0.000380296902427
0.000112562374386
4.14232686478e-05
0.000149802486184
0.000216357948016
0.000281193113972
0.000321155798035
0.000359222404281
0.000387996622375
0.000413267472191
0.000434489390964
0.000450864924649
0.000463004971712
0.000469431571315
0.000470234590236
0.000465113847396
0.000455611112554
0.000442682216109
0.000429560754833
0.00041537848783
0.00037154426605
0.0001144023775
5.95737489616e-05
0.000107493598067
0.000158921675115
0.000253565895296
0.000308044881521
0.000359142012109
0.000395052005118
0.000424962471193
0.000448075525321
0.000463315626853
0.000473830072737
0.000478704737672
0.000478103972965
0.000472116550008
0.000461450077852
0.00044805344281
0.000433576892854
0.000418947852695
0.000367225716354
0.000115904844233
2.99394252683e-05
3.13169960234e-05
8.95932254894e-05
0.000179032272631
0.000242703166576
0.000312745571546
0.000367504656729
0.000412191769041
0.000448916373709
0.000470115381944
0.000482702464126
0.000487356182306
0.000486122628753
0.00047945465508
0.000467866922784
0.000453739214139
0.00043804543356
0.000422740651288
0.000368595928899
0.000129400365074
3.92956819207e-06
1.5954828323e-06
5.6372760263e-06
5.53325566203e-05
0.000147811004157
0.000220949345541
0.000292379301393
0.00036228637187
0.000426490636144
0.000466844925719
0.00048836942309
0.000495154810811
0.000494040750083
0.000486712943828
0.000474352877238
0.000459313817097
0.000442635862116
0.000426003339309
0.000366565530685
0.000136301018823
7.34756485832e-06
1.63525257112e-06
3.61246399885e-06
3.45451681109e-05
8.87713974609e-05
0.000138382196106
0.000206930204021
0.000293128557411
0.00038430796623
0.000451741477445
0.000489672312811
0.000502625703888
0.000502901676074
0.000495057000212
0.000481828098991
0.000465681627189
0.000447973694216
0.000429692127626
0.000363068193169
0.000142171652246
9.45722356072e-06
1.56426979334e-06
4.11370680563e-06
2.40021110251e-05
5.21017129729e-05
8.39351395307e-05
0.000140734717783
0.000229695984228
0.000335642700362
0.000425944978797
0.000483374141958
0.000507485113626
0.000511597954836
0.000504096252892
0.000490087367733
0.000472811717253
0.000453964253684
0.000433971581426
0.000359614386465
0.000146535912047
1.23414519105e-05
1.80882697046e-06
4.55119066596e-06
1.62165998462e-05
3.07446020306e-05
5.18488261521e-05
9.71604981758e-05
0.000180405965009
0.000289384632808
0.000392858273838
0.000468069771162
0.000507237872854
0.000518592852893
0.000513130454207
0.000498819876478
0.000480535515792
0.000460448893645
0.000438587109283
0.000356241426271
0.000150673195181
1.57169555242e-05
2.43980741002e-06
4.72483878964e-06
1.14794914471e-05
1.92273758149e-05
3.38106101229e-05
7.02603069384e-05
0.000144066350089
0.000247908877589
0.000355779221808
0.000444726586472
0.000500283495006
0.000522358768397
0.000521353350782
0.000507714896467
0.000488688876858
0.000467293321322
0.00044325665485
0.000352437169294
0.00015473742107
1.98160047487e-05
3.63633275665e-06
4.93741843913e-06
9.02098295613e-06
1.32117024949e-05
2.37369485493e-05
5.31702866171e-05
0.000116270776511
0.000210685235482
0.000317389044238
0.000415645927715
0.000486339950106
0.000521635930043
0.000527924799282
0.000516495185796
0.000497224082141
0.000474500434934
0.000447901023816
0.000346728630933
0.00015830361031
2.48630244748e-05
5.45550375352e-06
5.53485018767e-06
8.12020109125e-06
1.02354795182e-05
1.77904185383e-05
4.09012325083e-05
9.29450763267e-05
0.000176642864903
0.000279339682974
0.000382926885374
0.00046607983905
0.000515535162793
0.000531866780633
0.000524760576654
0.000506108995004
0.000482141774514
0.000452573733554
0.00033950407907
0.000161052705072
3.08909299806e-05
8.12325333466e-06
6.78392827162e-06
8.41923455946e-06
9.05591797258e-06
1.3975693479e-05
3.11035319921e-05
7.23138032115e-05
0.000145302618873
0.000242529861801
0.000348055158458
0.000440602920398
0.000503654866433
0.000532119070903
0.000531863816998
0.000515183186103
0.00049026920212
0.000457341183736
0.000332086738814
0.000163095631555
3.8054347147e-05
1.20279416582e-05
9.17914942461e-06
9.78112032844e-06
9.12630618944e-06
1.16078964842e-05
2.33290244187e-05
5.45137016076e-05
0.000116755399906
0.000207262975125
0.000311931600794
0.000410985337329
0.000486124461125
0.000527816920541
0.000536929975091
0.000524105126169
0.000498873935995
0.000462257084964
0.000325611731752
0.000164691372814
4.69967159428e-05
1.77742295134e-05
1.33404197265e-05
1.22399833616e-05
1.03074041912e-05
1.06221868019e-05
1.77783245492e-05
4.01523289931e-05
9.13203431496e-05
0.000173711067287
0.000275388007283
0.000378364459696
0.000463655623199
0.00051854921705
0.000539034063779
0.000532338365712
0.000507872716049
0.000467393617455
0.000320442487436
0.000166033379595
5.80325312057e-05
2.60176638017e-05
1.96239580672e-05
1.61326622784e-05
1.26437440668e-05
1.10612697561e-05
1.46874782627e-05
2.97735499458e-05
6.98580978828e-05
0.000142590616875
0.000239447910014
0.000343854378132
0.000437168484176
0.000504352121803
0.000537389993676
0.000539168140659
0.000517066881716
0.000472850145392
0.000316703223785
0.00016716807927
7.14445577977e-05
3.75460816855e-05
2.8775791049e-05
2.25698535527e-05
1.61740096328e-05
1.28296582512e-05
1.39432569338e-05
2.35529629566e-05
5.39075648579e-05
0.000115967995785
0.00020583971251
0.00030896352759
0.00040768683137
0.000485572784061
0.000531444330376
0.000543734636803
0.000526089264078
0.000478732402856
0.000314515355081
0.000168219553947
8.74525826573e-05
5.31178933766e-05
4.16028642468e-05
3.19914792725e-05
2.09399709188e-05
1.57047799451e-05
1.50755241943e-05
2.09523897153e-05
4.41758263244e-05
9.59015938202e-05
0.000176396108568
0.000274885382432
0.000375651959389
0.000462151149965
0.00052048928583
0.000544976468375
0.0005343098181
0.000485107977364
0.000313988972452
0.000169313363966
0.000105886825449
7.28395575075e-05
5.82945385407e-05
4.4013153067e-05
2.70573242339e-05
1.93604603969e-05
1.77158451092e-05
2.14423279086e-05
4.00308844432e-05
8.18892449555e-05
0.000150286269975
0.000240182455738
0.000339448367832
0.000432511218227
0.000503105871977
0.00054141760448
0.00054070632327
0.00049190787674
0.000315210358211
0.000170541000752
0.000125959349032
9.60797341123e-05
7.84427366534e-05
5.85505403638e-05
3.52936882187e-05
2.35261348057e-05
2.20049826508e-05
2.50246470478e-05
3.96278945386e-05
7.02333724937e-05
0.000122753505053
0.000199427387884
0.000293703934423
0.00039176072818
0.000475541842868
0.000530310012477
0.000543621463251
0.000498824459705
0.000318291856735
0.000171992120349
0.000147047611878
0.000122066814897
0.000101633525282
7.56665808575e-05
4.52189958159e-05
2.78614683608e-05
2.74780186313e-05
3.11126286724e-05
4.11403958619e-05
5.91648665988e-05
9.22968312508e-05
0.000149013642199
0.000231873263663
0.000331982793766
0.000431016334749
0.0005070604043
0.00054033370831
0.000505105571001
0.00032331444112
0.000173763614903
0.000168759538973
0.000149909089936
0.000127437840299
9.5398551621e-05
5.68940400475e-05
3.21125263071e-05
3.21914081934e-05
3.77924232261e-05
4.46329309237e-05
5.26779970687e-05
6.76953197657e-05
9.93483597227e-05
0.000159053250574
0.000250610102859
0.000361555006262
0.000464431634197
0.000526354141512
0.000509266034671
0.000330346666867
0.000175965479791
0.000190893804335
0.000178482499656
0.000154931865801
0.000117084767778
7.01601978531e-05
3.72963359503e-05
3.57250079604e-05
4.3948990463e-05
5.06151853557e-05
5.39556250565e-05
5.78746179938e-05
6.87093910977e-05
9.87254355999e-05
0.000163675473945
0.000268889684712
0.000396172381006
0.000496228083332
0.000508907835087
0.000339214727698
0.000178700787678
0.000212901944106
0.000205743543288
0.000181659635292
0.000138737919209
8.402916741e-05
4.56374364905e-05
4.0889451092e-05
5.11244066011e-05
5.88281176648e-05
6.13945011909e-05
6.0973289224e-05
6.0345928905e-05
6.75813211201e-05
9.91385037318e-05
0.000176045130138
0.000306719930041
0.000446099100086
0.000501191676626
0.000349487746929
0.00018206329116
0.000233462926881
0.00022839755441
0.000203051394925
0.00015577591839
9.62490038126e-05
5.72845802337e-05
5.31217758547e-05
6.36330865819e-05
7.06731253802e-05
7.26665073042e-05
7.15367295136e-05
6.6715238366e-05
6.15734878282e-05
6.83271296683e-05
0.000110008842608
0.000217121992482
0.000380408669259
0.000484943038397
0.000360221560485
0.000186047855644
0.000248917771925
0.000242186282598
0.000213817885157
0.000163597889989
0.000105810324043
7.47716286256e-05
7.73190867455e-05
8.77043060167e-05
9.14039540675e-05
8.88600821373e-05
8.45243080493e-05
7.92418889503e-05
6.95108105544e-05
6.13819909684e-05
7.62695371166e-05
0.000151912680027
0.000316940359252
0.000464016843668
0.000370508453267
0.000190520355585
0.000252937278191
0.00024191772227
0.000210959524365
0.000163082779952
0.000118064154698
0.000104139918357
0.000113808581347
0.000120839265136
0.000118418055184
0.000109526916484
9.84528247129e-05
9.06417989153e-05
8.29438416953e-05
6.69034651617e-05
6.46865196586e-05
0.000116520382417
0.000272517509253
0.000447206379448
0.000379543956554
0.000195132134144
0.000242302943404
0.000228469383702
0.000200606464446
0.000166451012868
0.0001453870038
0.00014842926058
0.000156494176639
0.000153345957261
0.000139883882336
0.000122609096384
0.000106699306499
9.59171173145e-05
9.25735930329e-05
7.63469721443e-05
6.27278312123e-05
0.000104849271903
0.000259020944241
0.000442675580338
0.000385935783764
0.000199328931313
0.000221277184569
0.000210932041587
0.000195707244106
0.000184188414261
0.000184486128984
0.00018910706552
0.000182055501066
0.000160767311231
0.00013460550058
0.000112887911984
9.92505946031e-05
9.48450682693e-05
9.56444254132e-05
8.16008945935e-05
6.40055439954e-05
0.000108213307653
0.000267877879436
0.000447289471436
0.000387785526651
0.000202563573634
0.000200153088693
0.00019933009267
0.000200263720814
0.000204600030623
0.000206131045865
0.000194032540977
0.000165926077296
0.000131330960491
0.000102555080578
8.65195942707e-05
8.16776786418e-05
8.61837448086e-05
9.23593270113e-05
7.80159021535e-05
6.84257404782e-05
0.00012787292262
0.000292439102518
0.000448587539932
0.000382373072453
0.000204631498769
0.000189444201669
0.000197328851048
0.000205798586535
0.000208089627078
0.000195006211875
0.000164884495832
0.000127878274181
9.86074641769e-05
7.90772376076e-05
6.97273050977e-05
6.91656359969e-05
7.61543654051e-05
8.35767670963e-05
7.16779040667e-05
8.26269743894e-05
0.000164994663711
0.000317761944467
0.000429674634767
0.000366357127058
0.000205570647692
0.000192510217682
0.000201974259024
0.000206661687489
0.000198265462528
0.000173485173133
0.000140160781997
0.000108953478264
8.47155351331e-05
7.07731143802e-05
6.56267333601e-05
6.60604592074e-05
7.00381894976e-05
7.48158647801e-05
7.32631892192e-05
0.0001086650723
0.00019596189953
0.00030154713551
0.000370114184267
0.000335136780338
0.000205538386244
0.000200229594355
0.000207657124707
0.000208293632694
0.000196446725438
0.000173723960793
0.000144946599066
0.000112885213945
8.94676765094e-05
7.77749405063e-05
7.38053902279e-05
7.30753230356e-05
7.33563826931e-05
7.49777968139e-05
0.00020132314693
0.000104170095074
0.000170458437941
0.000137978884577
0.000171811373792
0.00015814658346
0.000168991181121
0.000156350934319
0.000166680777272
0.000148626865205
0.000164247626847
0.000139191544912
0.000161969183144
0.0001294866505
0.000159614261143
0.000120076107831
0.000157122593398
0.000111177624412
0.000154482728816
0.000102868757215
0.000151710026659
9.51671998958e-05
0.00014875869861
8.80928913255e-05
0.00014569658926
8.16541999669e-05
0.000142668066082
7.58157280302e-05
0.000139783676872
7.05487119246e-05
0.000137128276474
6.5834859375e-05
0.000134767715217
6.16477627029e-05
0.000132753755111
5.79571292781e-05
0.000131132706996
5.47313351062e-05
0.00012994307501
5.19374628813e-05
0.000129195621457
4.95379840956e-05
0.000128829415813
4.74789558756e-05
0.000128739581507
4.57054244528e-05
0.000128662918034
4.41521376184e-05
0.000128393487004
4.2814344488e-05
0.000127689891723
4.16957195159e-05
0.000126672398958
4.08418007964e-05
0.000125437821835
4.02912843464e-05
)
;

boundaryField
{
    inletfuel
    {
        type            calculated;
        value           nonuniform List<scalar> 3(0.000818667274063 0.000818594810904 0.000818729695356);
    }
    inletair
    {
        type            calculated;
        value           nonuniform List<scalar> 
20
(
0.000390309651087
0.000390306055217
0.000390301808673
0.000390293676162
0.000390286665018
0.000390271409145
0.000390255674988
0.000390236865537
0.000390217340328
0.000390196252007
0.000390174651547
0.000390152432629
0.000390130319012
0.000390108559833
0.000390087339737
0.000390067508289
0.000390048110253
0.000390031528743
0.000390016376533
0.000390009183151
)
;
    }
    outlet
    {
        type            calculated;
        value           nonuniform 0();
    }
    axis
    {
        type            empty;
    }
    leftside
    {
        type            compressible::alphatWallFunction;
        Prt             0.85;
        value           nonuniform List<scalar> 
33
(
0
0
4.93512891872e-06
5.29044883189e-06
5.59063058872e-06
0
0
0
0
0
0
0
0
0
0
0
0
0
0
0
0
0
0
0
0
0
0
0
0
0
0
0
0
)
;
    }
    burnerwall
    {
        type            compressible::alphatWallFunction;
        Prt             0.85;
        value           nonuniform List<scalar> 7(0 0 0 0 0 0 2.70992064041e-06);
    }
    front
    {
        type            wedge;
    }
    back
    {
        type            wedge;
    }
    procBoundary0to1
    {
        type            processor;
        value           nonuniform List<scalar> 
27
(
0.000196104835642
0.000196003839466
0.000198032588468
0.000200200297241
8.68113087296e-05
0.000127960750912
0.0001820571679
0.000229335756215
0.00027345523073
0.000285618769604
0.00020405915696
0.000205528528053
0.000213539476997
0.000217248638112
0.000212477697736
0.000200684954449
0.000172457314014
0.00013721453726
0.0001117339911
9.86911651123e-05
9.31132991142e-05
9.05049890342e-05
8.85652416782e-05
8.68113087296e-05
8.85135915295e-05
0.000124215878927
4.02034801124e-05
)
;
    }
}


// ************************************************************************* //
