/*--------------------------------*- C++ -*----------------------------------*\
  =========                 |
  \\      /  F ield         | OpenFOAM: The Open Source CFD Toolbox
   \\    /   O peration     | Website:  https://openfoam.org
    \\  /    A nd           | Version:  7
     \\/     M anipulation  |
\*---------------------------------------------------------------------------*/
FoamFile
{
    version     2.0;
    format      ascii;
    class       volScalarField;
    location    "0.09";
    object      dQ;
}
// * * * * * * * * * * * * * * * * * * * * * * * * * * * * * * * * * * * * * //

dimensions      [1 2 -3 0 0 0 0];

internalField   nonuniform List<scalar> 
814
(
3.81097115782e-10
1.41350015953e-09
3.12351952227e-09
2.34938474182e-08
1.09835213934e-07
9.67648280169e-07
6.93836766122e-07
4.67495840485e-06
7.43639531511e-05
2.44532699617e-05
0.000328662599601
0.0143454054571
0.000232199450707
0.0034242242867
0.0697233716017
0.000357934005605
0.00344236240614
0.0336576124802
0.000380534160482
0.00278309195759
0.0154385464701
0.000346349235486
0.00195782554438
0.00721071104722
0.000279184131851
0.00127286151897
0.00359070353526
0.000205181928919
0.000801955771407
0.00199967892115
0.000141904800505
0.000510213325537
0.00128671085036
9.5827392708e-05
0.000340672108194
0.000949234584371
6.56134507937e-05
0.000245705223299
0.000775645217687
4.70438005102e-05
0.000190628656282
0.000655116451669
3.57577292578e-05
0.000155481704226
0.000554488409501
2.86556033272e-05
0.000130020880212
0.000463870168701
2.37647172967e-05
0.000109141319108
0.000379380280317
2.00945070746e-05
9.12704135072e-05
0.000304423675699
1.72461142526e-05
7.66585280565e-05
0.000245021339345
1.50383712583e-05
6.51987579937e-05
0.000199658504308
1.34032946788e-05
5.62720561854e-05
0.000164211178694
1.21069175469e-05
4.89294480562e-05
0.000134486501045
1.10609000424e-05
4.27201163514e-05
0.000109857822754
9.96621884926e-06
3.68487391404e-05
8.85602461199e-05
8.86775693992e-06
3.13544623256e-05
7.06275827097e-05
7.70974654661e-06
2.63922474047e-05
5.62133422271e-05
7.26933464693e-06
2.40908247739e-05
4.89583578365e-05
1.08237093381e-05
3.51638317254e-05
6.86055474917e-05
4.05913203448e-05
0.000130290179091
0.000250850106469
0.000171623264485
0.000554071176788
0.00106773011645
0.00046579511441
0.00149821496425
0.00289046895689
0.000817757737117
0.00263567325896
0.00504981962898
0.0180934989571
0.336060912178
0.100383157641
0.0340304848374
0.0139254715505
0.00702993301997
0.00438650489735
0.00326238534756
0.00268010085441
0.0022941503804
0.00192218182942
0.00157480917295
0.00125840156777
0.000975820543198
0.000744546655724
0.000572480103486
0.000447085008541
0.000350141185439
0.000270415151553
0.000207258356926
0.000157133492374
0.000118178497859
8.95167665635e-05
7.44755270432e-05
0.000100494763284
0.000361351917592
0.00153941969325
0.00414671644738
0.00722485948969
3.07531697403e-05
1.0475825347e-05
1.07003965625e-05
8.94087241185e-06
5.86061548187e-06
3.25771697321e-06
1.273719976e-06
4.18802811775e-07
1.28299785741e-07
3.60155021067e-08
9.25948277732e-09
2.14832946956e-09
4.46209228247e-10
8.1726429551e-11
1.29811485773e-11
1.7441277641e-12
1.93678967724e-13
1.70051761607e-14
1.17178412656e-15
1.0434389442e-16
0.000975387709126
0.000348707769537
0.000227921387361
0.000141488680514
7.49886595843e-05
2.53632330983e-05
8.03372235402e-06
2.30671735182e-06
6.26786748227e-07
1.57468043793e-07
3.66565855132e-08
7.75298888496e-09
1.4799890708e-09
2.52605045066e-10
3.78112192736e-11
4.87667163018e-12
5.22621081377e-13
4.51975525398e-14
3.10161545843e-15
2.59144066664e-16
0.00351716579288
0.00159362184311
0.00145507905207
0.000439943149275
0.000170308540279
5.97375972253e-05
1.97420223993e-05
5.49096172232e-06
1.43669395493e-06
3.44441296554e-07
7.73558735031e-08
1.57182351783e-08
2.87078688433e-09
4.69273445087e-10
6.75730331835e-11
8.46887010435e-12
8.86538571711e-13
7.6217126963e-14
5.15852667163e-15
3.96581256499e-16
0.127435658552
0.0225015049274
0.00444645839042
0.00128167195619
0.000659373821062
0.000248570323403
8.80293782257e-05
2.34421090857e-05
5.77196612415e-06
1.29307914381e-06
2.81025934612e-07
5.58305779249e-08
9.96363987814e-09
1.59038318255e-09
2.24554345262e-10
2.77968321611e-11
2.89484047212e-12
2.51628524981e-13
1.71891313339e-14
1.76506473667e-15
1.6019844405
0.942543378545
0.109781990749
0.00797989531575
0.00213803618556
0.000862537614917
0.000335089911829
9.17058528714e-05
2.08503640869e-05
4.24858786101e-06
8.96535479751e-07
1.78766955988e-07
3.21616004157e-08
5.15942344564e-09
7.33503032047e-10
9.17871123781e-11
9.72901096911e-12
8.72048843639e-13
6.32160243455e-14
1.02425575121e-14
0.457525207831
1.02710508416
0.111436724468
0.0118744955441
0.00407863726821
0.00205954829617
0.000931283370337
0.000279378210882
6.08907864874e-05
1.16367633584e-05
2.43227932666e-06
5.02595228818e-07
9.43601118143e-08
1.57027804225e-08
2.31039387378e-09
2.99215174851e-10
3.29641342139e-11
3.09734119876e-12
2.45942402105e-13
5.15645931497e-14
0.180127809386
0.618894382957
0.0622209439995
0.0138000502897
0.00589815346064
0.00345382092482
0.00184266521321
0.000610146513017
0.00013598168596
2.63207564819e-05
5.5830910521e-06
1.22478438155e-06
2.46297667187e-07
4.3643046331e-08
6.80363482042e-09
9.3053122846e-10
1.08401881176e-10
1.08052949188e-11
9.48067033876e-13
2.26934358636e-13
0.100038492988
0.57538687449
0.0558591144511
0.0172433947778
0.00748260119625
0.0044851101638
0.00274067812852
0.000990978957966
0.000241020146863
5.09345240741e-05
1.12175196325e-05
2.63087389828e-06
5.73118661156e-07
1.09895730917e-07
1.84609480928e-08
2.70801878568e-09
3.37876802648e-10
3.59875792401e-11
3.48281663793e-12
8.74070189674e-13
0.0635542572182
0.603701059126
0.0832213577359
0.023951114687
0.009212788461
0.00495885044681
0.00328857786904
0.0013009504576
0.000361246267809
8.77222825508e-05
2.05901642886e-05
5.08712674762e-06
1.20180320885e-06
2.51620586171e-07
4.60524008533e-08
7.32463660948e-09
9.86855374486e-10
1.12776386437e-10
1.19710828767e-11
2.97226860188e-12
0.0463098052382
0.389771438798
0.146174950855
0.0371389468033
0.0122110567192
0.00516000201456
0.00347757802728
0.00151298253643
0.000486898591424
0.000138197834669
3.5424063422e-05
9.07305568406e-06
2.31104611369e-06
5.29951400811e-07
1.06277705083e-07
1.84319556795e-08
2.69403508103e-09
3.3111547115e-10
3.84426872962e-11
9.1722961101e-12
0.0368531957676
0.296002467778
0.248087740586
0.0624183978437
0.0183220869918
0.00565305918206
0.0035559116164
0.00169886565747
0.000621169415806
0.000202697178005
5.7665682144e-05
1.53669581686e-05
4.14327500562e-06
1.03959450631e-06
2.28804206562e-07
4.3349885688e-08
6.88722205014e-09
9.11594467425e-10
1.15557410212e-10
2.62100945281e-11
0.0300536020749
0.220670174278
0.416613752096
0.109370645523
0.0303619623221
0.00721583400369
0.0037939790466
0.00195884045293
0.000779084079436
0.000280617773686
8.89308412803e-05
2.51981790922e-05
7.05888298664e-06
1.92385598311e-06
4.63613173018e-07
9.58374899972e-08
1.6547805655e-08
2.35946258742e-09
3.25617066279e-10
7.01732819883e-11
0.0245519376268
0.161436830116
0.670653927019
0.194828123121
0.0536772550071
0.0115779086502
0.00452261998054
0.00238833294753
0.000985883580751
0.000373064971076
0.000130475068545
4.02244182922e-05
1.16870780899e-05
3.3845450071e-06
8.89818392486e-07
2.00220185454e-07
3.75054162153e-08
5.75873548214e-09
8.614991843e-10
1.77241719879e-10
0.0193591447408
0.116731038939
0.469785928759
0.34654205379
0.099775331155
0.0224572203919
0.00640860260962
0.00310976570367
0.00127840522672
0.000485550704824
0.000182939299117
6.21342637196e-05
1.90448279681e-05
5.72232468195e-06
1.62907264728e-06
3.97541438043e-07
8.05233242773e-08
1.33004225793e-08
2.14775325539e-09
4.25715946305e-10
0.0149863530182
0.0839769992694
0.33016264035
0.633865542724
0.18981557489
0.0453821567635
0.0104506740582
0.00422299554549
0.00167394341019
0.000622238792603
0.00024558265538
9.21612392903e-05
3.04744810408e-05
9.44599238222e-06
2.8576286655e-06
7.54289337071e-07
1.64638301918e-07
2.92022304289e-08
5.06838489596e-09
9.79224794515e-10
0.0113270262559
0.0594570509013
0.229610688649
0.811763065349
0.353806437334
0.0862883193349
0.0173458532971
0.00557480975371
0.00208178413961
0.00076558317312
0.000314657191029
0.000130086419551
4.74557906682e-05
1.55153485781e-05
4.86326346827e-06
1.38304973079e-06
3.23673104708e-07
6.14046416692e-08
1.13899037277e-08
2.16869044455e-09
0.00836421025913
0.0415064444364
0.159245086321
0.56103967117
0.629155534818
0.150536941452
0.0263610712495
0.00660322934274
0.00233515108556
0.000893012250324
0.000392194653305
0.000178540790157
7.32550219119e-05
2.59878304437e-05
8.29965396468e-06
2.50396813644e-06
6.22727013492e-07
1.25274209951e-07
2.4601614471e-08
4.65303327594e-09
0.00618054920963
0.0295869366987
0.113248688435
0.400326703201
1.0986332643
0.242090107817
0.0360891433614
0.0071888468484
0.00261871153986
0.00113728493077
0.000548144742123
0.000269099558326
0.000121906611147
4.72999035547e-05
1.54820768729e-05
4.63142558807e-06
1.20550675691e-06
2.53196518776e-07
5.18033121074e-08
9.75637097541e-09
0.00466323251178
0.0216549272941
0.082790098652
0.297650084407
1.09831755073
0.367653112778
0.0490512458672
0.00977924515447
0.00457802397419
0.00235129905722
0.00116887139248
0.000563295191712
0.00025632679849
0.000104199418547
3.45124511517e-05
9.48739205472e-06
2.45326373725e-06
5.22583219858e-07
1.08521137258e-07
2.02399184504e-08
0.00355928448587
0.0160384694156
0.0609741093848
0.222349082864
0.854816301575
0.544256650908
0.0759319535269
0.0207087465925
0.013547371358
0.00813914959095
0.00403250010609
0.00178590350184
0.000746521462617
0.000290010781931
9.49993397748e-05
2.42047595955e-05
5.43445956217e-06
1.13068274332e-06
2.30782062147e-07
4.20097680528e-08
0.00269495740583
0.011717033788
0.0437252018391
0.157822479379
0.606654437402
0.832152641184
0.148241930125
0.0541005926877
0.0435403915271
0.0311428676035
0.017127450714
0.00742613609955
0.0028125697626
0.000981106360818
0.000304821031751
7.39970100722e-05
1.36180800682e-05
2.58837949948e-06
5.02077052612e-07
8.77095463719e-08
0.00198232870954
0.00823672350554
0.029815533789
0.104196419517
0.38280453602
1.45219730178
0.350331687899
0.155437329326
0.134524565627
0.106339725945
0.0667463133347
0.0318847376101
0.011955413762
0.00379083826655
0.00106849400604
0.000243964736265
4.02824408764e-05
6.0783539861e-06
1.09431451123e-06
1.82004655446e-07
0.00143405512507
0.00556819072883
0.0193363862216
0.0648598106314
0.227565133738
0.834243230299
0.831921845835
0.466818008321
0.427918114163
0.353221230179
0.232817032522
0.121478079538
0.0490394450901
0.0151799882748
0.00389282142503
0.000807213265778
0.00012342539137
1.44137573729e-05
2.31388583847e-06
3.63746905428e-07
0.00102993577516
0.00373351365686
0.0123923021389
0.0401976011905
0.137086769023
0.485790125801
1.42216281406
1.31717944666
1.24817032542
1.0708962503
0.710904234866
0.371256960556
0.156298532595
0.0516090747967
0.0131554737218
0.00253900272095
0.00035151307003
3.25400646664e-05
4.50947310954e-06
6.66694906367e-07
0.000733653437171
0.00250625119199
0.00803148942856
0.0255658842626
0.0853733784114
0.278214902309
0.71091603978
1.17095353988
1.77673387518
2.78844272614
1.84397903441
0.954975197861
0.380141772461
0.130617510368
0.0353431911015
0.00661891576697
0.000826005123019
6.90238733216e-05
7.60650546735e-06
1.07004695935e-06
0.000528713648446
0.00171599558359
0.00536225849469
0.0168150105712
0.0533235675159
0.151907488125
0.348021869272
0.57609910325
0.860144169875
1.38882424889
2.6779133692
1.80770783608
0.742489079183
0.227675520868
0.0637892936279
0.0125081053738
0.00147132543483
0.00011580011615
1.06326835339e-05
1.46490358578e-06
0.000419466015591
0.00129995152638
0.00394558785263
0.0118043884778
0.0333581156717
0.0827833081504
0.172300952314
0.281275667924
0.428009490675
0.714050850623
1.4238120311
2.27121179796
0.946705689019
0.307841320518
0.0821615243305
0.0158485216999
0.00177768386093
0.000138598239695
1.22359801955e-05
1.77107258042e-06
0.000539848691585
0.00158679964091
0.00455164466386
0.0123817774517
0.0310384633717
0.0716814756817
0.151874100767
0.299388966544
0.567428279067
1.00234892252
1.73558554529
2.05400317677
0.930568560775
0.323317756967
0.0830651226101
0.0149032732542
0.00161283268378
0.000128594595591
1.26076306447e-05
2.13872567026e-06
0.00190383573953
0.00544329424742
0.0149523174678
0.0388426832855
0.0962679390601
0.229627857693
0.518829788205
1.10439155167
2.15259694315
2.85726199359
2.08592751475
1.25645601147
0.671509272644
0.252033867268
0.0621171447781
0.0104665898167
0.00118557637417
0.000106691223706
1.40757638735e-05
3.16475770152e-06
0.00803782427375
0.0223745827985
0.0589738535242
0.1481582268
0.357048397457
0.817898610026
1.76161214678
2.09586324113
1.4957088887
1.13308185609
0.862689065624
0.595898539017
0.374081412056
0.14443577633
0.033732843938
0.00557804361245
0.000744920539566
9.84927675961e-05
2.12958366827e-05
6.16831815283e-06
0.0214325004549
0.0586612607939
0.151581478425
0.371994182957
0.868361496954
1.82473228466
1.18989250509
0.77442533018
0.529528502535
0.393308462461
0.312208908761
0.246685161916
0.178258548121
0.065351095183
0.0145497774527
0.00274099135136
0.000539855398054
0.000139409377267
4.45821562581e-05
1.46533293628e-05
0.0369225078191
0.0994472304455
0.253399847546
0.61582604525
1.24806318872
0.78295728946
0.462815596481
0.27479071174
0.179468360188
0.131380685411
0.106424874549
0.0904632209182
0.0725207497875
8.12216870231e-16
1.8872365777e-15
4.45010101745e-15
4.25182592998e-15
1.73069423369e-14
1.07598086043e-14
6.26233737296e-14
3.03444325282e-14
1.95006193097e-13
7.94152154389e-14
5.27145357272e-13
1.88290644213e-13
1.2939667309e-12
4.19940563083e-13
2.97544854332e-12
9.00606737554e-13
6.53371093902e-12
1.87776819554e-12
1.38914121578e-11
3.84374304176e-12
2.89077221495e-11
7.77249982946e-12
6.01365588141e-11
1.5688393813e-11
1.24684672941e-10
3.1716668089e-11
2.56181493038e-10
6.39431513474e-11
5.22085765901e-10
1.28297911106e-10
1.06079836815e-09
2.56441645596e-10
2.15469523854e-09
5.09712485573e-10
4.37957071496e-09
1.00595257702e-09
8.7994251882e-09
1.94954551538e-09
1.70211839252e-08
3.63150285791e-09
3.03959946586e-08
6.30585963429e-09
4.85006748519e-08
1.00144090739e-08
6.83515487058e-08
1.47152119975e-08
9.06048771165e-08
2.1893790036e-08
1.31604682652e-07
3.84126239347e-08
2.43734113072e-07
8.53449921067e-08
5.65810607991e-07
2.22211357714e-07
1.47476722359e-06
6.07877669367e-07
)
;

boundaryField
{
    inletfuel
    {
        type            zeroGradient;
    }
    inletair
    {
        type            zeroGradient;
    }
    outlet
    {
        type            zeroGradient;
    }
    axis
    {
        type            empty;
    }
    leftside
    {
        type            zeroGradient;
    }
    burnerwall
    {
        type            zeroGradient;
    }
    front
    {
        type            wedge;
    }
    back
    {
        type            wedge;
    }
    procBoundary0to1
    {
        type            processor;
        value           nonuniform List<scalar> 
27
(
0.00114112804491
0.00361987410499
0.00683527071273
0.00959254423626
0.0251537244888
0.00636393877548
0.00178815532599
0.000657220204768
0.000285819874234
0.000108584532
3.52293009864e-05
0.0479099612108
0.126155320978
0.318476176286
0.776941352692
0.617514957608
0.355982815641
0.188580426554
0.10486590625
0.0678789795536
0.0498837257699
0.0401636322594
0.0339730994402
0.0251537244888
0.027800850806
3.7502327574e-06
1.5802563546e-06
)
;
    }
}


// ************************************************************************* //
