/*--------------------------------*- C++ -*----------------------------------*\
  =========                 |
  \\      /  F ield         | OpenFOAM: The Open Source CFD Toolbox
   \\    /   O peration     | Website:  https://openfoam.org
    \\  /    A nd           | Version:  7
     \\/     M anipulation  |
\*---------------------------------------------------------------------------*/
FoamFile
{
    version     2.0;
    format      ascii;
    class       volScalarField;
    location    "0.09";
    object      ed::R_H2;
}
// * * * * * * * * * * * * * * * * * * * * * * * * * * * * * * * * * * * * * //

dimensions      [1 -3 -1 0 0 0 0];

internalField   nonuniform List<scalar> 
814
(
-3.7940584536e-08
-4.69075682677e-08
-6.2193119974e-08
-3.6982588984e-06
-5.76319702447e-06
-3.04642652323e-05
-0.00017269251778
-0.00038785783177
-0.00370176262006
-0.00565707946959
-0.0253442544111
-0.663634049082
-0.0516602300105
-0.253919106569
-3.0992636328
-0.0765815122355
-0.245451300593
-1.43776435092
-0.078293043839
-0.190800564838
-0.633761252569
-0.0685221179899
-0.129043031085
-0.284449969354
-0.0531086796955
-0.0806514486994
-0.136115866489
-0.0375262546391
-0.0488441810014
-0.0728428211616
-0.0249500563456
-0.0298682084594
-0.045040653062
-0.0161955539265
-0.0191670842698
-0.0319296409347
-0.0106581978421
-0.0132851167717
-0.0250708861956
-0.00734409615987
-0.00990496884765
-0.0203487816694
-0.00536440388074
-0.00776341300158
-0.0165523953187
-0.00413100887478
-0.00623868327698
-0.0133088551442
-0.0032920006769
-0.00503243029099
-0.0104622184896
-0.00267466902817
-0.00404411725852
-0.00806959868458
-0.00220557896524
-0.00326390610294
-0.00624281165335
-0.00184768965035
-0.00266721881158
-0.00488899379391
-0.00158189806813
-0.00221155579898
-0.0038639617701
-0.00137238148858
-0.00184714923198
-0.00304058052357
-0.00120404389858
-0.0015489331808
-0.00238618958764
-0.00104172355345
-0.00128308069369
-0.00184787367637
-0.000889955587913
-0.00104838657506
-0.00141551667462
-0.000742764630052
-0.000847226931827
-0.00108185869348
-0.000672002449599
-0.00074211542409
-0.000904302758122
-0.000959356264646
-0.00103863411092
-0.00121515262416
-0.00344635051401
-0.00368652885972
-0.00425656533506
-0.0139511986751
-0.0150106176867
-0.0173489469718
-0.0362684486833
-0.0388799094311
-0.0449926418459
-0.0610596560468
-0.0655926578465
-0.0753877653808
-0.697308343054
-12.3537383996
-3.54764122987
-1.15633840874
-0.454957950198
-0.220792672751
-0.132421054692
-0.0946540325291
-0.0747345957505
-0.0614860637391
-0.0495231286017
-0.0390088955355
-0.0299723668949
-0.0223503613561
-0.0164002112309
-0.0121263775941
-0.00910544470343
-0.00685532795795
-0.00508913063908
-0.00374884629209
-0.00273137019215
-0.00197378815381
-0.00143602651439
-0.00114682481682
-0.00148408111255
-0.00511286487706
-0.0208599556312
-0.0538371916194
-0.0899726502114
-0.000137319023873
-2.92827483468e-05
-2.04045407702e-05
-1.22353615627e-05
-5.95083288206e-06
-2.51292392067e-06
-7.59562074084e-07
-1.95686340889e-07
-4.74737316869e-08
-1.06443979667e-08
-2.20133670256e-09
-4.13259986356e-10
-6.97973883066e-11
-1.04394649547e-11
-1.35901058747e-12
-1.50123654777e-13
-1.37437629171e-14
-9.97241695937e-16
-5.69091307664e-17
-4.20464205682e-18
-0.00688487323571
-0.00154105966861
-0.000687167063594
-0.000306139105748
-0.000120391271483
-3.09341229113e-05
-7.57484978298e-06
-1.70417190465e-06
-3.66703675656e-07
-7.35854568431e-08
-1.37790594091e-08
-2.35808450215e-09
-3.6603851721e-10
-5.10182226297e-11
-6.25889894119e-12
-6.63684736615e-13
-5.86377871952e-14
-4.19084521881e-15
-2.38171454179e-16
-1.65108878618e-17
-0.0392168833445
-0.0111312374478
-0.00693420802881
-0.00150490765186
-0.000432294300746
-0.000115196398995
-2.94314700773e-05
-6.41405251442e-06
-1.32900097252e-06
-2.54495690859e-07
-4.59755015026e-08
-7.55891647488e-09
-1.12262507565e-09
-1.49856209151e-10
-1.76854488993e-11
-1.82233898855e-12
-1.57272805568e-13
-1.11738952763e-14
-6.26314901911e-16
-3.99508906386e-17
-1.31402014842
-0.14576303971
-0.0196688689942
-0.004072573601
-0.00155518967555
-0.000445480439294
-0.000121973600371
-2.54513503948e-05
-4.96270613586e-06
-8.88024614773e-07
-1.55243872041e-07
-2.49553007719e-08
-3.62148536832e-09
-4.72047243323e-10
-5.4625957569e-11
-5.55947692832e-12
-4.77326511028e-13
-3.42883689105e-14
-1.93979521323e-15
-1.6526819549e-16
-15.401029715
-5.74201075621
-0.463321205459
-0.0243209047072
-0.00484453398205
-0.00148597310824
-0.00044644997178
-9.57498907481e-05
-1.72406374007e-05
-2.80603851248e-06
-4.76305449359e-07
-7.6847215179e-08
-1.1242337806e-08
-1.47277079017e-09
-1.71604959408e-10
-1.76551205071e-11
-1.54280122842e-12
-1.14282085135e-13
-6.86087485331e-15
-9.22331631011e-16
-4.23208614194
-5.96224494236
-0.449337316088
-0.0346801596949
-0.00887125143141
-0.00340895695042
-0.00119278590552
-0.000280494900968
-4.8420320282e-05
-7.39144786834e-06
-1.24274553593e-06
-2.07783222356e-07
-3.17218698088e-08
-4.31084032479e-09
-5.19834806873e-10
-5.53508152802e-11
-5.02729533e-12
-3.90371273294e-13
-2.56706697441e-14
-4.4656172355e-15
-1.60318514297
-3.44246565872
-0.240079292468
-0.0385900981094
-0.0123045670423
-0.00548958888959
-0.00226825103243
-0.000588998247928
-0.000103986742428
-1.6078300184e-05
-2.74342612857e-06
-4.86970611902e-07
-7.96309512331e-08
-1.15226339417e-08
-1.47221645149e-09
-1.65547528117e-10
-1.58994056825e-11
-1.30971490964e-12
-9.51687118146e-14
-1.89008483273e-14
-0.857167944554
-3.06852234293
-0.206199838258
-0.0461407665068
-0.0149636295382
-0.00684357590634
-0.00324191637799
-0.000919717154469
-0.000177236379851
-2.99220464331e-05
-5.30106511924e-06
-1.00598921446e-06
-1.78203792419e-07
-2.79041276036e-08
-3.84180761778e-09
-4.63334201874e-10
-4.76599284867e-11
-4.19511347718e-12
-3.3623016618e-13
-7.00129054096e-14
-0.524246298044
-3.09154111571
-0.293963579961
-0.0613330197401
-0.0176589698119
-0.0072637208974
-0.00373789227073
-0.00116072122512
-0.000255435123264
-4.95581335357e-05
-9.35772869269e-06
-1.8707466182e-06
-3.59381807941e-07
-6.144470168e-08
-9.21689403334e-09
-1.20525651073e-09
-1.33874924441e-10
-1.26432862199e-11
-1.11145067982e-12
-2.28965682158e-13
-0.367768111477
-1.91975933549
-0.494482203047
-0.0910588441689
-0.0224385659008
-0.00725651817338
-0.00379787159364
-0.00129758687845
-0.000331026412992
-7.5078547363e-05
-1.54827307713e-05
-3.20880686285e-06
-6.6463195764e-07
-1.24458575037e-07
-2.04562087455e-08
-2.91685951966e-09
-3.51479237084e-10
-3.57003087122e-11
-3.43258404619e-12
-6.79533608296e-13
-0.281772989836
-1.40275682067
-0.804585234365
-0.146604293328
-0.0322802576193
-0.00763163113288
-0.00373059107201
-0.00140034146085
-0.000406014707581
-0.000105888704756
-2.4237930143e-05
-5.22664172367e-06
-1.14594956377e-06
-2.34802700765e-07
-4.23543124305e-08
-6.59755132169e-09
-8.64154217876e-10
-9.45246164489e-11
-9.92329638512e-12
-1.86746301393e-12
-0.221220127169
-1.00631678526
-1.29665838043
-0.246181223069
-0.0512809968932
-0.00934790222173
-0.00382249337718
-0.00155152873933
-0.000489524348652
-0.000140953544695
-3.59455194612e-05
-8.24220878406e-06
-1.87761036714e-06
-4.17889638511e-07
-8.25353438596e-08
-1.40275224521e-08
-1.99681731179e-09
-2.35291964702e-10
-2.68915633069e-11
-4.80845696796e-12
-0.173982362147
-0.708520160585
-2.00539437639
-0.420443506722
-0.0868829988663
-0.0143847635478
-0.00437406812791
-0.00181731942383
-0.000595404300424
-0.000180164230407
-5.07123190762e-05
-1.26530405915e-05
-2.98965143468e-06
-7.07031088281e-07
-1.52347707476e-07
-2.81840931046e-08
-4.35253871808e-09
-5.52295967897e-10
-6.842494655e-11
-1.16802024559e-11
-0.132080533537
-0.493145223487
-1.35086407838
-0.717349513086
-0.154709483852
-0.0267411671225
-0.00594675657392
-0.00227248783643
-0.000741945548834
-0.000225422123851
-6.83690988611e-05
-1.87954731555e-05
-4.68524112817e-06
-1.14963121736e-06
-2.68240857511e-07
-5.38181988149e-08
-8.98713039274e-09
-1.22676364574e-09
-1.64056958781e-10
-2.69807948349e-11
-0.0984477758117
-0.341567306997
-0.913305445866
-1.25946605602
-0.281918512461
-0.0517619459047
-0.00929936054237
-0.00296262171294
-0.000933397340183
-0.000277678039478
-8.82441057066e-05
-2.68082384055e-05
-7.20980160263e-06
-1.8250681727e-06
-4.52521778023e-07
-9.82053311934e-08
-1.76718029655e-08
-2.59037219314e-09
-3.72332118539e-10
-5.96853236004e-11
-0.0716480940557
-0.232890106061
-0.611209759512
-1.5499934344
-0.503580415021
-0.0942560964476
-0.0147969416364
-0.00375368330791
-0.00111507292596
-0.000328355992551
-0.000108699196742
-3.63853948358e-05
-1.07968252455e-05
-2.8829297139e-06
-7.40643937929e-07
-1.73174864527e-07
-3.34123585092e-08
-5.23839207235e-09
-8.04695505584e-10
-1.27125584417e-10
-0.050944887029
-0.156600498532
-0.40803307853
-1.03022739528
-0.858971112723
-0.157550792803
-0.0215629720715
-0.00426753115199
-0.00120142950791
-0.000368077714586
-0.000130243751286
-4.80156531518e-05
-1.60267998608e-05
-4.64382382945e-06
-1.21559088523e-06
-3.01526251011e-07
-6.18227867455e-08
-1.02780108935e-08
-1.67157435915e-09
-2.62314143292e-10
-0.0362461003041
-0.10753501725
-0.279374779609
-0.707222379961
-1.44037626525
-0.242976013801
-0.0283266291458
-0.00446068659863
-0.00129416929466
-0.000450442997577
-0.00017497311509
-6.95783428095e-05
-2.56457084874e-05
-8.12803746625e-06
-2.18070857103e-06
-5.36363307081e-07
-1.15098728737e-07
-1.99781674196e-08
-3.38508940017e-09
-5.28961301766e-10
-0.0263273531127
-0.0758192294405
-0.196667529318
-0.506015754929
-1.38433826841
-0.354100735736
-0.0369541684461
-0.00582505816993
-0.00217242770012
-0.000894577057346
-0.000358552621651
-0.000140004471487
-5.18462767792e-05
-1.72181130856e-05
-4.67492914977e-06
-1.05666374472e-06
-2.25265381696e-07
-3.96555285102e-08
-6.81989070906e-09
-1.05534456241e-09
-0.0193416228651
-0.054093140434
-0.139499263528
-0.363836743469
-1.0362184202
-0.503086731941
-0.0548694617893
-0.0118273093847
-0.00616516939247
-0.00297164200601
-0.00118790921254
-0.000426519740155
-0.000145147922964
-4.60767670872e-05
-1.23745507392e-05
-2.59256720652e-06
-4.79904324705e-07
-8.2516181759e-08
-1.3948114725e-08
-2.10661697638e-09
-0.0140935911241
-0.0380658382466
-0.096362011297
-0.248632762565
-0.707401111189
-0.73819769362
-0.10261690272
-0.0295674627519
-0.0189584527512
-0.0108886417594
-0.00483800093716
-0.00170264316127
-0.000525423310231
-0.000149842490852
-3.81785610468e-05
-7.6219868272e-06
-1.1565374184e-06
-1.81666920902e-07
-2.91832796316e-08
-4.22991618553e-09
-0.00997532697237
-0.0257746061833
-0.0633037264873
-0.158079145015
-0.429503746365
-1.23705550415
-0.232160680645
-0.0811670351583
-0.0559069522503
-0.0354978267638
-0.0180293737274
-0.0070052601004
-0.00214371319653
-0.000556289698642
-0.000128654967382
-2.41643830976e-05
-3.2900189532e-06
-4.10282063741e-07
-6.11724624715e-08
-8.44144460551e-09
-0.00694229071235
-0.01678060281
-0.0395527876719
-0.0947774481082
-0.245753762726
-0.683256606145
-0.528196304361
-0.232988840454
-0.169637659182
-0.112334736487
-0.0599393433932
-0.0254968762681
-0.00842399685838
-0.00213839894246
-0.000450445391917
-7.68733818888e-05
-9.69420871105e-06
-9.35665962983e-07
-1.24395750456e-07
-1.6224924554e-08
-0.00479542878069
-0.0108319256229
-0.0244138348682
-0.0565682120726
-0.142513383566
-0.382781997212
-0.86679932817
-0.629789413523
-0.473162729026
-0.324928963616
-0.174275109509
-0.0742250480467
-0.0256525572644
-0.00696897901183
-0.00146204064028
-0.000232436806115
-2.65492944294e-05
-2.03145323104e-06
-2.33151856908e-07
-2.85995532945e-08
-0.00328430804192
-0.00699616680881
-0.0152292933162
-0.0346293548507
-0.0854249414894
-0.21097622605
-0.416658674318
-0.537873700691
-0.646424821546
-0.810599619873
-0.43186855831
-0.181874849799
-0.0594779934755
-0.0168774141483
-0.003769907842
-0.000582369473578
-5.99899544816e-05
-4.14408868854e-06
-3.78222534767e-07
-4.41451707023e-08
-0.00227442835787
-0.0046053084374
-0.00977798130583
-0.0219069452281
-0.0513418314727
-0.110879756669
-0.196283513663
-0.254561108996
-0.300915275484
-0.387954741697
-0.601698598156
-0.329282990788
-0.110768644894
-0.0281212186665
-0.00652837628698
-0.00105767065966
-0.000102750901967
-6.68618887817e-06
-5.08456803505e-07
-5.81215249408e-08
-0.00173261786414
-0.00335093388738
-0.00691259315815
-0.0147837816329
-0.0309008592546
-0.0581606095566
-0.0935251399629
-0.119581380408
-0.144023459285
-0.191791406343
-0.307450637664
-0.39701444734
-0.135222554036
-0.0363768541684
-0.00807142416676
-0.00128829408457
-0.00011938417045
-7.69611171867e-06
-5.62728336777e-07
-6.7578877694e-08
-0.00213895117023
-0.00392486446081
-0.00765558251848
-0.0148990871673
-0.0276483811829
-0.0484418771922
-0.0792808827227
-0.122377214866
-0.183570201593
-0.258878083753
-0.360427309477
-0.345267210442
-0.127666531198
-0.0366726263034
-0.00784473100296
-0.00116507226645
-0.000104167882416
-6.8672805817e-06
-5.5762449069e-07
-7.8482889409e-08
-0.00722905297022
-0.0129085577871
-0.0241278566706
-0.0448781054848
-0.0823875694248
-0.149121670784
-0.260282085554
-0.433973343479
-0.669975080263
-0.710756761026
-0.417575035112
-0.203624301314
-0.0887804098466
-0.0275657058318
-0.00565066313189
-0.000787224107252
-7.36457406558e-05
-5.47946551046e-06
-5.98724337968e-07
-1.11687258578e-07
-0.0292377580757
-0.050857607298
-0.091275488608
-0.164301880505
-0.29346790568
-0.510428017513
-0.850093072401
-0.793607355681
-0.449398862996
-0.27245266592
-0.167084741326
-0.0934550726215
-0.0478520421255
-0.0152850932815
-0.00295775655756
-0.000403690313186
-4.4503430142e-05
-4.86462890741e-06
-8.71147340634e-07
-2.09348645614e-07
-0.0747202607681
-0.127865339513
-0.22512971454
-0.396152601947
-0.685990898533
-1.09603842865
-0.553785956071
-0.283256601026
-0.15386216517
-0.0915404891842
-0.0585834206294
-0.037514650721
-0.0221123186737
-0.00668841728096
-0.00122877462257
-0.000190810275885
-3.10137632933e-05
-6.6212380511e-06
-1.75383274475e-06
-4.78271812889e-07
-0.123502499598
-0.20807415317
-0.361459187883
-0.630297277425
-0.948611100414
-0.453166393592
-0.207769579016
-0.0970060729276
-0.0503457568298
-0.029532187717
-0.0192988046192
-0.013307880594
-0.00870312497188
-3.33529429015e-16
-7.59438883463e-16
-1.75753100832e-15
-1.64554018532e-15
-6.57378814861e-15
-4.00497864713e-15
-2.28764670864e-14
-1.08625330007e-14
-6.85101292387e-14
-2.73406631089e-14
-1.78110229854e-13
-6.2342721066e-14
-4.20467708798e-13
-1.33719765114e-13
-9.29848920777e-13
-2.75799268152e-13
-1.96367587727e-12
-5.53031067789e-13
-4.01518761859e-12
-1.08870713155e-12
-8.03567811482e-12
-2.1172207687e-12
-1.60766716061e-11
-4.10990819905e-12
-3.20567295839e-11
-7.99077443625e-12
-6.33435052543e-11
-1.5493245002e-11
-1.24149207692e-10
-2.98960772259e-11
-2.42595186376e-10
-5.74683189591e-11
-4.73894610508e-10
-1.09852340378e-10
-9.26345940059e-10
-2.08499045151e-10
-1.7899487607e-09
-3.88597825979e-10
-3.32980835324e-09
-6.96131220819e-10
-5.71856482723e-09
-1.16247402249e-09
-8.7752011597e-09
-1.77539094641e-09
-1.18930407646e-08
-2.50876094131e-09
-1.51609725573e-08
-3.58947591283e-09
-2.11774022452e-08
-6.05611213605e-09
-3.77170613583e-08
-1.29389808364e-08
-8.41990691615e-08
-3.23953797241e-08
-2.11042233247e-07
-8.52160715264e-08
)
;

boundaryField
{
    inletfuel
    {
        type            calculated;
        value           uniform 0;
    }
    inletair
    {
        type            calculated;
        value           uniform 0;
    }
    outlet
    {
        type            calculated;
        value           nonuniform 0();
    }
    axis
    {
        type            empty;
    }
    leftside
    {
        type            calculated;
        value           uniform 0;
    }
    burnerwall
    {
        type            calculated;
        value           uniform 0;
    }
    front
    {
        type            wedge;
    }
    back
    {
        type            wedge;
    }
    procBoundary0to1
    {
        type            processor;
        value           uniform 0;
    }
}


// ************************************************************************* //
