/*--------------------------------*- C++ -*----------------------------------*\
  =========                 |
  \\      /  F ield         | OpenFOAM: The Open Source CFD Toolbox
   \\    /   O peration     | Website:  https://openfoam.org
    \\  /    A nd           | Version:  7
     \\/     M anipulation  |
\*---------------------------------------------------------------------------*/
FoamFile
{
    version     2.0;
    format      ascii;
    class       volScalarField;
    location    "0.09";
    object      ed::R_O2;
}
// * * * * * * * * * * * * * * * * * * * * * * * * * * * * * * * * * * * * * //

dimensions      [1 -3 -1 0 0 0 0];

internalField   nonuniform List<scalar> 
814
(
-3.01096918099e-07
-3.722590048e-07
-4.93565320096e-07
-2.93494254307e-05
-4.57367983041e-05
-0.000241764761555
-0.00137048982029
-0.00307804424298
-0.0293772310064
-0.0448946481601
-0.201132296405
-5.2666074961
-0.40997618341
-2.01510496924
-24.5957920686
-0.60775176765
-1.94790436299
-11.4101145333
-0.621334502269
-1.51419549136
-5.02953663715
-0.543792321617
-1.02408698857
-2.25739824974
-0.421471096879
-0.640050830544
-1.08021709221
-0.29780879124
-0.387627985874
-0.578081472007
-0.198003935995
-0.237034448105
-0.357443144116
-0.128528103449
-0.152110202654
-0.253394000093
-0.0845835814604
-0.105430840496
-0.198962843082
-0.058282832144
-0.0786059474403
-0.161488166897
-0.0425719712989
-0.0616105354541
-0.131360000868
-0.032783734253
-0.0495102627085
-0.105619228495
-0.0261253554819
-0.0399374250474
-0.0830282870495
-0.021226204371
-0.0320941613805
-0.0640404285789
-0.0175035002011
-0.0259023966177
-0.0495430255512
-0.0146632864551
-0.0211670793659
-0.0387991113462
-0.0125539613816
-0.0175509324229
-0.0306644453389
-0.0108912353808
-0.0146589976886
-0.0241300822345
-0.00955530631782
-0.0122923516541
-0.0189368281914
-0.00826713017977
-0.0101825432387
-0.0146647468877
-0.00706269784829
-0.00832000799639
-0.0112335567166
-0.00589458870274
-0.00672360273894
-0.00858564311561
-0.00533301921948
-0.00588943659671
-0.00717655715716
-0.00761346242227
-0.00824261232805
-0.00964346529261
-0.027350277576
-0.029256335708
-0.0337801517753
-0.110716874192
-0.119124435733
-0.137681444009
-0.287826828614
-0.308551411341
-0.357062126548
-0.484570137248
-0.520544092007
-0.598278178792
-5.5338470829
-98.0394109528
-28.1541218697
-9.17671499815
-3.61055155962
-1.75221320697
-1.05089502301
-0.751175497918
-0.593094617044
-0.48795411363
-0.39301612189
-0.309575046558
-0.237861050654
-0.177372726462
-0.130152266186
-0.0962350729686
-0.072260914576
-0.0544039620353
-0.0403873996663
-0.0297508875727
-0.0216761854648
-0.0156640056383
-0.0113963230424
-0.00910121502257
-0.0117776848897
-0.0405757548537
-0.165544849375
-0.427252575941
-0.71402399365
-0.00108976536314
-0.000232388229874
-0.000161930671766
-9.70999710047e-05
-4.72258786421e-05
-1.99425933254e-05
-6.02789341303e-06
-1.55296906667e-06
-3.76752084249e-07
-8.44740654891e-08
-1.74698335554e-08
-3.27963603585e-09
-5.53912881614e-10
-8.28477147338e-11
-1.07851237548e-11
-1.19138306223e-12
-1.09070661615e-13
-7.91412164357e-15
-4.51631520574e-16
-3.33680880381e-17
-0.0546384337017
-0.0122298673703
-0.0054533657717
-0.00242952348725
-0.000955426524206
-0.000245493557534
-6.01140955684e-05
-1.35243279637e-05
-2.91016461516e-06
-5.83975037372e-07
-1.09350774984e-07
-1.87137859075e-08
-2.90488591004e-09
-4.04881205404e-10
-4.96706944537e-11
-5.26700975295e-12
-4.65350158004e-13
-3.3258596172e-14
-1.89013141756e-15
-1.3103059721e-16
-0.311225640218
-0.0883376292467
-0.0550299551908
-0.0119429645468
-0.0034306925752
-0.000914199956004
-0.000233568487248
-5.0901995007e-05
-1.05469671032e-05
-2.01968074884e-06
-3.64862112162e-07
-5.99876486508e-08
-8.90916559651e-09
-1.18926061064e-09
-1.40351927202e-10
-1.44621033095e-11
-1.24811880567e-12
-8.8676162268e-14
-4.97044231213e-15
-3.17050730601e-16
-10.4280791096
-1.15677717057
-0.156092372035
-0.0323199912439
-0.0123420032689
-0.00353533792336
-0.000967983904579
-0.000201982211371
-3.93840933452e-05
-7.0473736231e-06
-1.23201716571e-06
-1.98045555822e-07
-2.87401498073e-08
-3.74617238769e-09
-4.33512231648e-10
-4.41200732627e-11
-3.78806871731e-12
-2.72112892615e-13
-1.53942372683e-14
-1.31157031264e-15
-122.222750109
-45.5686638339
-3.67692245018
-0.193010981309
-0.0384462777645
-0.0117926997894
-0.00354303214439
-0.00075987224143
-0.000136821897999
-2.22687541193e-05
-3.77996556009e-06
-6.09860389286e-07
-8.92193229761e-08
-1.16879260404e-08
-1.36185894445e-09
-1.4011124073e-10
-1.22436884091e-11
-9.06943950625e-13
-5.44479822611e-14
-7.31963450112e-15
-33.5858846154
-47.3164448848
-3.56594614225
-0.275222148815
-0.0704023540582
-0.0270535218225
-0.00946596275452
-0.00222601078124
-0.000384264222298
-5.86586158506e-05
-9.86244295986e-06
-1.64897005803e-06
-2.51745126033e-07
-3.42108787222e-08
-4.12541504524e-09
-4.39264710835e-10
-3.98966739376e-11
-3.09799094401e-12
-2.03722732267e-13
-3.54391900773e-14
-12.7228958539
-27.3194473195
-1.90527204432
-0.306251465336
-0.0976491864918
-0.0435654409783
-0.0180008664519
-0.00467429691412
-0.000825239991718
-0.000127597576391
-2.17718615158e-05
-3.86460441349e-06
-6.31952150837e-07
-9.14437563535e-08
-1.16835268022e-08
-1.31378709961e-09
-1.26177867556e-10
-1.03939126849e-11
-7.55259998686e-13
-1.49997351132e-13
-6.80249473102
-24.3518288364
-1.6364043035
-0.366173657149
-0.118751537242
-0.0543106976177
-0.0257278859059
-0.00729888598502
-0.00140654996228
-0.000237461706887
-4.20693141543e-05
-7.98354205185e-06
-1.41422735963e-06
-2.21447479696e-07
-3.04886297296e-08
-3.67702558988e-09
-3.78229744208e-10
-3.32924691198e-11
-2.66832649119e-12
-5.55623227838e-13
-4.16042469024
-24.5345060836
-2.33289837366
-0.486739554682
-0.140141788857
-0.0576449731305
-0.0296639563324
-0.00921149707969
-0.00202713609528
-0.000393293921452
-7.42630432354e-05
-1.48462668188e-05
-2.85205818822e-06
-4.8762586385e-07
-7.31453777484e-08
-9.56492962188e-09
-1.06243295018e-09
-1.00337265807e-10
-8.82048546184e-12
-1.81707430424e-12
-2.91861199016
-15.2352323106
-3.92421648778
-0.722644041471
-0.17807271875
-0.0575878122294
-0.0301399529333
-0.010297664489
-0.00262702944565
-0.000595824221023
-0.000122871130637
-2.54651284105e-05
-5.27452690997e-06
-9.87704692292e-07
-1.62340709417e-07
-2.31482309152e-08
-2.78934329442e-09
-2.83318063227e-10
-2.7241026728e-11
-5.39278658209e-12
-2.2361537093
-11.1322943679
-6.38519773424
-1.16345336902
-0.25617649816
-0.0605647130184
-0.0296060139349
-0.0111131260444
-0.00322213741961
-0.000840333986767
-0.000192352494206
-4.14786892255e-05
-9.09426900423e-06
-1.86339695148e-06
-3.36124313765e-07
-5.23582436658e-08
-6.85793787698e-09
-7.50148450407e-10
-7.87513949898e-11
-1.48202080974e-11
-1.75560549017
-7.9861416575
-10.2902959179
-1.9536970362
-0.406966585001
-0.0741850602481
-0.0303353516926
-0.0123129500367
-0.0038848708979
-0.00111860896246
-0.000285264058569
-6.54102643266e-05
-1.49007376099e-05
-3.31637700894e-06
-6.55001444344e-07
-1.1132258057e-07
-1.58467653026e-08
-1.86727975574e-09
-2.13411757715e-10
-3.81599701631e-11
-1.38072604011
-5.62282419662
-15.9148329866
-3.33664453663
-0.689504484808
-0.114157650042
-0.0347126552997
-0.0144222679858
-0.00472513542089
-0.00142978541819
-0.000402453551262
-0.000100414676613
-2.37259083954e-05
-5.61100690158e-06
-1.20903317019e-06
-2.23669289153e-07
-3.45417976541e-08
-4.38302719491e-09
-5.43021167945e-10
-9.26942219067e-11
-1.04819264319
-3.91360620251
-10.7204729644
-5.69289404028
-1.22777625485
-0.212218211854
-0.0471935290136
-0.0180344897775
-0.00588808846471
-0.00178895258449
-0.00054257796004
-0.000149161092549
-3.71821278321e-05
-9.12348664971e-06
-2.12876255051e-06
-4.27101848824e-07
-7.13219708367e-08
-9.73561049432e-09
-1.3019579241e-09
-2.14119900154e-10
-0.781282688527
-2.7106821025
-7.24800259132
-9.99513720082
-2.23730857853
-0.410783401924
-0.0737998329187
-0.0235114002109
-0.00740745209721
-0.00220365613585
-0.00070030624445
-0.000212750490333
-5.72170689831e-05
-1.44837621465e-05
-3.59121806903e-06
-7.79358645229e-07
-1.40243632912e-07
-2.05572237123e-08
-2.95483200304e-09
-4.73663419043e-10
-0.568600103864
-1.84821857777
-4.85056772718
-12.300765839
-3.99642000333
-0.748017472568
-0.117428700124
-0.0297892741863
-0.00884923164908
-0.00260583695811
-0.00086263808371
-0.000288754914634
-8.56837301383e-05
-2.28789635839e-05
-5.8777588655e-06
-1.37431772966e-06
-2.65160863929e-07
-4.15719401286e-08
-6.38607284791e-09
-1.00887010961e-09
-0.404299213228
-1.24278336925
-3.23815523483
-8.17589653543
-6.81680469449
-1.25032491558
-0.171123995984
-0.0338671766255
-0.0095345584832
-0.00292106900403
-0.00103361591798
-0.000381052779268
-0.00012718886923
-3.68534396699e-05
-9.64694333756e-06
-2.39291581866e-06
-4.90626351307e-07
-8.15664134347e-08
-1.32656334653e-08
-2.08172807786e-09
-0.287649471618
-0.853399141779
-2.21712148517
-5.61252499457
-11.4308427156
-1.92826045834
-0.224800456826
-0.035400060486
-0.0102705425044
-0.00357472084335
-0.00138858866694
-0.000552174534013
-0.000203524639445
-6.45041994267e-05
-1.73061284647e-05
-4.25658541423e-06
-9.13424843704e-07
-1.58546967921e-07
-2.68641086674e-08
-4.19784301436e-09
-0.208934179082
-0.601702282565
-1.56075578939
-4.01574688903
-10.9861245239
-2.81014753807
-0.29326870859
-0.0462277290706
-0.0172404113774
-0.00709937388321
-0.00284547775622
-0.00111107710649
-0.000411452652721
-0.000136643144773
-3.71002918521e-05
-8.3856957106e-06
-1.78770867694e-06
-3.14706733331e-07
-5.41227316179e-08
-8.37522666456e-09
-0.153495342967
-0.429283788696
-1.10706777028
-2.88741260815
-8.22344137854
-3.99250212869
-0.435444683958
-0.0938616641964
-0.04892685567
-0.0235829853611
-0.00942726126264
-0.0033848655955
-0.00115189559696
-0.000365665757014
-9.82045779205e-05
-2.05746433639e-05
-3.8085262765e-06
-6.54849373691e-07
-1.10692399929e-07
-1.67181367119e-08
-0.111846902316
-0.302090932996
-0.764730037192
-1.97315248202
-5.61394340766
-5.85834544235
-0.814368927933
-0.234647726688
-0.150454500507
-0.0864123870557
-0.0383944314447
-0.0135121958386
-0.00416976547258
-0.00118915174206
-0.000302985502443
-6.0488175697e-05
-9.1782943411e-06
-1.44171078736e-06
-2.31598844998e-07
-3.35686638162e-08
-0.0791643103326
-0.204547573051
-0.502379106242
-1.25451792485
-3.40854670332
-9.81728680177
-1.84242984922
-0.64414253065
-0.443678220268
-0.28171116414
-0.143081318619
-0.0555938252535
-0.0170125327445
-0.00441472148834
-0.00102100731052
-0.000191768824003
-2.61096284997e-05
-3.2560032075e-06
-4.8546537034e-07
-6.69914021121e-08
-0.0550940994609
-0.133171058162
-0.313891380849
-0.752154925382
-1.95030470597
-5.42233233612
-4.1917719861
-1.84900213505
-1.34624642709
-0.891489769211
-0.475679323059
-0.202343505229
-0.0668529365889
-0.0169703587627
-0.00357473984486
-0.000610068048598
-7.69333525564e-05
-7.42545591401e-06
-9.87206115694e-07
-1.28761189089e-07
-0.0380565783181
-0.0859622871399
-0.193748476142
-0.448925985873
-1.13098786179
-3.03776236117
-6.8789295029
-4.99801607651
-3.75502489514
-2.57864001681
-1.38304928657
-0.589050840568
-0.203578991419
-0.0553058981146
-0.0116027714467
-0.00184462118414
-0.000210695507941
-1.61216363587e-05
-1.85029583551e-06
-2.26966386029e-07
-0.0260643066416
-0.0555216607861
-0.12085984806
-0.274818960984
-0.677933324586
-1.67430977231
-3.30660806286
-4.2685719154
-5.13003486716
-6.43292796725
-3.4273138783
-1.44336091349
-0.472018044771
-0.133939354063
-0.0299180322766
-0.00462169088414
-0.000476080973242
-3.28875358065e-05
-3.00157841442e-06
-3.50336585742e-07
-0.0180498897781
-0.0365477810728
-0.0775981728383
-0.173853770937
-0.407449368929
-0.879943032532
-1.55770823671
-2.02019990793
-2.3880671098
-3.07881332129
-4.77508704056
-2.61319362686
-0.879061248194
-0.223170316884
-0.0518092697895
-0.00839368659924
-0.000815432347507
-5.30616723401e-05
-4.03511907879e-06
-4.61253094776e-07
-0.0137500754275
-0.0265930501225
-0.054858419327
-0.117324262184
-0.24522957677
-0.46156327074
-0.742216593444
-0.948999219261
-1.14297184018
-1.52205882102
-2.43993181972
-3.15071125014
-1.07312775424
-0.288687135799
-0.0640549156266
-0.0102239167692
-0.00094743415875
-6.10764316938e-05
-4.46581859512e-06
-5.3630675571e-07
-0.0169747412486
-0.0311477697974
-0.0607547914918
-0.11823932824
-0.21941787314
-0.384435298187
-0.629174003086
-0.971186993879
-1.45681524495
-2.05445946958
-2.86035530051
-2.74004457907
-1.01316306952
-0.291034386886
-0.0622558760544
-0.00924602699404
-0.000826677520758
-5.44988181957e-05
-4.42531441349e-06
-6.2284111891e-07
-0.0573698480591
-0.102442464035
-0.191478949855
-0.356153164661
-0.653828704719
-1.18343130565
-2.06560164412
-3.44401747776
-5.31692999297
-5.64057388361
-3.31388031273
-1.61596481249
-0.704562360313
-0.218761760597
-0.0448437280298
-0.00624741962849
-0.000584453450408
-4.34851017243e-05
-4.75148327727e-06
-8.86351377025e-07
-0.232031186561
-0.403606560272
-0.724363334248
-1.30390162573
-2.32896469682
-4.05076265598
-6.74634846371
-6.29807716192
-3.56643457922
-2.1621875108
-1.32598644143
-0.741660538211
-0.379754360269
-0.12130267723
-0.0234727902814
-0.00320369099879
-0.000353179736803
-3.86057513248e-05
-6.91343538015e-06
-1.66139327513e-06
-0.592980854458
-1.01474081461
-1.78663202081
-3.14387163513
-5.44403171216
-8.69817365814
-4.39485175831
-2.24792766488
-1.22105192399
-0.726466381888
-0.464918704309
-0.297716702412
-0.175483616978
-0.0530793569705
-0.00975156962966
-0.00151427255835
-0.000246125584528
-5.25462218246e-05
-1.39184369657e-05
-3.79557064383e-06
-0.980117266539
-1.65127888834
-2.86854429949
-5.00204649031
-7.52818867452
-3.59633374565
-1.64886178433
-0.769841317749
-0.399544509032
-0.234367783603
-0.153155536872
-0.105611494454
-0.069068100529
-2.64689340978e-15
-6.02691577084e-15
-1.39477864281e-14
-1.30590259604e-14
-5.21696588492e-14
-3.17835569074e-14
-1.81547907628e-13
-8.62051876444e-14
-5.43697178749e-13
-2.16975818943e-13
-1.41348484602e-12
-4.94752556093e-13
-3.33683660459e-12
-1.06120160395e-12
-7.37929179972e-12
-2.18874618486e-12
-1.55837544946e-11
-4.38886095617e-12
-3.18645754231e-11
-8.63999239946e-12
-6.37712345446e-11
-1.68022885305e-11
-1.27584651978e-10
-3.26162790462e-11
-2.54402577084e-10
-6.34148784317e-11
-5.02694790997e-10
-1.22954571694e-10
-9.85249549463e-10
-2.37255614958e-10
-1.92523820749e-09
-4.56069244544e-10
-3.76083311505e-09
-8.71789444949e-10
-7.3514921042e-09
-1.65465083602e-09
-1.42050540863e-08
-3.08391684559e-09
-2.6425397639e-08
-5.52450542722e-09
-4.53825966701e-08
-9.22540729988e-09
-6.96400979899e-08
-1.40895231036e-08
-9.4383309188e-08
-1.99095558731e-08
-1.20317653727e-07
-2.8486122398e-08
-1.68064109379e-07
-4.80613760206e-08
-2.99323035573e-07
-1.02683901706e-07
-6.682047876e-07
-2.57090108517e-07
-1.67483360619e-06
-6.76275730142e-07
)
;

boundaryField
{
    inletfuel
    {
        type            calculated;
        value           uniform 0;
    }
    inletair
    {
        type            calculated;
        value           uniform 0;
    }
    outlet
    {
        type            calculated;
        value           nonuniform 0();
    }
    axis
    {
        type            empty;
    }
    leftside
    {
        type            calculated;
        value           uniform 0;
    }
    burnerwall
    {
        type            calculated;
        value           uniform 0;
    }
    front
    {
        type            wedge;
    }
    back
    {
        type            wedge;
    }
    procBoundary0to1
    {
        type            processor;
        value           uniform 0;
    }
}


// ************************************************************************* //
