/*--------------------------------*- C++ -*----------------------------------*\
  =========                 |
  \\      /  F ield         | OpenFOAM: The Open Source CFD Toolbox
   \\    /   O peration     | Website:  https://openfoam.org
    \\  /    A nd           | Version:  7
     \\/     M anipulation  |
\*---------------------------------------------------------------------------*/
FoamFile
{
    version     2.0;
    format      ascii;
    class       volScalarField;
    location    "0.09";
    object      ed::R_H2O;
}
// * * * * * * * * * * * * * * * * * * * * * * * * * * * * * * * * * * * * * //

dimensions      [1 -3 -1 0 0 0 0];

internalField   nonuniform List<scalar> 
814
(
3.39037502635e-07
4.19166573068e-07
5.5575844007e-07
3.30476843291e-05
5.14999953285e-05
0.000272229026787
0.00154318233807
0.00346590207475
0.0330789936264
0.0505517276297
0.226476550816
5.93024154518
0.461636413421
2.26902407581
27.6950557014
0.684333279886
2.19335566358
12.8478788842
0.699627546108
1.7049960562
5.66329788972
0.612314439607
1.15313001965
2.54184821909
0.474579776574
0.720702279243
1.2163329587
0.335335045879
0.436472166876
0.650924293168
0.22295399234
0.266902656564
0.402483797178
0.144723657376
0.171277286924
0.285323641027
0.0952417793025
0.118715957268
0.224033729278
0.0656269283038
0.0885109162879
0.181836948566
0.0479363751796
0.0693739484556
0.147912396187
0.0369147431278
0.0557489459855
0.118928083639
0.0294173561588
0.0449698553384
0.0934905055391
0.0239008733991
0.036138278639
0.0721100272635
0.0197090791663
0.0291663027207
0.0557858372045
0.0165109761054
0.0238342981775
0.0436881051401
0.0141358594498
0.0197624882219
0.034528407109
0.0122636168694
0.0165061469206
0.0271706627581
0.0107593502164
0.0138412848349
0.021323017779
0.00930885373323
0.0114656239324
0.0165126205641
0.00795265343621
0.00936839457145
0.0126490733912
0.00663735333279
0.00757082967077
0.00966750180909
0.00600502166908
0.0066315520208
0.00808085991529
0.00857281868691
0.00928124643896
0.0108586179168
0.0307966280901
0.0329428645677
0.0380367171104
0.124668072868
0.13413505342
0.155030390981
0.324095277298
0.347431320772
0.402054768394
0.545629793295
0.586136749853
0.673665944173
6.23115542595
110.393149352
31.7017630995
10.3330534069
4.06550950981
1.97300587972
1.18331607771
0.845829530447
0.667829212795
0.549440177369
0.442539250491
0.348583942093
0.267833417549
0.199723087818
0.146552477417
0.108361450563
0.0813663592794
0.0612592899932
0.0454765303054
0.0334997338648
0.0244075556569
0.0176377937921
0.0128323495568
0.0102480398394
0.0132617660022
0.0456886197308
0.186404805006
0.48108976756
0.803996643862
0.00122708438701
0.00026167097822
0.000182335212536
0.000109335332567
5.31767115242e-05
2.24555172461e-05
6.78745548712e-06
1.74865540756e-06
4.24225815936e-07
9.51184634558e-08
1.96711702579e-08
3.6928960222e-09
6.2371026992e-10
9.32871796885e-11
1.21441343423e-11
1.341506717e-12
1.22814424532e-13
8.9113633395e-15
5.0854065134e-16
3.7572730095e-17
0.0615233069374
0.0137709270389
0.0061405328353
0.00273566259299
0.00107581779569
0.000276427680446
6.76889453514e-05
1.52284998684e-05
3.27686829082e-06
6.57560494216e-07
1.23129834393e-07
2.10718704097e-08
3.27092442725e-09
4.55899428034e-10
5.59295933949e-11
5.93069448957e-12
5.23987945199e-13
3.74494413908e-14
2.12830287174e-15
1.47541485072e-16
0.350442523562
0.0994688666945
0.0619641632196
0.0134478721987
0.00386298687594
0.001029396355
0.000262999957325
5.73160475214e-05
1.18759680757e-05
2.2741764397e-06
4.10837613665e-07
6.75465651256e-08
1.00317906722e-08
1.33911681979e-09
1.58037376101e-10
1.62844422981e-11
1.40539161123e-12
9.98500575443e-14
5.59675721404e-15
3.5700162124e-16
11.7420992581
1.30254021028
0.17576124103
0.0363925648449
0.0138971929444
0.00398081836265
0.00108995750495
0.000227433561766
4.43467994811e-05
7.93539823787e-06
1.38726103775e-06
2.23000856594e-07
3.23616351756e-08
4.21821963101e-09
4.88138189217e-10
4.96795501911e-11
4.26539522834e-12
3.06401261525e-13
1.73340324815e-14
1.47683850813e-15
137.623779824
51.3106745902
4.14024365564
0.217331886016
0.0432908117465
0.0132786728976
0.00398948211617
0.000855622132178
0.000154062535399
2.50747926318e-05
4.25627100944e-06
6.86707604465e-07
1.00461660782e-07
1.31606968306e-08
1.53346390386e-09
1.57766361237e-10
1.37864896375e-11
1.02122603576e-12
6.13088571144e-14
8.24196613213e-15
37.8179707574
53.2786898271
4.01528345833
0.30990230851
0.0792736054896
0.0304624787729
0.01065874866
0.00250650568221
0.00043268454258
6.60500637189e-05
1.11051884958e-05
1.85675328039e-06
2.83466995841e-07
3.8521719047e-08
4.64524985211e-09
4.94615526115e-10
4.49239692676e-11
3.48836221731e-12
2.29393402011e-13
3.99048073128e-14
14.3260809969
30.7619129782
2.14535133678
0.344841563446
0.109953753534
0.0490550298678
0.0202691174843
0.00526329516205
0.000929226734146
0.000143675876575
2.45152876443e-05
4.3515750254e-06
7.1158310207e-07
1.02966390295e-07
1.31557432537e-08
1.47933462773e-09
1.42077273239e-10
1.17036275945e-11
8.504287105e-13
1.68898199459e-13
7.65966267558
27.4203511794
1.84260414176
0.412314423655
0.13371516678
0.0611542735241
0.0289698022839
0.00821860313949
0.00158378634213
0.00026738375332
4.73703792735e-05
8.98953126631e-06
1.59243115204e-06
2.49351607299e-07
3.43304373473e-08
4.14035979176e-09
4.25889672695e-10
3.7487582597e-11
3.00455665737e-12
6.25636133248e-13
4.68467098828
27.6260471993
2.62686195362
0.548072574422
0.157800758669
0.0649086940279
0.0334018486031
0.0103722183048
0.00228257121854
0.000442852054987
8.3620771928e-05
1.6717013437e-05
3.21143999616e-06
5.4907056553e-07
8.23622717817e-08
1.07701861326e-08
1.19630787462e-09
1.12980552027e-10
9.93193614167e-12
2.04603998639e-12
3.28638010164
17.1549916461
4.41869869082
0.81370288564
0.200511284651
0.0648443304028
0.033937824527
0.0115952513674
0.00295805585864
0.000670902768386
0.000138353861408
2.86739352733e-05
5.93915886761e-06
1.11216326733e-06
1.82796918162e-07
2.60650904348e-08
3.1408225315e-09
3.19018371939e-10
3.06736107742e-11
6.07232019038e-12
2.51792669913
12.5350511886
7.1897829686
1.31005766235
0.28845675578
0.0681963441513
0.0333366050069
0.0125134675053
0.00362815212719
0.000946222691523
0.000216590424349
4.67053309492e-05
1.0240218568e-05
2.09819965224e-06
3.78478626195e-07
5.89557949875e-08
7.72209209486e-09
8.44673066856e-10
8.86746913749e-11
1.66876711113e-11
1.97682561734
8.99245844276
11.5869542983
2.19987825927
0.458247581895
0.0835329624698
0.0341578450698
0.013864478776
0.00437439524655
0.00125956250715
0.00032120957803
7.36524731107e-05
1.6778347977e-05
3.73426664745e-06
7.37536788204e-07
1.25350103022e-07
1.78435826144e-08
2.10257172045e-09
2.40303321022e-10
4.29684271311e-11
1.55470840226
6.3313443572
17.920227363
3.75708804335
0.776387483674
0.128542413589
0.0390867234276
0.0162395874097
0.00532053972132
0.0016099496486
0.000453165870338
0.000113067717204
2.67155598301e-05
6.31803798986e-06
1.36138087767e-06
2.51853382257e-07
3.88943363722e-08
4.93532316281e-09
6.11446114495e-10
1.04374424363e-10
1.18027317672
4.406751426
12.0713370427
6.41024355336
1.3824857387
0.238959378977
0.0531402855875
0.0203069776139
0.00663003401354
0.00201437470834
0.000610947058901
0.000167956565704
4.18673689602e-05
1.02731178671e-05
2.39700340802e-06
4.80920047639e-07
8.03091012294e-08
1.09623741401e-08
1.46601488288e-09
2.41100694989e-10
0.879730464338
3.05224940949
8.16130803718
11.2546032568
2.51922709099
0.462545347829
0.0830991934611
0.0264740219238
0.0083408494374
0.00248133417532
0.000788550350156
0.000239558728739
6.44268705857e-05
1.63088303192e-05
4.04373984706e-06
8.77563976423e-07
1.57915435878e-07
2.31475959055e-08
3.32716412158e-09
5.33348742643e-10
0.64024819792
2.08110868383
5.4617774867
13.8507592734
4.50000041835
0.842273569016
0.13222564176
0.0335429574942
0.00996430457504
0.00293419295066
0.000971337280452
0.00032514030947
9.64805553838e-05
2.57618932978e-05
6.61840280343e-06
1.54749259418e-06
2.98573222438e-07
4.6810332201e-08
7.19076835349e-09
1.13599569402e-09
0.455244100257
1.39938386778
3.64618831336
9.20612393072
7.67577580721
1.40787570838
0.192686968056
0.0381347077774
0.0107359879911
0.00328914671861
0.00116385966926
0.00042906843242
0.000143215669091
4.14972634994e-05
1.08625342228e-05
2.69444206967e-06
5.52449138052e-07
9.18444243282e-08
1.49372078245e-08
2.34404222115e-09
0.323895571922
0.960934159029
2.49649626478
6.31974737453
12.8712189808
2.17123647214
0.253127085972
0.0398607470847
0.0115647117991
0.00402516384093
0.00156356178203
0.000621752876822
0.000229170347932
7.2632236893e-05
1.94868370358e-05
4.79294872131e-06
1.02852357244e-06
1.7852513534e-07
3.02491980676e-08
4.72680431612e-09
0.235261532195
0.677521512006
1.75742331871
4.52176264396
12.3704627923
3.1642482738
0.330222877036
0.0520527872405
0.0194128390775
0.00799395094056
0.00320403037787
0.00125108157798
0.0004632989295
0.000153861257859
4.17752210019e-05
9.44235945532e-06
2.01297405863e-06
3.54362261842e-07
6.0942622327e-08
9.43057122698e-09
0.172836965832
0.48337692913
1.2465670338
3.25124935162
9.25965979874
4.49558886063
0.490314145748
0.105688973581
0.0550920250624
0.0265546273671
0.0106151704752
0.00381138533565
0.00129704351992
0.000411742524101
0.00011057912866
2.31672105704e-05
4.2884306012e-06
7.3736555545e-07
1.24640514654e-07
1.88247536883e-08
0.12594049344
0.340156771242
0.861092048489
2.22178524459
6.32134451885
6.59654313597
0.916985830653
0.26421518944
0.169412953258
0.0973010288151
0.0432324323818
0.0152148389998
0.00469518878281
0.00133899423292
0.00034116406349
6.81101625242e-05
1.03348317595e-05
1.62337770826e-06
2.60782124629e-07
3.77985800017e-08
0.0891396373049
0.230322179235
0.565682832729
1.41259706986
3.83805044969
11.0543423059
2.07459052986
0.725309565808
0.499585172518
0.317208990904
0.161110692346
0.0625990853539
0.019156245941
0.00497101118698
0.0011496622779
0.000215933207101
2.93996474529e-05
3.66628527124e-06
5.46637832811e-07
7.54328467176e-08
0.0620363901733
0.149951660972
0.35344416852
0.84693237349
2.1960584687
6.10558894226
4.71996829046
2.0819909755
1.51588408627
1.0038245057
0.535618666452
0.227840381497
0.0752769334473
0.0191087577051
0.00402518523677
0.000686941430487
8.66275612674e-05
8.36112187699e-06
1.11160186615e-06
1.44986113643e-07
0.0428520070988
0.0967942127629
0.21816231101
0.505494197945
1.27350124536
3.42054435838
7.74572883107
5.62780549003
4.22818762417
2.90356898042
1.55732439608
0.663275888615
0.229231548683
0.0622748771264
0.013064812087
0.00207705799026
0.00023724480237
1.81530895898e-05
2.08344769242e-06
2.55565939323e-07
0.0293486146835
0.062517827595
0.136089141376
0.309448315834
0.763358266075
1.88528599836
3.72326673717
4.8064456161
5.77645968871
7.24352758713
3.85918243661
1.62523576329
0.531496038246
0.150816768212
0.0336879401187
0.00520406035772
0.000536070927724
3.7031624495e-05
3.37980094918e-06
3.94481756444e-07
0.0203243181359
0.0411530895102
0.0873761541441
0.195760716165
0.458791200401
0.990822789201
1.75399175037
2.27476101693
2.68898238528
3.46676806298
5.37678563872
2.94247661764
0.989829893088
0.25129153555
0.0583376460765
0.0094513572589
0.000918183249474
5.97478612183e-05
4.54357588229e-06
5.19374619717e-07
0.0154826932917
0.0299439840099
0.0617710124852
0.132108043817
0.276130436025
0.519723880297
0.835741733407
1.06858059967
1.28699529946
1.71385022736
2.74738245738
3.54772569748
1.20835030828
0.325063989967
0.0721263397934
0.0115122108537
0.0010668183292
6.87725434124e-05
5.02854693189e-06
6.03885633404e-07
0.0191136924189
0.0350726342582
0.0684103740103
0.133138415407
0.247066254323
0.432877175379
0.708454885809
1.09356420874
1.64038544654
2.31333755333
3.22078260999
3.08531178951
1.14082960072
0.327707013189
0.0701006070574
0.0104110992605
0.000930845403174
6.13660987774e-05
4.98293890418e-06
7.01324008319e-07
0.0645989010293
0.115351021822
0.215606806526
0.401031270145
0.736216274143
1.33255297644
2.32588372967
3.87799082124
5.98690507323
6.35133064463
3.73145534784
1.81958911381
0.793342770159
0.246327466428
0.0504943911617
0.00703464373574
0.000658099191063
4.89645672348e-05
5.35020761524e-06
9.98038635603e-07
0.261268944637
0.45446416757
0.815638822856
1.46820350624
2.6224326025
4.56119067349
7.59644153611
7.0916845176
4.01583344222
2.43464017672
1.49307118276
0.835115610833
0.427606402395
0.136587770512
0.026430546839
0.00360738131197
0.000397683166945
4.34703802322e-05
7.78458272078e-06
1.87074192074e-06
0.667701115226
1.14260615412
2.01176173535
3.54002423707
6.1300226107
9.7942120868
4.94863771438
2.5311842659
1.37491408916
0.818006871073
0.523502124938
0.335231353133
0.197595935652
0.0597677742515
0.0109803442522
0.00170508283424
0.000277139347821
5.91674598757e-05
1.56722697104e-05
4.27384245672e-06
1.10361976614
1.85935304151
3.23000348737
5.63234376773
8.47679977494
4.04950013924
1.85663136334
0.866847390676
0.449890265861
0.26389997132
0.172454341491
0.118919375048
0.0777712255009
2.9804228388e-15
6.7863546543e-15
1.57053174365e-14
1.47045661457e-14
5.87434469978e-14
3.57885355546e-14
2.04424374714e-13
9.70677206451e-14
6.12207307988e-13
2.44316482051e-13
1.59159507587e-12
5.57095277159e-13
3.75730431339e-12
1.19492136907e-12
8.3091407205e-12
2.46454545301e-12
1.75474303718e-11
4.94189202396e-12
3.58797630417e-11
9.72869953102e-12
7.18069126594e-11
1.89195092992e-11
1.43661323584e-10
3.67261872453e-11
2.86459306668e-10
7.14056528679e-11
5.66038296251e-10
1.38447816696e-10
1.10939875716e-09
2.67151692184e-10
2.16783339387e-09
5.13537563503e-10
4.23472772556e-09
9.81641785327e-10
8.27783804426e-09
1.86314988117e-09
1.5995002847e-08
3.47251467157e-09
2.97552059923e-08
6.22063664804e-09
5.11011614973e-08
1.03878813224e-08
7.84152991496e-08
1.58649140501e-08
1.06276349953e-07
2.24183168144e-08
1.35478626284e-07
3.20755983108e-08
1.89241511625e-07
5.41174881566e-08
3.37040096931e-07
1.15622882543e-07
7.52403856762e-07
2.89485488241e-07
1.88587583943e-06
7.61491801668e-07
)
;

boundaryField
{
    inletfuel
    {
        type            calculated;
        value           uniform 0;
    }
    inletair
    {
        type            calculated;
        value           uniform 0;
    }
    outlet
    {
        type            calculated;
        value           nonuniform 0();
    }
    axis
    {
        type            empty;
    }
    leftside
    {
        type            calculated;
        value           uniform 0;
    }
    burnerwall
    {
        type            calculated;
        value           uniform 0;
    }
    front
    {
        type            wedge;
    }
    back
    {
        type            wedge;
    }
    procBoundary0to1
    {
        type            processor;
        value           uniform 0;
    }
}


// ************************************************************************* //
