/*--------------------------------*- C++ -*----------------------------------*\
  =========                 |
  \\      /  F ield         | OpenFOAM: The Open Source CFD Toolbox
   \\    /   O peration     | Website:  https://openfoam.org
    \\  /    A nd           | Version:  7
     \\/     M anipulation  |
\*---------------------------------------------------------------------------*/
FoamFile
{
    version     2.0;
    format      ascii;
    class       volScalarField;
    location    "0.09";
    object      epsilon;
}
// * * * * * * * * * * * * * * * * * * * * * * * * * * * * * * * * * * * * * //

dimensions      [0 2 -3 0 0 0 0];

internalField   nonuniform List<scalar> 
814
(
17154.3423949
21551.2934845
55668.4312233
21699.6195719
25859.1487184
47529.9983608
22930.5391226
28479.5892302
44454.6739744
25719.8398031
42385.8687344
147544.296917
31592.993815
65466.1263475
257172.742583
39166.8762318
88138.4305854
283264.986313
48322.8392033
110543.779649
291225.611274
58456.6875841
129627.586092
283371.386953
68807.6136957
143316.397039
264541.68996
78195.3814913
150183.003292
239811.476299
85336.0579444
149941.744
213072.433677
89409.8563714
143865.963171
186635.558453
90258.5867027
133928.350324
161544.336603
88247.7281545
121955.025858
139408.853085
84078.0147886
109514.291214
120905.954124
78502.2510231
97466.2102688
105418.412953
72136.3830066
86129.7605787
92183.4079038
65431.1905635
75600.2278837
80484.0691724
58629.8037564
65971.0682789
69955.7666848
52046.5708858
57292.389079
60556.4865229
45866.5198404
49562.8362808
52170.7479781
40284.7888389
42823.8298894
44821.4539834
35271.0857134
36977.9721963
38474.4109893
30882.011902
31976.7274038
33042.94136
26875.6906211
27559.0030234
28275.1948657
22928.8927597
23316.837575
23746.9239207
18776.6281636
18968.6866969
19157.4976146
14278.9523093
14354.0963466
14392.8531339
9749.96368321
9769.52784811
9740.3497149
6099.4196095
6100.01616174
6064.3286052
3884.46336033
3879.97094665
3853.43960042
2706.26715861
2699.81372801
2681.61039252
5419.9856463
117067.532424
174965.147216
201248.82461
201243.21565
188065.0607
169299.75335
149278.434878
130670.686689
114143.635462
100893.904474
90548.0948513
82093.3475024
74981.1283126
68582.8583554
62219.5254
55700.184754
49225.7775395
43150.809688
37625.5010827
32682.6753893
28172.7808369
23708.8987443
19078.9805252
14273.0172276
9625.39245599
5987.5175697
3808.57749286
2653.75327391
0.846333037926
0.424199735491
0.445177381553
0.468564508551
0.433703718661
0.397081833106
0.345573097748
0.296054059876
0.253400821531
0.214512916497
0.182413725016
0.154222598635
0.130864116678
0.111126391532
0.0957260821269
0.0829812968696
0.074465241789
0.0675183861225
0.0682555874335
0.225194558715
1.2842609982
1.23257410569
1.05437237104
1.05728786841
0.826793155486
0.67340043435
0.524227356506
0.408152821841
0.321402373417
0.255963024973
0.207383112112
0.169799520863
0.14038382423
0.117440802951
0.099582126718
0.0860688046109
0.0762626420453
0.0694814473026
0.0722720198918
0.236826646648
2.75656251532
1.80697477592
1.80252538838
1.66749272498
1.29039488908
0.966241694329
0.701553443003
0.505465522988
0.37688669974
0.286651027168
0.22563880447
0.181270072233
0.147808352764
0.122541220393
0.102948210859
0.0885822664839
0.0778378078845
0.0710207283862
0.0746584955201
0.246974056943
191.018423567
5.29636323786
3.65458002895
2.50225269542
2.14006486016
1.42018210704
1.00739249494
0.649935031674
0.455040496398
0.324969689328
0.247053526565
0.193952863787
0.155964200245
0.128012198297
0.106638925433
0.0911729622692
0.0795339701777
0.0725323246955
0.0748273854697
0.344298711307
4264.75538648
293.236353165
39.7016288664
8.2308980467
4.10495355927
2.40840772131
1.56169039244
0.902465653632
0.575252057494
0.379321619193
0.274850153162
0.209035016252
0.16511549915
0.133772564877
0.110439836491
0.0936744735399
0.0812077764269
0.0737883293397
0.0768284418105
0.457791663396
11952.54608
601.866005979
59.7061878379
13.6795785339
6.54183261773
3.90319801406
2.34534666473
1.30604949489
0.748736303486
0.458170309839
0.313696009218
0.229433550689
0.176985629993
0.141005706665
0.11509112481
0.096694568465
0.0832510964803
0.0753384764827
0.0805185057379
0.5704351351
13210.4788448
479.637977428
55.3145993443
17.9121731879
8.86219968649
5.42285817766
3.16902004086
1.76583046336
0.953898799183
0.558196278648
0.363243941763
0.255545730947
0.191729420549
0.149806277738
0.120600657407
0.100261745543
0.085656289748
0.077273033777
0.0853433572272
0.658175680048
14719.5202619
528.356145674
62.6604728273
23.01464726
11.1136066211
6.59585818288
3.85520419427
2.16400496439
1.16530104382
0.672942284297
0.423145896905
0.28791534004
0.209720028227
0.160328460209
0.127009652047
0.104350113778
0.0883706805348
0.0794760025614
0.0907576803176
0.729158078891
15960.462733
713.110074748
83.6856424104
29.7629878585
13.3155324641
7.31075971037
4.30773676634
2.46850563375
1.36981310299
0.798518602359
0.493997598438
0.327529947213
0.23172221133
0.172969228829
0.13449745023
0.108994542241
0.0913682010727
0.0818511705109
0.0962652891228
0.783122747177
17165.1315951
966.461382366
121.277774321
40.0489373008
15.9155782641
7.81350971656
4.60687922823
2.71315655692
1.56672246045
0.933470130008
0.576398848617
0.375572694352
0.258805055038
0.188409701602
0.143439982705
0.114366658914
0.0947125617122
0.0844320586853
0.102123692732
0.817838484166
18566.1300745
1299.42291435
182.978717583
57.9179862477
20.103627535
8.53774277233
4.90790685692
2.94258431268
1.75851733156
1.07518423397
0.669905644494
0.432906526331
0.292168508861
0.207497348878
0.154355577369
0.120733921895
0.0985297791226
0.0873013506911
0.108462410818
0.832755036749
20054.8096125
1743.07307707
284.788116575
90.3194202316
27.9335442016
9.9851201502
5.33330518925
3.18944933207
1.94633171777
1.21904474641
0.77244731353
0.499600735048
0.332905202883
0.231161774549
0.167857475417
0.128425191972
0.10298029541
0.0905337346753
0.115155093302
0.831708348965
21581.121558
2341.01027956
451.751326704
147.665865807
42.8006243628
12.9112166724
6.02462205865
3.49249568422
2.13538704581
1.36218243336
0.881628150645
0.575300354514
0.381684493415
0.260428480415
0.184650535679
0.137847941972
0.108266224254
0.0942030046245
0.121962361158
0.819668075415
23463.0344737
3188.994515
722.554576499
246.205235718
71.1509842658
18.8951871599
7.33687361119
3.93408973225
2.34642867574
1.50608761619
0.994779404595
0.658969149404
0.438691783143
0.29634548149
0.205582079678
0.149522252396
0.114655777962
0.0984077886837
0.128824822305
0.800632996771
25704.3709044
4358.56627004
1136.14498444
413.877510159
124.42499767
30.8293612676
9.89479106601
4.6344155153
2.61363430513
1.65676131096
1.10958070515
0.74952160098
0.504035777176
0.339854420165
0.23171916446
0.164118980746
0.122506452076
0.103289581188
0.135739375484
0.777974798733
28182.0334806
5940.10838917
1761.62157367
695.526362446
218.811538589
52.9834443729
14.3617178741
5.62901340817
2.93351997705
1.81557045628
1.22537428862
0.846036171119
0.577943177885
0.391900654054
0.26441269194
0.18253595989
0.132297246087
0.109047261963
0.142698734213
0.752893094159
30747.7164089
8011.44904012
2687.89595197
1131.37262887
374.051756197
89.9282541414
20.7425997948
6.72068131058
3.25475716606
1.98354781213
1.34966925542
0.95224155081
0.663617961318
0.454570339467
0.305453746606
0.206096721333
0.14469568056
0.115961717261
0.149721234424
0.726132152359
33136.6394768
10476.8657493
3936.22016905
1724.87848325
599.455566802
142.496967482
28.0220726989
7.67187167801
3.59814351673
2.20692128877
1.51795736051
1.08610841118
0.770593828526
0.5328950368
0.357583178266
0.236678180646
0.160640473829
0.124414209838
0.156880231264
0.698556052531
34840.98519
13107.2834522
5450.84473424
2476.49159251
900.692756665
210.68332633
37.085044262
9.15106297047
4.38519037406
2.71002756916
1.84081244379
1.30135330526
0.922126260603
0.638729214764
0.426218938975
0.277036100355
0.181598853093
0.134953583058
0.164309755229
0.67095657919
35562.3086546
15672.7139915
7170.04426264
3394.0239644
1284.89857792
301.010325093
51.6468247352
12.9689021173
6.69942928399
4.11429550951
2.61922717039
1.73108152751
1.17753786905
0.797360501636
0.522792073154
0.331723596933
0.209616519292
0.148344360032
0.172210280727
0.644030868283
35207.7074829
17956.68299
9034.67723726
4487.9162983
1787.47651254
434.759078559
79.8088887489
22.6601769659
13.1011021054
8.15253565588
4.81380905399
2.78701801013
1.69450404455
1.06862930936
0.669430338366
0.409137101689
0.24791252766
0.165747598877
0.180832434079
0.61838933704
33938.683609
19812.529548
10970.866087
5741.42181963
2410.45895142
633.925301079
133.851665963
44.9106538895
29.224372684
19.2874684429
11.2125665292
5.76214098061
2.94104813351
1.60581763374
0.919133173137
0.526032679359
0.301188308196
0.188523305804
0.190471199897
0.59460400489
31854.111023
21038.3107924
12787.8150525
7062.09325591
3080.72640577
894.948826849
226.739777355
93.2150253492
66.9792076196
48.5451566725
29.8553300506
14.8742412674
6.48266173818
2.84219930027
1.3912548002
0.712722808901
0.377514405893
0.218693220356
0.20148967868
0.573211024725
29235.9178678
21354.8621736
14079.4685383
8118.50921203
3615.74281737
1164.25498114
371.398441674
191.803192209
148.304001487
115.218357711
77.9286453157
40.3266833291
16.233677323
5.85746392639
2.31450766367
1.02724292794
0.485497713609
0.256764068671
0.213848546061
0.554702477852
26180.9558912
20533.4257902
14292.4747489
8408.259334
3807.08733173
1402.79031952
596.41155635
385.458422325
308.720565123
241.65676174
172.573199134
101.439714775
41.6596243149
13.1129233062
4.11728529925
1.50692629121
0.625971540482
0.301504587592
0.227076857081
0.539260124854
22494.3369574
18366.6220381
13095.9467186
7730.95138167
3671.19895893
1666.03254042
961.165915138
712.03509425
558.210423132
418.974346284
297.040819771
192.951500604
94.2859826585
26.9153636824
6.7658106554
2.09290533617
0.778062085008
0.345241458059
0.239139773298
0.52673444536
18204.4674375
15124.9702911
10917.7261474
6652.03260171
3628.74715543
2142.31002791
1492.7206052
1107.20438282
802.061223745
563.877214041
388.912462396
259.440913902
146.233758072
46.3768458312
9.49113184063
2.5130458244
0.870283802502
0.372680803037
0.247242062103
0.51622128153
13594.5680339
11402.3239008
8442.32997605
5587.07393152
3619.0301575
2490.14551947
1749.07063142
1167.3136617
748.60574015
492.216078931
345.204844719
255.470254401
162.951717489
56.5074480871
10.5115317102
2.61344177771
0.886767900616
0.381772543347
0.250768721873
0.505972128247
9155.67361234
7802.47362221
6045.3317054
4384.96258378
3102.78771746
2103.39854066
1304.89626603
736.134395271
407.399409637
251.673262499
185.847416255
163.258698673
127.262860303
43.9926855951
8.65989186444
2.36090084296
0.852721433916
0.379437031064
0.252327147839
0.49450302277
5726.4118574
5019.9158421
4079.98165336
3079.2176477
2108.83083469
1253.01887787
649.963020082
320.559377619
168.150839165
103.61699888
79.4750361274
78.5276057375
71.2818577301
24.5301302811
6.02888777835
1.96240155554
0.799008095699
0.376176549099
0.257915110646
0.481139052092
3674.5460018
3305.81649406
2736.39641296
2009.88841074
1252.34148611
648.127391428
301.188563556
140.156250271
73.3955373561
46.4277373647
36.4338695499
35.8610749823
33.7152676975
12.7819746816
4.22643595661
1.69057069664
0.789705135642
0.406103473697
0.276839678609
0.467950958202
2580.08454314
2362.33244031
1967.81569009
1416.45616404
843.875064843
413.119965523
178.790923805
80.5123230807
43.1446677667
28.2375390571
21.9372714898
19.6723720541
17.367248135
1.49575876888
3.12868264043
7.42254153964
4.13075867231
8.24830256597
4.72271282691
7.79554840933
4.66345552223
7.03099807062
4.43031086215
6.17268752806
4.14767860721
5.39390775325
3.857832746
4.72532677819
3.57721089456
4.16543293727
3.3121217071
3.69993472406
3.06478233496
3.31214642479
2.83567622484
2.98275712097
2.62537375223
2.70253998254
2.4341159919
2.46521860802
2.26084200339
2.26418770865
2.10472575228
2.09396770226
1.96526825345
1.95041653934
1.84173912723
1.82999166794
1.73332203703
1.72995767091
1.63919247909
1.64829711136
1.55849672337
1.58385403304
1.49029192007
1.53541312115
1.43318367622
1.502173662
1.38574991685
1.48115022597
1.34622276465
1.46734650957
1.31456949361
1.45282568988
1.29094779696
1.43237444089
1.27668286091
1.4008524427
1.27289593542
)
;

boundaryField
{
    inletfuel
    {
        type            turbulentMixingLengthDissipationRateInlet;
        mixingLength    0.005;
        phi             phi;
        k               k;
        value           uniform 1630.0935556;
    }
    inletair
    {
        type            turbulentMixingLengthDissipationRateInlet;
        mixingLength    0.005;
        phi             phi;
        k               k;
        value           uniform 0.0603738353925;
    }
    outlet
    {
        type            inletOutlet;
        inletValue      nonuniform 0();
        value           nonuniform 0();
    }
    axis
    {
        type            empty;
    }
    leftside
    {
        type            epsilonWallFunction;
        value           nonuniform List<scalar> 
33
(
1.49575876888
3.12868264043
0.225194558715
0.236826646648
0.246974056943
3.12868264043
4.13075867231
4.72271282691
4.66345552223
4.43031086215
4.14767860721
3.857832746
3.57721089456
3.3121217071
3.06478233496
2.83567622484
2.62537375223
2.4341159919
2.26084200339
2.10472575228
1.96526825345
1.84173912723
1.73332203703
1.63919247909
1.55849672337
1.49029192007
1.43318367622
1.38574991685
1.34622276465
1.31456949361
1.29094779696
1.27668286091
1.27289593542
)
;
    }
    burnerwall
    {
        type            epsilonWallFunction;
        value           nonuniform List<scalar> 7(55668.4312233 47529.9983608 44454.6739744 0.846333037926 1.2842609982 2.75656251532 5419.9856463);
    }
    front
    {
        type            wedge;
    }
    back
    {
        type            wedge;
    }
    procBoundary0to1
    {
        type            processor;
        value           nonuniform List<scalar> 
27
(
1959.30105351
1957.95103198
1950.12410174
1939.74124974
7.99318754689
3.55316121179
1.77611717075
0.950308882111
0.513148812999
0.325679828038
0.460585111181
1909.42333844
1801.83392133
1565.20001003
1186.19996916
741.978121557
364.668001056
155.637354074
71.7950232123
40.752934717
27.7509150608
21.0758235951
16.8421938302
7.99318754689
13.1831637582
1.36075872734
1.28468113282
)
;
    }
}


// ************************************************************************* //
