/*--------------------------------*- C++ -*----------------------------------*\
  =========                 |
  \\      /  F ield         | OpenFOAM: The Open Source CFD Toolbox
   \\    /   O peration     | Website:  https://openfoam.org
    \\  /    A nd           | Version:  7
     \\/     M anipulation  |
\*---------------------------------------------------------------------------*/
FoamFile
{
    version     2.0;
    format      ascii;
    class       volScalarField;
    location    "0.09";
    object      H2;
}
// * * * * * * * * * * * * * * * * * * * * * * * * * * * * * * * * * * * * * //

dimensions      [0 0 0 0 0 0 0];

internalField   nonuniform List<scalar> 
814
(
0.999999978215
0.999999982963
0.99999999317
0.999997780838
0.99999767332
0.999998060992
0.999885113874
0.999803718679
0.999495657661
0.996288319065
0.988142729024
0.902028754819
0.988236646309
0.968885172815
0.84304590258
0.975046975129
0.942510149836
0.791040781996
0.955438353398
0.90822546502
0.738910140637
0.928832773049
0.867564346767
0.690822662725
0.894839753048
0.822582155441
0.64721526703
0.85410560523
0.775567848523
0.607991487802
0.808556693231
0.728789276589
0.572954060995
0.76059147769
0.683856983207
0.541638921049
0.712527852972
0.641559888602
0.512983497687
0.666704694483
0.603170186808
0.488849966698
0.624622349881
0.569171495152
0.468882635923
0.586800404414
0.539129930501
0.452009392951
0.553118641925
0.512693859474
0.437825755209
0.522816107644
0.488926364651
0.425498620041
0.494578900989
0.466376154203
0.412964524989
0.467237814026
0.44386327855
0.399114922101
0.439909503481
0.420741099964
0.383703596891
0.412400195916
0.397016713192
0.367093913274
0.384742798605
0.372757323493
0.349264812461
0.357581875991
0.348527106781
0.330616355924
0.330461436862
0.323804266529
0.310410891508
0.301727879491
0.296773243847
0.286663752475
0.268314138372
0.264548481984
0.256694605408
0.227794355877
0.224820903863
0.218556951689
0.180699289323
0.178377312004
0.173418663944
0.132560258069
0.130741470975
0.12686115932
0.0909647676196
0.0895162794026
0.0864547496916
0.060945587776
0.0597755907661
0.057375251255
0.32647034921
0.378369701129
0.43437391819
0.445485155456
0.442714672961
0.432028197417
0.417546831592
0.401940224356
0.387419896469
0.374717908929
0.365956411019
0.360258933093
0.356571033272
0.354758217727
0.353966693371
0.351991761175
0.347406724353
0.340462432766
0.331865865048
0.321316918227
0.308976723925
0.293865812852
0.273838669612
0.246491527132
0.210296808132
0.166868587166
0.121758405196
0.0824579074246
0.0542266770011
5.56445190648e-06
3.16747696692e-06
1.19466453485e-06
4.49389058132e-07
1.59111111338e-07
5.20225033836e-08
1.59796216247e-08
4.60334010066e-09
1.24539431998e-09
3.11147124023e-10
7.11358592853e-11
1.46869726424e-11
2.70466323154e-12
4.37379248691e-13
6.0839964848e-14
7.11526554082e-15
6.78728240349e-16
5.08739433453e-17
2.77908598968e-18
6.1500220565e-20
0.000318180262114
9.92429810404e-05
2.04485096771e-05
5.29095844843e-06
1.57808127605e-06
4.6682946427e-07
1.34646017607e-07
3.54359101097e-08
8.81238327464e-09
2.01891578577e-09
4.25695683309e-10
8.10816814249e-11
1.38559534005e-11
2.1002081443e-12
2.76965210151e-13
3.11426295332e-14
2.87976313835e-15
2.12064334785e-16
1.11776773726e-17
2.37550114805e-19
0.0013774483432
0.000254361997501
4.51601947899e-05
1.23548517966e-05
4.39962714516e-06
1.45518628827e-06
4.56921136064e-07
1.21635888442e-07
2.9974881573e-08
6.69416557613e-09
1.37875942435e-09
2.54266077947e-10
4.18019301553e-11
6.0909599588e-12
7.75473232303e-13
8.48950966324e-14
7.68981979191e-15
5.62318766191e-16
2.87857853893e-17
5.67254213706e-19
0.0167543366664
0.000539117861968
7.85275946923e-05
2.46991467516e-05
1.13211062799e-05
4.39227402024e-06
1.53198203857e-06
4.19905621786e-07
1.0203925218e-07
2.21115866841e-08
4.49337400406e-09
8.19342891924e-10
1.32459304598e-10
1.89303721226e-11
2.37140266179e-12
2.57084734061e-13
2.3223919125e-14
1.71640688809e-15
8.92825239245e-17
2.10169782635e-18
0.0294669528555
0.00199857265487
0.000291958955991
6.12291051767e-05
2.26415840598e-05
1.0011613078e-05
4.10744506376e-06
1.26484378218e-06
3.07705224e-07
6.44619627488e-08
1.31477908023e-08
2.44979004546e-09
4.02896686349e-10
5.8214618839e-11
7.37123191565e-12
8.10409084849e-13
7.46771432667e-14
5.6938023395e-15
3.10770128889e-16
1.04430112178e-17
0.0651144174066
0.00278350656702
0.000289865830931
7.36588251267e-05
3.10690336841e-05
1.60442350267e-05
7.93271712424e-06
2.81875515652e-06
7.21983855822e-07
1.52080553933e-07
3.21521399751e-08
6.36875623362e-09
1.10757293437e-09
1.67340780432e-10
2.2039253841e-11
2.51732003472e-12
2.41711478122e-13
1.93255552945e-14
1.1300082813e-15
4.62526680942e-17
0.0816545703257
0.00237038709207
0.000233712354016
8.29463458923e-05
3.63252613365e-05
2.00756020044e-05
1.15737453393e-05
4.643389586e-06
1.29504388825e-06
2.91582381774e-07
6.55539235454e-08
1.42098825104e-08
2.69374693018e-09
4.37799678801e-10
6.14804199592e-11
7.44841524926e-12
7.58466339035e-13
6.43231270052e-14
4.0486695238e-15
1.84978174937e-16
0.096104025547
0.00300960374768
0.000272821031562
0.000100265582493
3.93625999206e-05
2.1195766853e-05
1.36456347795e-05
6.04151953194e-06
1.88140732124e-06
4.76541841874e-07
1.15593744235e-07
2.76533739228e-08
5.80293811467e-09
1.03387722167e-09
1.57704986468e-10
2.05980449277e-11
2.25404270499e-12
2.04209189744e-13
1.38040247317e-14
6.60024549439e-16
0.107940329816
0.00604677677643
0.000476344950735
0.000134282926255
4.2720031652e-05
2.01971548387e-05
1.38703210273e-05
6.69114608015e-06
2.36453007535e-06
6.94565232108e-07
1.84427273141e-07
4.79060233393e-08
1.11747632603e-08
2.20930669045e-09
3.70919614553e-10
5.28675862604e-11
6.27261458844e-12
6.09645565021e-13
4.40681147078e-14
2.11059533374e-15
0.120014786799
0.0124513095611
0.000938561487762
0.000200965773945
5.08635963515e-05
1.88016034683e-05
1.30100965799e-05
6.78460419583e-06
2.72050442476e-06
9.30305943957e-07
2.74063397852e-07
7.57288854718e-08
1.95460858553e-08
4.3148045223e-09
8.03998381666e-10
1.25986113033e-10
1.62985355548e-11
1.70370643138e-12
1.31059170254e-13
6.1993179875e-15
0.132517636982
0.0202259913026
0.00177110896451
0.000329867852596
6.96418213066e-05
1.87935165295e-05
1.20563184421e-05
6.7414975532e-06
3.00009654781e-06
1.16812904387e-06
3.84416648776e-07
1.12663860369e-07
3.15464227511e-08
7.78625521191e-09
1.61746566402e-09
2.79799794432e-10
3.96008622842e-11
4.45903794451e-12
3.63774058431e-13
1.70276982333e-14
0.14477679025
0.0290004805605
0.00328622734858
0.000580240569856
0.000107714940212
2.20356006915e-05
1.17105529296e-05
6.90198313453e-06
3.28249371364e-06
1.39665926818e-06
5.11549033822e-07
1.61308288078e-07
4.79006749617e-08
1.31343753344e-08
3.04282731752e-09
5.81924377229e-10
9.02521322628e-11
1.09560816765e-11
9.46180582895e-13
4.41463611924e-14
0.156914644665
0.0391057265295
0.00662303083751
0.00107615989833
0.000184578907049
3.2687651827e-05
1.26812956901e-05
7.45900578576e-06
3.64648014087e-06
1.61739205179e-06
6.50140442088e-07
2.2416094279e-07
7.00878020766e-08
2.08594243724e-08
5.3806870215e-09
1.13819139785e-09
1.93525019023e-10
2.53444612439e-11
2.31641356862e-12
1.08552674564e-13
0.170360395313
0.0512910971097
0.0125978075209
0.00205989974965
0.000349348639925
5.98556970635e-05
1.62703555087e-05
8.5695323817e-06
4.15803385e-06
1.84593414202e-06
7.94008381415e-07
3.01441429394e-07
1.00350041382e-07
3.15390914448e-08
8.99733563092e-09
2.10306209654e-09
3.91751421279e-10
5.53802241863e-11
5.36065219261e-12
2.54756980255e-13
0.184642018907
0.065474700183
0.020666972152
0.00410608226488
0.000710549154713
0.000119008185297
2.43424828178e-05
1.02817010527e-05
4.78394461042e-06
2.08416344649e-06
9.34482447067e-07
3.90205386567e-07
1.40632571324e-07
4.61753184721e-08
1.42797195228e-08
3.6863485712e-09
7.51880319847e-10
1.1479534303e-10
1.17822307811e-11
5.73676468898e-13
0.199653976148
0.0819235101448
0.0312216292085
0.00875328461014
0.00145905553897
0.000232043101068
3.85980523257e-05
1.23060139437e-05
5.29013015883e-06
2.27806246728e-06
1.05793033102e-06
4.8280066713e-07
1.91617628593e-07
6.68249979407e-08
2.17722468828e-08
6.19035886323e-09
1.37974888705e-09
2.27311533858e-10
2.47477060133e-11
1.24601943891e-12
0.215033267754
0.100347699356
0.0442468315767
0.0159832380707
0.00286307417296
0.000423377962056
5.87213678946e-05
1.39548212567e-05
5.46241389293e-06
2.39808950935e-06
1.17379004623e-06
5.8260991442e-07
2.58334100414e-07
9.79836734398e-08
3.29436730246e-08
1.01575976525e-08
2.45995339716e-09
4.35315713834e-10
5.01412041342e-11
2.62662002857e-12
0.229694617774
0.11921467974
0.0588051421874
0.0248259943107
0.00535239728147
0.000710321559664
8.29844692182e-05
1.55303433213e-05
5.89800759162e-06
2.7892758993e-06
1.4545295743e-06
7.66513887917e-07
3.72194496235e-07
1.54566075469e-07
5.38359049112e-08
1.68149783684e-08
4.37244407667e-09
8.22502126989e-10
9.93783808277e-11
5.41992511156e-12
0.242243845265
0.137586066451
0.0744082586488
0.0351488056842
0.00975619010433
0.00112274448306
0.000118854020887
2.2674974622e-05
1.00891978713e-05
5.15470883487e-06
2.65379388637e-06
1.35488214265e-06
6.60303911873e-07
2.89110528434e-07
1.03320658078e-07
3.03376353496e-08
8.07105947128e-09
1.5783226871e-09
1.9656477011e-10
1.10809575199e-11
0.252410714423
0.155191048578
0.0910142468545
0.0471771573772
0.0157120036484
0.00176170278295
0.000198068587065
5.23259553151e-05
2.89652218164e-05
1.5319976127e-05
7.35530353933e-06
3.39725453408e-06
1.53590766244e-06
6.56010205037e-07
2.37788195806e-07
6.67010217966e-08
1.59626977584e-08
3.15177194942e-09
3.9571218533e-10
2.26941160393e-11
0.260247221454
0.172049466191
0.108745458856
0.0613476769022
0.0236882187369
0.00291995786073
0.000418904673781
0.00014901653419
9.32972541001e-05
5.18019551331e-05
2.44691173743e-05
1.04162063697e-05
4.26557859137e-06
1.69080931054e-06
6.08144399514e-07
1.70181100564e-07
3.49526860381e-08
6.59159253246e-09
8.16578241382e-10
4.68009881223e-11
0.266036563457
0.188154771928
0.127336276376
0.0775464725083
0.0341948213551
0.00589985426838
0.00108977070202
0.000477417086942
0.000316027640329
0.00017927656642
8.40378802719e-05
3.38748696665e-05
1.26876944713e-05
4.59586170228e-06
1.58145033382e-06
4.46477566251e-07
8.78500871366e-08
1.39582028546e-08
1.68987905264e-09
9.5999789299e-11
0.268565276243
0.202291698655
0.145269181459
0.0943854254131
0.0466233708269
0.0125439112233
0.00295934421035
0.00164400820557
0.00119011686595
0.000694424398316
0.000313240044714
0.000116270677154
3.87691279479e-05
1.24824838851e-05
3.9730554181e-06
1.10801337608e-06
2.20769320019e-07
2.9353165365e-08
3.39136198865e-09
1.89735061456e-10
0.267332197424
0.211772296251
0.159274902307
0.108330823058
0.0583694713883
0.021856156096
0.00824660834502
0.00531549663977
0.00413868602261
0.00262859078208
0.00117978660521
0.000397459707189
0.000113870793085
3.14877564813e-05
9.110714068e-06
2.47867857418e-06
4.98970900077e-07
5.79413550734e-08
6.26495513252e-09
3.43814443081e-10
0.261151115859
0.214203481598
0.165794389049
0.11581434275
0.066920134212
0.0325738048433
0.0185888795011
0.0146043272069
0.0120064268232
0.0079943150718
0.00385913827843
0.0012841232579
0.00030592531459
7.05475062634e-05
1.78306362911e-05
4.62019759773e-06
9.23731387091e-07
1.06962220725e-07
1.00061379561e-08
5.44994321637e-10
0.247725482676
0.207357430747
0.162734472415
0.115586664417
0.0720182429556
0.0438455712092
0.0321108112998
0.0276791840946
0.0234175846609
0.0168249621979
0.0088796537921
0.00299601507231
0.000730931208672
0.00012796232745
2.71582661411e-05
6.73415322804e-06
1.34241987357e-06
1.58828301699e-07
1.32735959391e-08
7.35355630297e-10
0.22509532296
0.190204214516
0.15040291611
0.109531526741
0.0750840514716
0.0539809093883
0.0438083484344
0.0375926502487
0.0306868030444
0.0219300779082
0.0122796385615
0.00419868631778
0.00107692481395
0.000187180300313
3.24781638289e-05
7.43149508251e-06
1.45314768392e-06
1.7547046776e-07
1.45770662683e-08
8.7380053079e-10
0.19266948319
0.163287821641
0.130102029509
0.0979383329136
0.0723525795936
0.0553922807454
0.0439342655137
0.0341660334295
0.0249060415244
0.0165815103414
0.00931997769592
0.00368780713377
0.00109939074373
0.000199812419817
3.12822105487e-05
6.71453999239e-06
1.27810558535e-06
1.55690876286e-07
1.43879695054e-08
1.03456267432e-09
0.152782472339
0.129151820278
0.10303056743
0.0783866941752
0.0580046625432
0.041955447551
0.0288765033149
0.0181770969509
0.0106971126681
0.00651327942315
0.003920648236
0.00190438176935
0.000709066593017
0.000141434342639
2.28083465608e-05
4.98453537752e-06
9.57287137206e-07
1.24913412498e-07
1.53007950463e-08
1.49878239571e-09
0.110832379134
0.09220793979
0.0717099152918
0.0520796904084
0.0350228873372
0.0212578411448
0.0114585881314
0.00606703348653
0.00335526965403
0.00201987298051
0.00125060735515
0.000689568466369
0.000311559315719
6.88758455959e-05
1.30745220032e-05
3.01425708175e-06
6.20360702673e-07
1.09366072668e-07
2.15803519094e-08
2.86052855395e-09
0.0740078884233
0.0593845125852
0.0434405041765
0.0284311768136
0.0161241417202
0.00795217548067
0.0038656472241
0.00191946262711
0.00102928102577
0.00060756403817
0.000378940791552
0.000226376825272
0.000116861969266
2.89810132363e-05
6.48529657881e-06
1.63893300957e-06
4.29770761085e-07
1.34610188767e-07
4.03010227998e-08
6.65093965969e-09
0.0477704810898
0.0366912173324
0.0248729256939
0.0143199351586
0.00690328843998
0.00316396481553
0.00142866360124
0.000672124130941
0.000350967151199
0.000201915361502
0.000124209091553
7.69592089969e-05
4.40272275376e-05
2.58344786302e-18
2.92848949067e-18
5.58830715866e-18
6.32495408326e-18
1.98342239773e-17
1.53620198958e-17
7.02660445704e-17
4.16197715541e-17
2.19823042381e-16
1.04700380243e-16
6.05179394344e-16
2.38697441306e-16
1.51744157697e-15
5.11981761604e-16
3.55922461899e-15
1.05608541087e-15
7.94404368465e-15
2.11809530335e-15
1.70934336104e-14
4.17095752143e-15
3.58414591878e-14
8.11446640195e-15
7.48488045313e-14
1.57593570132e-14
1.55236781243e-13
3.0658683815e-14
3.18008388123e-13
5.94879953486e-14
6.44203818984e-13
1.14893244095e-13
1.297564277e-12
2.21096192179e-13
2.60623483409e-12
4.23193061292e-13
5.22646462197e-12
8.0453651058e-13
1.03391779161e-11
1.50257729445e-12
1.96537756343e-11
2.69870850097e-12
3.4422389356e-11
4.52141784073e-12
5.37517150522e-11
6.93392808999e-12
7.39428074677e-11
9.84832240588e-12
9.54111664141e-11
1.41775229942e-11
1.34636175588e-10
2.40942343912e-11
2.42204366797e-10
5.19209478317e-11
5.47483798722e-10
1.31298483027e-10
1.39585023417e-09
3.4924520219e-10
)
;

boundaryField
{
    inletfuel
    {
        type            fixedValue;
        value           uniform 1;
    }
    inletair
    {
        type            fixedValue;
        value           uniform 0;
    }
    outlet
    {
        type            zeroGradient;
    }
    axis
    {
        type            empty;
    }
    leftside
    {
        type            zeroGradient;
    }
    burnerwall
    {
        type            zeroGradient;
    }
    front
    {
        type            wedge;
    }
    back
    {
        type            wedge;
    }
    procBoundary0to1
    {
        type            processor;
        value           nonuniform List<scalar> 
27
(
0.0403269372967
0.0394954772629
0.0377598038976
0.0354745225138
1.22031456785e-05
3.20210459777e-06
1.02481049154e-06
4.23968490123e-07
2.09972075951e-07
8.14213838596e-08
1.55460749753e-08
0.0307875329772
0.0227038832141
0.0142589525293
0.007224795058
0.00329529670048
0.00141235296384
0.00059621130254
0.00027077216722
0.000140354924944
8.00315819216e-05
4.86720193633e-05
3.05353317611e-05
1.22031456785e-05
1.8500749821e-05
3.48883375396e-09
8.8362237854e-10
)
;
    }
}


// ************************************************************************* //
