/*--------------------------------*- C++ -*----------------------------------*\
  =========                 |
  \\      /  F ield         | OpenFOAM: The Open Source CFD Toolbox
   \\    /   O peration     | Website:  https://openfoam.org
    \\  /    A nd           | Version:  7
     \\/     M anipulation  |
\*---------------------------------------------------------------------------*/
FoamFile
{
    version     2.0;
    format      ascii;
    class       volScalarField;
    location    "0.09";
    object      H2O;
}
// * * * * * * * * * * * * * * * * * * * * * * * * * * * * * * * * * * * * * //

dimensions      [0 0 0 0 0 0 0];

internalField   nonuniform List<scalar> 
814
(
2.53588328729e-09
2.18802212904e-09
1.41713588052e-09
2.0449740358e-07
2.29397014984e-07
3.18411745474e-07
8.60798094125e-06
1.41133753093e-05
3.88151602249e-05
0.000254985809438
0.000711265932838
0.0048549130713
0.00190683907052
0.00537253700566
0.0290726287392
0.00519346686174
0.012547448304
0.0476312803954
0.0103162490714
0.0218728171624
0.0636637675977
0.0172973995147
0.032707278874
0.0771927651495
0.0261502232028
0.0444751097767
0.0888687523576
0.0366698144557
0.0566241370369
0.0991012043034
0.0483583782643
0.0686227492011
0.108121026048
0.0606154702438
0.0800978347049
0.116129405482
0.0728655454125
0.0908726693712
0.12343237904
0.0845267193175
0.100639531862
0.129578661345
0.0952266689843
0.109284004452
0.13466540521
0.104838602269
0.116920109643
0.138966352867
0.113395869706
0.123639097141
0.142584883905
0.121092897787
0.129679188405
0.145731016841
0.128263502007
0.135408320188
0.148926086246
0.135204516384
0.14112573407
0.152451145265
0.142140491074
0.146995912326
0.156369795549
0.149121229672
0.15301778126
0.160591180306
0.156139117213
0.159174945331
0.165121136466
0.163031417815
0.16532502405
0.169858880702
0.169914414308
0.171600932954
0.174991994459
0.177207380392
0.178462952865
0.181023449912
0.185686767318
0.186641351311
0.188631196556
0.195958114701
0.196711337146
0.198296850557
0.207814143626
0.208395233975
0.209633512483
0.219538027792
0.219953157565
0.220830002926
0.228772744885
0.228990630986
0.229427491051
0.234470401691
0.234484994258
0.234462259622
0.0177734627958
0.109165325164
0.128155121422
0.13529906481
0.139125046042
0.142935391148
0.147034784358
0.15117092865
0.154941277612
0.158218584811
0.160500566733
0.162007415817
0.163003846935
0.163522627944
0.163774537975
0.164314554133
0.165506341343
0.167290581474
0.169491186975
0.172184318998
0.175329856336
0.179176909888
0.184269269515
0.191214559232
0.200385831478
0.211263623613
0.221959902873
0.229936339702
0.234327141973
9.57746630826e-06
7.12717302042e-06
5.6205534913e-06
3.51163009323e-06
1.85233844321e-06
8.50507679035e-07
3.54155740545e-07
1.32804740388e-07
4.55395260488e-08
1.40401673296e-08
3.87102286181e-09
9.45231362113e-10
2.02586584466e-10
3.75838617887e-11
5.91982466755e-12
8.33772686478e-13
5.67816265097e-13
4.04184825768e-12
3.21275151748e-11
8.95581954769e-11
0.000472092203418
0.000200853346847
0.000115594966438
5.84423611939e-05
2.77349437495e-05
1.11968242819e-05
4.22219591303e-06
1.40818298889e-06
4.35893135423e-07
1.2115284618e-07
3.02659211202e-08
6.67575060007e-09
1.29954006811e-09
2.2145293301e-10
3.24377954623e-11
4.37713259137e-12
4.2188309228e-12
4.45982582571e-11
5.78323894254e-10
4.53720745957e-09
0.00252158621863
0.00106904963751
0.000794932654062
0.000342192132743
0.000161310223694
6.29226272639e-05
2.36790424634e-05
7.46725600183e-06
2.15273954486e-06
5.54800295892e-07
1.30961739652e-07
2.72265805608e-08
4.98735654696e-09
8.02971046962e-10
1.11947608701e-10
1.46102761692e-11
1.83803688416e-11
2.79222002195e-10
5.72482319741e-09
1.16899080665e-07
0.0157794605962
0.00573138271777
0.00359433062181
0.00163732683908
0.000801231576083
0.000310347239375
0.000117783427087
3.62582954177e-05
9.80692327288e-06
2.3592416907e-06
5.36372501769e-07
1.08476088103e-07
1.93202863293e-08
3.02993791517e-09
4.13919633753e-10
5.29264552251e-11
6.97306042592e-11
1.23927437692e-09
3.07194831827e-08
2.13946377192e-06
0.176146723975
0.0624205900695
0.019307286771
0.00678101952391
0.00292218601184
0.00121113764655
0.000474855160371
0.000148756605544
3.80798230995e-05
8.58561803607e-06
1.92012054214e-06
3.91287812771e-07
7.01989453308e-08
1.10641960853e-08
1.52276764612e-09
1.92580878545e-10
1.88844433939e-10
3.06678641445e-09
7.18643765129e-08
3.8263355708e-06
0.214200120054
0.112298014248
0.0344073907439
0.0135594648614
0.00655664341271
0.00312488732456
0.00128445411139
0.000425697517025
0.000111807771625
2.50501383236e-05
5.70289135722e-06
1.21725840252e-06
2.28379169661e-07
3.73387792631e-08
5.31325320333e-09
6.79353706819e-10
4.36880241576e-10
5.86213251348e-09
1.20598051454e-07
4.95042486152e-06
0.222395342347
0.143896961459
0.0483326710577
0.0222218468755
0.0118375907691
0.00605433346126
0.00256310468065
0.000899362023628
0.000254464265327
6.06530967217e-05
1.42800807489e-05
3.26531823534e-06
6.58838217247e-07
1.14669928037e-07
1.7237171223e-08
2.28034514106e-09
9.60603150833e-10
1.00306464581e-08
1.75719255041e-07
5.59598925906e-06
0.222918610086
0.18475707177
0.066295288056
0.0334395867153
0.0186414398546
0.00964832022125
0.00415813436367
0.00154422502966
0.000484499076543
0.000128662375293
3.15524532463e-05
7.73256593819e-06
1.69971169667e-06
3.20241259935e-07
5.16367485777e-08
7.19911296491e-09
2.11542524577e-09
1.61763434069e-08
2.41943054208e-07
6.11893286461e-06
0.222013725287
0.218718734341
0.0888644026504
0.046916855308
0.0264538261393
0.0134715241442
0.00590338892623
0.00234156465362
0.000823717901798
0.000248084645301
6.46058868544e-05
1.65902675338e-05
3.9765864875e-06
8.18777565245e-07
1.43027644197e-07
2.12872272288e-08
4.80135316594e-09
2.49844520645e-08
3.23386687271e-07
6.74050543502e-06
0.21994445319
0.226576064707
0.115461039905
0.0622404001389
0.0348558261116
0.0173764162887
0.00782442017005
0.00333566353355
0.00130420270618
0.000443070176538
0.000125513955711
3.32122499742e-05
8.59024221111e-06
1.93767039328e-06
3.68623840657e-07
5.89937530662e-08
1.13066683203e-08
3.74621748397e-08
4.27252498112e-07
7.49567472955e-06
0.217313791378
0.228849740024
0.145446823132
0.0795525298689
0.0438838372736
0.0217084509867
0.0101581237343
0.00462763237027
0.00196826190437
0.000741618330493
0.000232328793589
6.40341348353e-05
1.73792398155e-05
4.28307565536e-06
8.89437679346e-07
1.536596789e-07
2.72430643231e-08
5.52780397081e-08
5.58715877187e-07
8.36569389865e-06
0.214614865428
0.230579680062
0.177349262135
0.0994444849521
0.054153329388
0.027117077566
0.0132013695882
0.00633568682653
0.00286547610557
0.00117281932062
0.0004079408399
0.000120393934642
3.35205405451e-05
8.92229596864e-06
2.02073931612e-06
3.77507067032e-07
6.57167570606e-08
8.14546770775e-08
7.22010322725e-07
9.35688179012e-06
0.211890875968
0.231517238865
0.20230519658
0.122643228595
0.0667471360998
0.0342642626946
0.0172387920985
0.00858446236034
0.00405678353341
0.00177085403781
0.000679790168393
0.000219534633483
6.29869849041e-05
1.75802562869e-05
4.33480942176e-06
8.77294277464e-07
1.55750444763e-07
1.21779941392e-07
9.21598579147e-07
1.04982730685e-05
0.208854766776
0.231361308339
0.214743553523
0.150110339389
0.0831887612831
0.0438102140383
0.0226006957073
0.0115258511048
0.00562417935767
0.00258126086107
0.00107538538886
0.000383097553289
0.000116217757039
3.3139057537e-05
8.82321482538e-06
1.9357604312e-06
3.58479102862e-07
1.87773426046e-07
1.16557643439e-06
1.1825006165e-05
0.205573277012
0.230119073018
0.222854679703
0.180853078272
0.104966768941
0.0563399011024
0.0295734663376
0.0152914984439
0.00764639708697
0.00365060877593
0.00161883527836
0.000635556896248
0.000208749658976
6.08520555401e-05
1.70728960412e-05
4.06683122642e-06
7.96942312867e-07
3.02747398944e-07
1.46550839473e-06
1.33937621419e-05
0.202068994582
0.227853981603
0.227772249381
0.20299344884
0.13205446615
0.0718758137989
0.0380087221066
0.0197657990737
0.010079576445
0.00497932619933
0.0023243569047
0.000993812832795
0.000359333915432
0.000110576348253
3.17373432356e-05
8.19652865619e-06
1.71308845633e-06
5.1402111474e-07
1.83753300519e-06
1.52427360656e-05
0.198426356634
0.224669666785
0.229982239769
0.215652275337
0.162548987894
0.0894323908111
0.0469857857776
0.0244235649431
0.0127010569378
0.00650245867069
0.00319220675297
0.00146931105776
0.000591260773571
0.000198357924973
5.78043805058e-05
1.59788030684e-05
3.5756548531e-06
9.17412479776e-07
2.30641061595e-06
1.74124424149e-05
0.194903902557
0.220912461365
0.229984549004
0.223133480448
0.189805459188
0.106777937774
0.0550748799127
0.0286776072438
0.0153576308104
0.00822680800496
0.0042734900878
0.00210605628746
0.000937666429076
0.000350382131028
0.000107907077348
3.01943923313e-05
7.26271637074e-06
1.70496805182e-06
2.9135170269e-06
1.99643286002e-05
0.191858743001
0.216951360899
0.228488911418
0.226860418449
0.203717110737
0.123822807148
0.0630552413045
0.0334516808128
0.0187545313602
0.0106142939032
0.00584719340851
0.003062535593
0.00147601236624
0.00061798851157
0.000206984736308
5.69890767348e-05
1.44413197211e-05
3.25580547787e-06
3.73108182968e-06
2.29835480383e-05
0.189380838068
0.212985769814
0.226035072659
0.228471646662
0.212679767571
0.144522548411
0.074411856958
0.0414237371967
0.0248120639874
0.0149331393165
0.0086741825705
0.00476110011213
0.00241922350961
0.00109901903743
0.000404599734568
0.000114561497613
2.80593121991e-05
6.27825886331e-06
4.88769215183e-06
2.65856824254e-05
0.187473077511
0.209095680402
0.222914312966
0.228844055913
0.221228472345
0.172982398656
0.0935391586708
0.0563164594694
0.0367118223119
0.0236584690356
0.0144270722515
0.00817103744786
0.00426128529653
0.00200445380097
0.000798881860404
0.000239952248579
5.46080756873e-05
1.20386968938e-05
6.60355271552e-06
3.09269107597e-05
0.18607261496
0.205322418918
0.219295642892
0.228027123615
0.228248615622
0.204059025816
0.123584059422
0.0822168155712
0.0587850784495
0.0406950833999
0.0260793409831
0.0151413947233
0.00799923307051
0.00378767928733
0.00156854375609
0.000500927293516
0.000112888775586
2.23735585674e-05
9.21746527026e-06
3.62294684965e-05
0.185485349966
0.20197612585
0.215559894498
0.226167711557
0.231977454538
0.22180895064
0.163850290735
0.122196330999
0.0963457578932
0.0721151129396
0.0487376889113
0.0290658791497
0.0154076680155
0.00725460023306
0.00300821280069
0.00100483988742
0.000233064281805
4.03706710581e-05
1.31882533921e-05
4.2797401541e-05
0.185840026156
0.199735589057
0.212534236593
0.224122788958
0.233061585871
0.23073940066
0.200742759908
0.1714565418
0.149144397417
0.122882927817
0.0893306191439
0.0551126961056
0.0291342629267
0.0134763201049
0.00549768703165
0.00187377735435
0.000448880396535
6.93708898437e-05
1.8933527742e-05
5.10610865444e-05
0.187441016409
0.199228424448
0.211198551279
0.223071675063
0.233144896184
0.234747295127
0.220984626495
0.206481697683
0.194843180747
0.178984878477
0.147218947536
0.0993952719297
0.0527848520724
0.0236277238552
0.00928961874898
0.00309871786283
0.000748905689444
0.000114450124819
2.63200501551e-05
6.15970097798e-05
0.190871720321
0.201035665314
0.212160361235
0.223600640179
0.233150322276
0.236209927081
0.231297263679
0.225582650026
0.220877392197
0.213340023284
0.196075740232
0.152315972285
0.0892866113819
0.0379218454842
0.013788790027
0.00442288400641
0.00106258322762
0.000165829400476
3.4718106142e-05
7.52367766452e-05
0.196627600148
0.205424767964
0.215381641756
0.22538127958
0.233161201603
0.236414102136
0.235766566739
0.23445125212
0.233206032037
0.230138054999
0.220778736966
0.19048068444
0.121203148738
0.0532472708395
0.0176098571429
0.00524073013299
0.00122734693915
0.000198754197201
4.37316573233e-05
9.33042063454e-05
0.204838801455
0.212226119423
0.220479644902
0.228244511967
0.233872764453
0.236549765962
0.236827864872
0.235338719024
0.231731179289
0.226122871606
0.217388091114
0.19299615799
0.133579830006
0.0599559164563
0.0184831483432
0.00529225988981
0.00122925258407
0.000211362816164
5.52218559656e-05
0.000117846651046
0.214753367191
0.22049029109
0.226524021841
0.231486779074
0.234043491581
0.233152290396
0.227761522792
0.216399360559
0.198924119921
0.178686408828
0.164221457989
0.149768272115
0.11393618888
0.0509966679091
0.0154010017596
0.00456511481682
0.00113324136354
0.00022774171196
7.51582328936e-05
0.000151944283363
0.224316268574
0.227865077787
0.230628519888
0.230853332904
0.226435686771
0.214896671639
0.193885753722
0.162033626695
0.133710084082
0.113459965511
0.101170632566
0.0937087082363
0.0765369851509
0.0341751229408
0.0110740500862
0.00359693121022
0.0010649308396
0.00029464560227
0.000116742973088
0.00020044428596
0.230860458498
0.23132791191
0.229224238774
0.222064128556
0.206625659919
0.178347890463
0.141845716948
0.111384861175
0.0891129646998
0.073598636243
0.0631895035806
0.0563000194967
0.046135026137
0.0216103154391
0.00816915962615
0.00322943680807
0.00129969362286
0.000509434121804
0.000211823362478
0.000273045829192
0.233792797692
0.231104869607
0.224193693348
0.20979242271
0.182745630351
0.144856383971
0.111828780978
0.0872022387772
0.0695018994809
0.056504433503
0.0466777568061
0.039020350664
0.0309158480516
0.000152038851134
0.000168320118748
0.00010212073969
0.000127734065299
7.33048733412e-05
9.59730435452e-05
5.71572556303e-05
8.07806174436e-05
4.94090503543e-05
7.43061020052e-05
4.64897924038e-05
7.21378403661e-05
4.64441007736e-05
7.25497397453e-05
4.82149619492e-05
7.47416547032e-05
5.13067244718e-05
7.83962483111e-05
5.55120710891e-05
8.34154864673e-05
6.07578558056e-05
8.9838097601e-05
6.69628360801e-05
9.7760494052e-05
7.42437986169e-05
0.000107368406435
8.27950212505e-05
0.000118986849771
9.28631681021e-05
0.000133057422786
0.000104789833501
0.000150178783152
0.00011908025763
0.000171197887868
0.000136426264338
0.00019729666381
0.000157807901053
0.000230103920996
0.000184510191681
0.00027151246532
0.000218349923848
0.000324094147834
0.00026164325455
0.000391117021611
0.000317163743918
0.000476234576419
0.000388426893259
0.000583291068238
0.000478580425349
0.000715377572846
0.000590506061471
0.000874459471759
0.000725238771678
0.00106094701334
0.000883257327726
0.00127414546208
)
;

boundaryField
{
    inletfuel
    {
        type            fixedValue;
        value           uniform 0;
    }
    inletair
    {
        type            fixedValue;
        value           uniform 0;
    }
    outlet
    {
        type            zeroGradient;
    }
    axis
    {
        type            empty;
    }
    leftside
    {
        type            zeroGradient;
    }
    burnerwall
    {
        type            zeroGradient;
    }
    front
    {
        type            wedge;
    }
    back
    {
        type            wedge;
    }
    procBoundary0to1
    {
        type            processor;
        value           nonuniform List<scalar> 
27
(
0.237711540535
0.237557708548
0.237182829275
0.236562667039
0.0163238402849
0.00793002553623
0.00419749518961
0.00223763695101
0.00104964057803
0.000431357188294
0.000386843586902
0.234992338436
0.230174919687
0.220112192389
0.201035271071
0.16664437847
0.131225151683
0.10266700625
0.0816639065702
0.0662382193737
0.0542953049229
0.0444854007438
0.0360691509787
0.0163238402849
0.0279393534939
0.00106617576263
0.00151385112242
)
;
    }
}


// ************************************************************************* //
