/*--------------------------------*- C++ -*----------------------------------*\
  =========                 |
  \\      /  F ield         | OpenFOAM: The Open Source CFD Toolbox
   \\    /   O peration     | Website:  https://openfoam.org
    \\  /    A nd           | Version:  7
     \\/     M anipulation  |
\*---------------------------------------------------------------------------*/
FoamFile
{
    version     2.0;
    format      ascii;
    class       volScalarField;
    location    "0.09";
    object      HE;
}
// * * * * * * * * * * * * * * * * * * * * * * * * * * * * * * * * * * * * * //

dimensions      [0 0 0 0 0 0 0];

internalField   nonuniform List<scalar> 
814
(
6.50977924537e-23
5.08564384865e-23
2.09015539978e-23
6.07917532396e-21
6.24615234454e-21
5.07269239625e-21
2.97172432415e-19
4.92457762078e-19
1.22096482951e-18
9.30053751082e-18
2.8618454041e-17
2.27166150665e-16
3.17988474856e-17
8.15941242073e-17
3.99780487857e-16
8.17852538558e-17
1.8939449993e-16
7.15076244056e-16
2.71359846654e-16
6.4681788733e-16
2.39505711029e-15
1.28983109867e-15
3.18470492618e-15
1.13144978168e-14
6.20289420347e-15
1.45904435227e-14
4.64007683955e-14
2.58022716207e-14
5.57350376656e-14
1.57119952424e-13
9.26951993021e-14
1.83262184483e-13
4.64011903422e-13
2.95747086609e-13
5.38967526991e-13
1.24561349379e-12
8.55008043841e-13
1.45170140403e-12
3.11337986656e-12
2.25924424821e-12
3.59998186186e-12
7.21024953612e-12
5.56818982865e-12
8.38978950732e-12
1.58051289924e-11
1.30465960302e-11
1.87258436151e-11
3.33121301901e-11
2.93882839381e-11
4.03385151462e-11
6.78979510983e-11
6.42594564673e-11
8.46038510912e-11
1.34716961971e-10
1.37817294068e-10
1.74616384389e-10
2.63691777422e-10
2.88444523314e-10
3.52836731759e-10
5.05287083776e-10
5.87006821674e-10
6.93853917693e-10
9.40958918971e-10
1.1672970301e-09
1.33636006248e-09
1.71825014767e-09
2.33264029389e-09
2.59708965908e-09
3.18466490022e-09
4.8298530942e-09
5.26135093052e-09
6.2119989639e-09
1.11485435901e-08
1.19340384946e-08
1.36778023542e-08
3.19348592436e-08
3.37272799639e-08
3.76845812244e-08
1.19618644324e-07
1.24537995585e-07
1.3552891441e-07
4.88984530372e-07
5.03210545437e-07
5.34664709178e-07
1.67265961924e-06
1.70450969681e-06
1.77545030824e-06
4.13287895615e-06
4.18292930259e-06
4.29208439481e-06
7.51075531883e-06
7.56200029175e-06
7.66990166788e-06
1.09979614705e-05
1.1036996613e-05
1.11091225976e-05
1.50086407153e-15
1.57961418852e-15
2.28943988338e-15
8.22352441954e-15
3.65378831467e-14
1.32885334228e-13
4.02866082565e-13
1.09435514624e-12
2.75009064011e-12
6.46821605872e-12
1.41910979447e-11
2.96870911275e-11
5.98027905242e-11
1.16561511106e-10
2.21330423401e-10
4.13049988908e-10
7.52177753662e-10
1.32647832743e-09
2.29268472028e-09
4.04664260102e-09
7.59373302949e-09
1.62124760058e-08
4.34493957403e-08
1.51401857705e-07
5.79409936523e-07
1.87376146467e-06
4.43816759563e-06
7.80786622511e-06
1.11968617134e-05
3.05343634022e-18
4.29449363477e-18
5.82074966308e-18
5.37891418385e-18
4.07055323574e-18
2.59814643643e-18
1.46174247068e-18
7.28687573113e-19
3.30896970035e-19
1.38681628268e-19
5.60057069148e-20
2.32590226538e-20
1.06006659917e-20
5.27368891295e-21
2.63057458298e-21
1.19543920182e-21
4.56532642213e-22
1.52891154176e-22
1.66225140877e-22
3.89352957096e-22
9.53009964699e-17
6.76715194396e-17
8.82371888881e-17
6.6437040399e-17
4.41846274259e-17
2.50489218114e-17
1.3184478962e-17
6.0776248303e-18
2.5771927574e-18
9.85734063936e-19
3.51518508847e-19
1.21616679037e-19
4.46816261944e-20
1.8684226446e-20
8.52756229433e-21
3.78559082893e-21
1.45785544784e-21
6.30978686532e-22
2.59966226817e-21
1.97848511565e-20
4.70377692204e-16
3.39650456367e-16
7.21431390991e-16
4.21003023201e-16
2.31018546613e-16
1.1340563158e-16
5.78063230741e-17
2.59035824203e-17
1.08746552016e-17
4.07507985427e-18
1.40664004647e-18
4.47380157812e-19
1.40900243549e-19
4.86522494293e-20
1.93066007845e-20
8.13659440983e-21
3.16775768189e-21
2.18053172096e-21
2.51621869385e-20
5.11511469632e-19
1.85750509333e-15
2.32531907542e-15
5.35971254025e-15
2.77717699436e-15
1.22318496368e-15
5.06602592569e-16
2.46887508375e-16
1.08903632236e-16
4.51315535105e-17
1.67599688149e-17
5.79342061548e-18
1.79904562634e-18
5.23699192833e-19
1.55991152279e-19
5.29261768545e-20
2.06957532896e-20
8.18643283512e-21
7.99147848526e-21
1.34709697349e-19
9.38148936142e-18
2.59211332944e-15
4.70599302904e-15
1.5144844608e-14
1.66148231237e-14
6.26692823733e-15
2.04986705812e-15
9.44145622888e-16
4.27416900771e-16
1.75095563945e-16
6.4540711321e-17
2.29354532924e-17
7.30718170628e-18
2.10630337192e-18
5.84617225443e-19
1.76218333628e-19
6.38345830133e-20
2.54258728147e-20
2.1981765446e-20
3.15360294942e-19
1.6764531919e-17
6.18625927559e-15
1.66436759392e-14
5.27986290885e-14
5.84010716846e-14
2.16779140691e-14
7.41505125885e-15
3.26244575312e-15
1.53226936009e-15
6.36787534457e-16
2.33994369323e-16
8.56028334711e-17
2.88011983226e-17
8.60126382095e-18
2.36971670596e-18
6.74651911447e-19
2.31671406664e-19
9.28019993559e-20
5.93930836433e-20
5.32740703362e-19
2.16797952946e-17
2.95167059856e-14
7.94029436938e-14
1.74669372754e-13
1.6594524465e-13
6.89969536185e-14
2.53571139115e-14
1.0550289068e-14
5.03687763682e-15
2.17459289236e-15
8.28765475356e-16
3.08427091856e-16
1.10353926826e-16
3.49463519505e-17
9.9127791901e-18
2.7933097217e-18
9.34282933836e-19
3.77818564e-19
1.89804333467e-19
7.98209047174e-19
2.45170933133e-17
1.30058760314e-13
3.04980153291e-13
5.10273288506e-13
4.62103671292e-13
2.33521278351e-13
8.99867638641e-14
3.47782578418e-14
1.6203673928e-14
7.28690819398e-15
2.97314915249e-15
1.1212315931e-15
4.1838818909e-16
1.41044442363e-16
4.18710866183e-17
1.19874007643e-17
3.9799376577e-18
1.62799064699e-18
7.26363436662e-19
1.21382851543e-18
2.68823737486e-17
4.40804507991e-13
9.79971906152e-13
1.42748580043e-12
1.383236192e-12
8.78495741872e-13
3.6004399964e-13
1.26897517713e-13
5.56128118046e-14
2.54698291402e-14
1.10649906692e-14
4.27195526744e-15
1.59811459745e-15
5.66666656149e-16
1.76880810271e-16
5.20926671441e-17
1.7347595548e-17
7.16999828529e-18
3.07981581212e-18
2.18368096805e-18
2.98644596061e-17
1.22837920277e-12
2.75753059284e-12
3.94886950402e-12
4.31328937709e-12
3.34985202929e-12
1.52976914152e-12
5.1871236853e-13
2.11476467284e-13
9.52635874876e-14
4.27117268838e-14
1.70042805303e-14
6.24573054226e-15
2.26597848267e-15
7.42512419174e-16
2.26322453565e-16
7.59839838931e-17
3.16483367253e-17
1.35348501531e-17
5.52188012177e-18
3.40124692987e-17
3.08043178835e-12
7.05027698692e-12
1.05706739175e-11
1.28570789382e-11
1.15297574923e-11
6.08598177622e-12
2.15441134061e-12
8.42306521174e-13
3.69613340183e-13
1.66517022594e-13
6.8420488727e-14
2.5075236035e-14
8.99433674754e-15
3.07739357333e-15
9.74817176976e-16
3.30977933162e-16
1.38494288627e-16
5.95590914015e-17
1.92720597765e-17
4.07287807813e-17
7.23416553938e-12
1.68370971802e-11
2.67701367591e-11
3.5155039283e-11
3.5100235888e-11
2.18454081798e-11
8.4993881382e-12
3.30175898385e-12
1.42015733089e-12
6.33905097111e-13
2.68934569067e-13
1.01489534859e-13
3.57003996273e-14
1.25482940699e-14
4.14056777536e-15
1.42478616062e-15
5.97038939794e-16
2.58520255864e-16
7.86395450822e-17
5.60527776973e-17
1.60264801745e-11
3.79046596308e-11
6.40039519109e-11
8.89260834065e-11
9.71583760441e-11
7.08484148583e-11
3.1264886037e-11
1.24557657981e-11
5.28435508607e-12
2.34373966057e-12
1.02324082412e-12
4.05647914583e-13
1.43728525925e-13
5.04057546933e-14
1.72998340547e-14
6.03956398826e-15
2.52520636947e-15
1.09955524664e-15
3.34151619606e-16
1.05221166136e-16
3.34751912211e-11
8.04896194841e-11
1.43991478873e-10
2.11021446492e-10
2.49066165519e-10
2.07885359146e-10
1.06518606689e-10
4.4822405884e-11
1.90413873762e-11
8.49750919559e-12
3.78756626846e-12
1.59288967219e-12
5.88691410586e-13
2.03023941147e-13
7.12085517773e-14
2.5167622976e-14
1.04500652028e-14
4.56684367557e-15
1.41307610371e-15
2.93968650779e-16
6.72617605646e-11
1.63706474265e-10
3.06694457073e-10
4.72382866253e-10
5.94669111455e-10
5.53338483433e-10
3.29753685889e-10
1.50762516893e-10
6.65748256344e-11
3.05545966252e-11
1.39715712956e-11
6.22771483946e-12
2.43746838082e-12
8.38487469152e-13
2.89109962268e-13
1.02954248269e-13
4.2226951598e-14
1.84788331547e-14
5.85937161833e-15
1.06354184217e-15
1.30158816078e-10
3.17550384796e-10
6.16575091804e-10
9.99694467651e-10
1.33101159395e-09
1.3588964654e-09
9.37423187966e-10
4.77640779242e-10
2.27998022962e-10
1.10543529023e-10
5.24379751361e-11
2.42365828959e-11
1.00662830066e-11
3.55712129061e-12
1.16441583008e-12
4.12579684451e-13
1.66287859417e-13
7.2692452964e-14
2.36965945534e-14
4.22436324873e-15
2.44657248004e-10
5.92559011645e-10
1.17799703561e-09
1.99291049494e-09
2.81447382158e-09
3.14804626875e-09
2.50745541425e-09
1.46112576495e-09
7.81765879233e-10
4.06012784601e-10
1.99429987224e-10
9.37390990332e-11
4.05914625778e-11
1.4901779011e-11
4.67141798439e-12
1.60331255439e-12
6.35461045151e-13
2.77387370193e-13
9.32130755155e-14
1.70489187899e-14
4.50445074727e-10
1.07942756451e-09
2.16215857544e-09
3.76331769325e-09
5.62188762331e-09
6.89733653816e-09
6.35390124702e-09
4.3135905637e-09
2.61908631903e-09
1.45626504406e-09
7.41349511086e-10
3.51915864223e-10
1.54730267313e-10
5.95589285822e-11
1.89086142414e-11
5.93490853395e-12
2.33261227573e-12
1.02329963278e-12
3.55893539095e-13
6.80379142671e-14
8.09492507822e-10
1.88031307288e-09
3.73990664695e-09
6.60881830747e-09
1.0405514138e-08
1.39324983206e-08
1.47696679352e-08
1.1785302532e-08
8.11189835497e-09
4.85113551185e-09
2.57400643335e-09
1.2406759224e-09
5.48678552034e-10
2.19883172123e-10
7.25874083263e-11
2.12090018682e-11
8.13530141679e-12
3.62992371337e-12
1.31585680532e-12
2.65868234012e-13
1.39340280944e-09
3.08555953661e-09
6.02148633884e-09
1.07100290257e-08
1.75620238379e-08
2.54266659608e-08
3.05957805464e-08
2.85247670267e-08
2.23316535047e-08
1.45630434517e-08
8.15309686647e-09
4.03479639447e-09
1.80944275652e-09
7.36773632636e-10
2.56880672875e-10
7.57767271249e-11
2.66707019026e-11
1.22768289197e-11
4.68012040984e-12
1.00709710592e-12
2.29336573291e-09
4.78432020641e-09
9.09119643419e-09
1.6188747773e-08
2.73427053486e-08
4.2296623639e-08
5.67347447775e-08
6.12632539999e-08
5.47237045402e-08
3.95632564972e-08
2.38695425862e-08
1.22722007626e-08
5.5829860261e-09
2.27610823947e-09
8.25549369738e-10
2.53928323292e-10
8.33116805907e-11
3.93816545269e-11
1.59273015383e-11
3.67216769714e-12
3.68173559579e-09
7.19080049674e-09
1.32981163637e-08
2.37698665456e-08
4.14374405564e-08
6.83461658248e-08
9.93873399163e-08
1.2135647965e-07
1.22068395055e-07
9.76602576709e-08
6.40528576178e-08
3.46867620603e-08
1.61201788702e-08
6.5669767919e-09
2.41096303645e-09
7.75627924552e-10
2.55968564944e-10
1.19030099054e-10
5.15825943775e-11
1.28020604469e-11
6.07589146767e-09
1.10677161383e-08
1.995921648e-08
3.59871294769e-08
6.5308691721e-08
1.15119985893e-07
1.76380528143e-07
2.33173652133e-07
2.5782212113e-07
2.2619732251e-07
1.59868345174e-07
9.15395802963e-08
4.34868834642e-08
1.76453507484e-08
6.41906729792e-09
2.13068885895e-09
7.35045329493e-10
3.41633112714e-10
1.58706828773e-10
4.24999575815e-11
1.0831203798e-08
1.87250426398e-08
3.31863891333e-08
6.06673953279e-08
1.14016708768e-07
2.09078679895e-07
3.29989484135e-07
4.50319331508e-07
5.24471826364e-07
4.98401939679e-07
3.76703317756e-07
2.24995957149e-07
1.0776857372e-07
4.31091389434e-08
1.53884195647e-08
5.22492579728e-09
1.93381429433e-09
9.3374567268e-10
4.62880408885e-10
1.33818880801e-10
2.21962118543e-08
3.69356969342e-08
6.4701459156e-08
1.18915686928e-07
2.24134417399e-07
4.04134113613e-07
6.30786361997e-07
8.59499936071e-07
1.01479642385e-06
1.00582209176e-06
8.14447467879e-07
5.18754536877e-07
2.48546443973e-07
9.57805021548e-08
3.28003109655e-08
1.12014851621e-08
4.59341957215e-09
2.46303635439e-09
1.27513084031e-09
3.99794488166e-10
5.70888826459e-08
9.05673157455e-08
1.53440728747e-07
2.72972581843e-07
4.88070959818e-07
8.17727008993e-07
1.2122983728e-06
1.5936694443e-06
1.83888911803e-06
1.82073902033e-06
1.51530760385e-06
1.0186476239e-06
5.27955865249e-07
1.8778588511e-07
5.94349312297e-08
2.114484769e-08
1.02084062481e-08
6.19869315243e-09
3.35172568898e-09
1.1337852858e-09
1.88901708284e-07
2.77228712664e-07
4.34219794497e-07
7.05121627656e-07
1.1269358308e-06
1.68690956565e-06
2.29290793969e-06
2.80552163378e-06
3.04389707166e-06
2.88777639564e-06
2.36687609444e-06
1.6237394038e-06
8.7490778954e-07
3.18298213393e-07
9.29862454989e-08
3.67911695012e-08
2.1967202628e-08
1.49103651668e-08
8.44106372341e-09
3.06937713223e-09
6.83760840512e-07
9.14216713722e-07
1.28497284657e-06
1.83646317971e-06
2.55546912034e-06
3.35609359646e-06
4.04576011737e-06
4.39037786905e-06
4.24736695167e-06
3.70021469156e-06
2.93164466193e-06
2.06081142725e-06
1.16275501474e-06
4.24924121512e-07
1.29597037547e-07
6.620345159e-08
4.81617136385e-08
3.4862475356e-08
2.04448764226e-08
7.97099727394e-09
2.0996519222e-06
2.56257582771e-06
3.21794048491e-06
4.02885238647e-06
4.87421206838e-06
5.55859969833e-06
5.8150981229e-06
5.48618657779e-06
4.6732830646e-06
3.69502925201e-06
2.7647800565e-06
1.94645070272e-06
1.1565000087e-06
4.4685471506e-07
1.84970000093e-07
1.30379557034e-07
1.07162646962e-07
7.94095042733e-08
4.77983044818e-08
2.00169989579e-08
4.76275042829e-06
5.36935684967e-06
6.09709368262e-06
6.80155362422e-06
7.27346207453e-06
7.29056759393e-06
6.72085629257e-06
5.68331726613e-06
4.47841048238e-06
3.34996234191e-06
2.39728727214e-06
1.64464057162e-06
1.01394777519e-06
5.01762237711e-07
3.29746567048e-07
2.75164063065e-07
2.34449057767e-07
1.77056275931e-07
1.07798034343e-07
4.84579370778e-08
8.10254079549e-06
8.58633346605e-06
9.03513062395e-06
9.26940909644e-06
9.10876429716e-06
8.45267466252e-06
7.33456109375e-06
5.9990436741e-06
4.68647863882e-06
3.52231775007e-06
2.55863763799e-06
1.81512101321e-06
1.23459102142e-06
8.45358158835e-07
6.91346506407e-07
5.86710189217e-07
4.94437083824e-07
3.80398730949e-07
2.37801814134e-07
1.14730104184e-07
1.136898393e-05
1.15891146538e-05
1.16877240605e-05
1.15368543323e-05
1.10285864725e-05
1.01019620427e-05
8.84210492247e-06
7.45444087693e-06
6.09890836541e-06
4.8542830059e-06
3.77365562616e-06
2.90344322307e-06
2.23564361052e-06
6.68730873702e-16
7.44774054957e-16
4.50176736737e-16
5.71718525313e-16
3.25123982974e-16
4.34918844854e-16
2.56918517123e-16
3.75024139696e-16
2.27738714787e-16
3.58296638361e-16
2.23196926606e-16
3.67584275842e-16
2.38093380718e-16
4.01897013554e-16
2.75410847935e-16
4.71901219952e-16
3.52314292726e-16
6.10916180239e-16
5.23235974708e-16
9.13101915405e-16
9.63038872898e-16
1.66465850936e-15
2.27189504102e-15
3.80930653769e-15
6.6421760988e-15
1.06919332413e-14
2.23314887102e-14
3.47501981634e-14
8.07984329941e-14
1.23320532048e-13
3.00870053756e-13
4.56269281393e-13
1.11738637358e-12
1.6982595429e-12
4.0551293971e-12
6.21765630478e-12
1.42142531492e-11
2.20475322415e-11
4.75979658287e-11
7.38735942962e-11
1.52077024606e-10
2.33875865937e-10
4.61327921088e-10
7.00005808434e-10
1.32361580186e-09
1.97873099313e-09
3.60907377428e-09
5.28343532496e-09
9.36135958069e-09
1.33195124119e-08
2.31035384927e-08
3.16699322891e-08
5.41404861632e-08
7.10369585142e-08
1.20452989613e-07
1.50250862607e-07
)
;

boundaryField
{
    inletfuel
    {
        type            fixedValue;
        value           uniform 0;
    }
    inletair
    {
        type            fixedValue;
        value           uniform 0;
    }
    outlet
    {
        type            zeroGradient;
    }
    axis
    {
        type            empty;
    }
    leftside
    {
        type            zeroGradient;
    }
    burnerwall
    {
        type            zeroGradient;
    }
    front
    {
        type            wedge;
    }
    back
    {
        type            wedge;
    }
    procBoundary0to1
    {
        type            processor;
        value           nonuniform List<scalar> 
27
(
1.46244006506e-05
1.46374399472e-05
1.46604395306e-05
1.46834333206e-05
1.79073982424e-06
1.50158068196e-06
1.24187471291e-06
1.01569244924e-06
7.79631415448e-07
5.07623705951e-07
2.57100642646e-07
1.47298027055e-05
1.47539543272e-05
1.46766570643e-05
1.44379312364e-05
1.39464962266e-05
1.31431010066e-05
1.20692963449e-05
1.08330153973e-05
9.52900357863e-06
8.2064136615e-06
6.91378901688e-06
5.73362344862e-06
1.79073982424e-06
4.72675845045e-06
2.53470611344e-07
3.00448285586e-07
)
;
    }
}


// ************************************************************************* //
