/*--------------------------------*- C++ -*----------------------------------*\
  =========                 |
  \\      /  F ield         | OpenFOAM: The Open Source CFD Toolbox
   \\    /   O peration     | Website:  https://openfoam.org
    \\  /    A nd           | Version:  7
     \\/     M anipulation  |
\*---------------------------------------------------------------------------*/
FoamFile
{
    version     2.0;
    format      ascii;
    class       volScalarField;
    location    "0.09";
    object      k;
}
// * * * * * * * * * * * * * * * * * * * * * * * * * * * * * * * * * * * * * //

dimensions      [0 2 -2 0 0 0 0];

internalField   nonuniform List<scalar> 
814
(
21.1908789317
18.5595633476
10.6251192256
21.7911872562
18.6505352621
9.08568527555
21.1887239751
18.9573767318
8.50936640066
20.9640194562
21.550870842
21.3132402716
21.4780071523
25.1144738307
36.1507723342
22.3412664983
28.6230468347
43.3410428175
23.6978931818
32.5616245616
49.0241502439
25.5717748989
36.5503726023
52.6332296633
27.879057042
40.1610939511
54.2017719186
30.3806705203
42.9380074273
54.0941768689
32.7376030787
44.5804202847
52.7958990086
34.6515361746
45.0922363697
50.7342124635
35.9446257209
44.6724658454
48.1832191703
36.5768706178
43.5936961758
45.6271640125
36.6294154619
42.1696301563
43.3806533263
36.2300072278
40.5902487176
41.4429303239
35.4991663344
38.9399546712
39.7383855285
34.5405489947
37.2553993444
38.1435209004
33.4207092658
35.593699037
36.5934668398
32.25034916
34.0147630026
35.1188448039
31.1216632663
32.5667311456
33.7228767372
30.1484773146
31.3244993745
32.4606020705
29.3486712537
30.2970320909
31.3581972656
28.6955874489
29.423228932
30.332325181
27.8936703901
28.4177366296
29.111940787
26.4074963312
26.7345648759
27.173470378
23.8000108102
23.9621925787
24.1492338626
19.980734377
20.0410969053
20.0734898877
15.5177951824
15.540184414
15.5262768948
11.6214637892
11.6397418408
11.6410340003
9.12925713586
9.14312441639
9.14995563935
7.66166413785
7.66606547984
7.66492005061
5.90004450659
22.1597460249
32.1124918954
38.7732794965
41.7832612368
42.4528504102
41.7010124191
40.1826765961
38.4397019105
36.7002398054
35.4266859925
34.6677245455
34.2584081285
34.1190659219
34.0838413713
33.911979596
33.5096434576
32.9092261142
32.2164405869
31.476539164
30.6222300385
29.4109670369
27.3464649116
24.149080006
19.9757146605
15.441911051
11.6142057003
9.14470738867
7.65425813671
0.015528598832
0.0271694644
0.0322763152209
0.0353947091704
0.0355318099634
0.0353717620431
0.0342065929922
0.0327667256419
0.031274495034
0.0294986753514
0.0277291427672
0.0257814285388
0.0238515561196
0.0218973795567
0.0201539620655
0.0184950493145
0.017291745755
0.0161946044327
0.0156698621917
0.0154848647058
0.0226815029258
0.0419605242977
0.0465407999737
0.0530722768335
0.0501307102014
0.0478371096139
0.0438625529342
0.0399435070709
0.0363450857539
0.0330412541732
0.0301396723445
0.0274616441593
0.0249919661013
0.0227344945674
0.0207202326327
0.0189882870371
0.0176073372056
0.0165268509702
0.015941502802
0.0160132440188
0.0417013570513
0.0437990427817
0.0528631529241
0.0636301284395
0.0614968642516
0.0573630551595
0.0512346714586
0.0450962704607
0.0399844594925
0.035459793255
0.0318167335174
0.0286649012099
0.0258689904181
0.0234071482851
0.0212113020275
0.0193885721217
0.0178791222659
0.0167880410915
0.0161153428026
0.0164674166389
0.31899949188
0.0441065910004
0.0596176249168
0.0671510247621
0.0711922829578
0.065217701388
0.059332676648
0.0504001060879
0.0439930592293
0.0380426125818
0.0336117111627
0.0299255230663
0.0268022529493
0.0241156940857
0.021743657608
0.0197998479903
0.0181707289515
0.0170470274748
0.0161681150589
0.0205507989301
1.18906243932
0.12812820762
0.0626520100965
0.0746673094557
0.0803192631726
0.0727553979224
0.0663967847866
0.0558095457897
0.0482402710036
0.0409639863648
0.0356619257707
0.0313162538597
0.0278021601829
0.0248391521908
0.0222814343552
0.0201932408126
0.018457533959
0.0172607787585
0.016338276512
0.0243223551451
3.09795997739
0.230139896826
0.0714624730601
0.0847425624761
0.0840138880727
0.0762223925941
0.0696466387081
0.0607444676599
0.0523171692774
0.0442966451266
0.038149332616
0.0330533267709
0.0290391312137
0.0257176702884
0.0229226600762
0.0206563986596
0.0187992580419
0.0175151867736
0.0166448037602
0.0277274623362
3.84728066031
0.221890105638
0.0814716917618
0.0903606909093
0.0813929470104
0.0738531473111
0.0685251428231
0.0631472880607
0.0553442833515
0.0475058896636
0.0407900475937
0.035050388727
0.0304826787981
0.0267471167305
0.0236635184298
0.0211929198876
0.0191946613795
0.0178255639838
0.0170533978808
0.030235953142
4.71331314268
0.279954014663
0.101711476908
0.0941696112502
0.0764093076588
0.0677999928436
0.0647186962877
0.0627738224521
0.0570682135292
0.0501594132228
0.0433345571215
0.0371963938328
0.0320972407103
0.0279164112553
0.0244986872585
0.0217958573506
0.0196345407508
0.0181731946374
0.0175028578327
0.032270420703
5.57903432534
0.410433064838
0.133912257192
0.0999325038757
0.0717007242621
0.0607391880313
0.0599676518073
0.0608636029852
0.0576703628223
0.0521224760585
0.0456675837447
0.0394053941178
0.0338618095591
0.0292271056275
0.0254338722422
0.0224634423681
0.0201123104905
0.0185404248475
0.0179294221763
0.0338914887689
6.53478212358
0.602706420963
0.183549392526
0.112755793581
0.0697600480611
0.0551185167276
0.0556403971841
0.0584145450809
0.0574164210599
0.0534401573539
0.0477456047661
0.0416162026798
0.0357632751973
0.0306952861194
0.0264915055779
0.0232100401038
0.0206340333307
0.0189285415417
0.0183165107684
0.0350314425107
7.65331937121
0.874143387154
0.263559619415
0.140179263701
0.0736776303057
0.0522345342523
0.0521579284413
0.0556754355053
0.0564361968229
0.0541342387973
0.0495099360051
0.0437636203881
0.0377805442179
0.0323329950283
0.0276994618773
0.0240588771105
0.0212139683535
0.0193471377343
0.0186782938701
0.0356549588512
8.90834006613
1.25850074945
0.397180936468
0.193820471329
0.0873268056491
0.052751008359
0.0494409922789
0.0526345442118
0.0547804432955
0.0541783009145
0.0508646029058
0.0457595043891
0.0398714330957
0.0341365661836
0.0290798832447
0.0250340687265
0.0218691046037
0.0198049254832
0.0190340113487
0.0358575851855
10.3014791465
1.80559931255
0.619612347771
0.29068086639
0.116841902907
0.0581723130998
0.0478509300421
0.0495531604008
0.0525668422029
0.0535711943051
0.0517261554953
0.0475164745554
0.0419647042261
0.0360904858388
0.0306447267387
0.0261590095461
0.0226184551824
0.0203098454632
0.0193960117938
0.0357705825979
11.9849219134
2.60477786717
0.981424387693
0.457682325665
0.174311059564
0.0724713380591
0.0489111927039
0.0471094822599
0.050075985193
0.0523773188254
0.0520378116168
0.0489533552261
0.0439807846573
0.0381685132022
0.0323994057835
0.0274566679103
0.0234844170477
0.0208723621506
0.0197746846446
0.0354963106893
13.9863060594
3.7395566462
1.53872436951
0.740277475965
0.280997286853
0.102746549511
0.0552218135775
0.0462708994693
0.0477731041142
0.0507662507807
0.0518000664108
0.0500233235486
0.0458577345048
0.0403300113596
0.0343482761105
0.0289492544235
0.0244929067739
0.0215073539615
0.0201789142639
0.0351096266126
16.2881521272
5.31267274104
2.38200954312
1.20485506816
0.465522835874
0.158465702423
0.0695019536464
0.0478028439187
0.0461223163328
0.0490648199191
0.0511621691086
0.0507399257597
0.047560617004
0.0425324712694
0.0364957092914
0.030659988023
0.0256730161934
0.0222346722296
0.0206173115484
0.0346473629176
18.8458595038
7.41604881659
3.61850040572
1.90616007203
0.759974841334
0.24831642012
0.0924504835239
0.0516899379118
0.0456008002105
0.0478379996116
0.0505170753973
0.0512527556592
0.0491465017833
0.0447628686125
0.0388360227037
0.0326184573426
0.0270573501133
0.0230798303641
0.0210999312876
0.0341364631559
21.5306052643
10.0045148655
5.2761143351
2.84642235385
1.1754589989
0.372090664841
0.122125411519
0.0580849765161
0.0472152224709
0.0479171792622
0.0504233506521
0.0517990446903
0.0506909407871
0.0470250439349
0.0413486222937
0.0348472793688
0.0286793837374
0.0240720217321
0.0216394644361
0.0336032302321
24.0628606234
12.9109846741
7.30058434884
4.02801661549
1.7142446875
0.529286375464
0.16321399399
0.0714005627463
0.054052890499
0.0509924547631
0.0515854863299
0.0526151201757
0.0521339539013
0.0492600968107
0.0439712284106
0.0373286797127
0.0305768411357
0.0252455429911
0.0222528655559
0.0330727769677
26.2333116605
15.9501090909
9.62872880197
5.46711604073
2.39140788059
0.734096266211
0.227799051189
0.101131944428
0.0729156015734
0.0613275952838
0.0559382933668
0.0541378348494
0.0533304389953
0.0511611104173
0.0465450153297
0.0399834176685
0.0327573000594
0.0266340467985
0.0229595422442
0.0325692540372
27.9123693009
18.9267169229
12.1920529828
7.1801573877
3.26609196818
1.02414331585
0.334539451566
0.163538659935
0.119020028442
0.0906439248022
0.0707790559574
0.0595170813928
0.0548961175184
0.0524129412585
0.0486309944702
0.0426013083825
0.0351752328045
0.0282695049098
0.0237807580339
0.0321166345886
29.0786803555
21.6614678079
14.878085371
9.12056743902
4.33887776654
1.43968523905
0.512403139363
0.285771595311
0.221962104556
0.165525468124
0.114894698082
0.0789999248998
0.060884918834
0.0537823568045
0.0499304515049
0.0448541341681
0.0376856507857
0.0301419891384
0.0247309440869
0.031737928951
29.6709283711
23.8894767133
17.414190763
11.1091478211
5.48971335794
1.98921995097
0.807949586814
0.519736413747
0.436055120688
0.342109095381
0.233365877757
0.139635308894
0.0835894707986
0.0593152612058
0.0511773650143
0.0464273559739
0.0400996885947
0.0322256277006
0.0258181810193
0.0314553777398
29.6701574017
25.2472297987
19.2814380017
12.663655561
6.4441327205
2.62894572549
1.30077174356
0.960041757648
0.847558485537
0.704322647337
0.50868020133
0.296194125371
0.147654961287
0.0779126404135
0.0547170930632
0.0477528889874
0.0421814218856
0.0343638826633
0.0270040100546
0.0312828442545
28.8821256746
25.3593054828
19.8566910023
13.1942765316
6.96530222179
3.3760302007
2.11576778439
1.75402879874
1.56721662854
1.31811600154
1.00198178778
0.636060069732
0.302668725435
0.125354019898
0.0648533599112
0.0495914281272
0.0439943624614
0.0364550986434
0.0282223928133
0.0312168243731
26.8844502556
23.8477265271
18.7874091364
12.5875721348
7.22951289826
4.4175388768
3.39898633371
2.96411564509
2.56579237126
2.09231892099
1.59941573495
1.11049039021
0.60090130774
0.21423112889
0.081887236121
0.052504245478
0.0457779095773
0.0383327285346
0.0293149257518
0.0312290635815
23.5845889646
20.9277363737
16.6392549041
11.7368813705
7.96786543266
6.04912016277
5.09006263901
4.28744719551
3.44540684729
2.65928118768
2.00217846702
1.44823310193
0.888517478589
0.335015369898
0.100392323886
0.0553881931755
0.0473528293134
0.0396459115755
0.0300590648287
0.0312549054255
19.4086263044
17.3693672746
14.3541542391
11.2300166853
8.91548948326
7.35808325618
5.94828976292
4.48424951039
3.21724688596
2.33633178461
1.7904736167
1.43150667471
0.990318687584
0.398067337605
0.107803926874
0.0574073059167
0.048597406352
0.0403390971211
0.0303481630917
0.0312054220263
15.0627317444
13.851640037
12.1446848252
10.3278780175
8.56173905718
6.67434198238
4.71414103481
3.02589513162
1.89660713796
1.30490608274
1.05431934581
0.983424238891
0.808983881481
0.325047594589
0.0972077120953
0.0584948925902
0.0496797020393
0.0402811781322
0.0302370213641
0.0310247943676
11.4597580897
10.878793164
9.88657905915
8.45180294333
6.5558541051
4.44117129227
2.6518850684
1.50676190799
0.903368328807
0.625843896723
0.524687386522
0.535068770582
0.496484998981
0.204916363828
0.0837718512711
0.0594561959187
0.0500511895074
0.0393038713324
0.0299438796704
0.030699391272
9.07907259102
8.70581666895
7.83180390818
6.34483385354
4.44723522232
2.66203855548
1.44951784175
0.792448510147
0.48278488446
0.345993252617
0.292508465044
0.288461535997
0.270868667295
0.13188769527
0.0768198352994
0.0597319232999
0.0487235695883
0.0380746464378
0.0297261817134
0.0303142325999
7.5968486486
7.26629867169
6.44203103064
5.06285310351
3.41362244962
1.96850021236
1.03071761566
0.561721561338
0.354406214882
0.260843817254
0.215337367911
0.193516595768
0.171623225356
0.0537228649465
0.0559108469599
0.109903134307
0.0738245202321
0.116182919701
0.0844113015518
0.111947699224
0.0833556898795
0.105553642353
0.0791930093122
0.098162488681
0.074145427992
0.0911183608425
0.0689685553891
0.0846631482021
0.063956335326
0.0788704655044
0.0592216075493
0.0737120301445
0.0548040283484
0.0691212592935
0.05071224024
0.0649618891079
0.0469564026954
0.0612053314583
0.0435408403026
0.057856566805
0.0404467387526
0.0548964535317
0.0376592880143
0.0523028762583
0.0351695182569
0.0500581771794
0.0329644154649
0.0481437329514
0.0310294237176
0.046545896564
0.0293498382676
0.045256060249
0.0279104365773
0.0442707801791
0.026694398552
0.0435727126122
0.0256768199975
0.0431425889967
0.0248322792406
0.0429028484693
0.0241292162728
0.0427535813884
0.0235671235132
0.042542059306
0.0231487216118
0.042210163634
0.022897904076
0.0416924673253
0.0228348613691
)
;

boundaryField
{
    inletfuel
    {
        type            turbulentIntensityKineticEnergyInlet;
        intensity       0.05;
        value           uniform 13.5;
    }
    inletair
    {
        type            turbulentIntensityKineticEnergyInlet;
        intensity       0.05;
        value           uniform 0.015;
    }
    outlet
    {
        type            inletOutlet;
        inletValue      nonuniform 0();
        value           nonuniform 0();
    }
    axis
    {
        type            empty;
    }
    leftside
    {
        type            kqRWallFunction;
        value           nonuniform List<scalar> 
33
(
0.0537228649465
0.0559108469599
0.0154848647058
0.0160132440188
0.0164674166389
0.0559108469599
0.0738245202321
0.0844113015518
0.0833556898795
0.0791930093122
0.074145427992
0.0689685553891
0.063956335326
0.0592216075493
0.0548040283484
0.05071224024
0.0469564026954
0.0435408403026
0.0404467387526
0.0376592880143
0.0351695182569
0.0329644154649
0.0310294237176
0.0293498382676
0.0279104365773
0.026694398552
0.0256768199975
0.0248322792406
0.0241292162728
0.0235671235132
0.0231487216118
0.022897904076
0.0228348613691
)
;
    }
    burnerwall
    {
        type            kqRWallFunction;
        value           nonuniform List<scalar> 7(10.6251192256 9.08568527555 8.50936640066 0.015528598832 0.0226815029258 0.0417013570513 5.90004450659);
    }
    front
    {
        type            wedge;
    }
    back
    {
        type            wedge;
    }
    procBoundary0to1
    {
        type            processor;
        value           nonuniform List<scalar> 
27
(
6.51486862855
6.52155006693
6.52426608357
6.52545401821
0.106436840785
0.0762442908529
0.0602155906881
0.0475655668217
0.0372233876678
0.0299014652505
0.0300327912906
6.50473243401
6.3100142728
5.73491067199
4.67926601062
3.2909695988
1.93234455572
1.0239162781
0.578100554608
0.381305073298
0.286407370456
0.231036245683
0.191698468731
0.106436840785
0.157630030538
0.0410583091708
0.0230513167066
)
;
    }
}


// ************************************************************************* //
