/*--------------------------------*- C++ -*----------------------------------*\
  =========                 |
  \\      /  F ield         | OpenFOAM: The Open Source CFD Toolbox
   \\    /   O peration     | Website:  https://openfoam.org
    \\  /    A nd           | Version:  7
     \\/     M anipulation  |
\*---------------------------------------------------------------------------*/
FoamFile
{
    version     2.0;
    format      ascii;
    class       volScalarField;
    location    "0.09";
    object      N2;
}
// * * * * * * * * * * * * * * * * * * * * * * * * * * * * * * * * * * * * * //

dimensions      [0 0 0 0 0 0 0];

internalField   nonuniform List<scalar> 
814
(
1.65126429197e-08
1.28964074975e-08
5.12354392246e-09
1.68673924905e-06
1.76717413325e-06
1.46179119842e-06
8.74925488485e-05
0.000149530753683
0.000383998028693
0.00282865025414
0.00904523293317
0.074824498096
0.00887042001722
0.0234344894211
0.118041935558
0.0187178490658
0.0430741845854
0.15638697522
0.0333374062734
0.0686039524812
0.195046063412
0.0531710167933
0.0989012989953
0.230815508888
0.0785173203958
0.132437042246
0.263303561929
0.108897374512
0.167500460541
0.292548769557
0.142874249332
0.202395175087
0.318682387155
0.178657370527
0.235916187396
0.34204336924
0.214516123578
0.267472970204
0.363421763812
0.248704341025
0.296115052688
0.381426448904
0.280101921234
0.321481096781
0.396322475381
0.308321042755
0.343894822188
0.408909896008
0.333451493688
0.363618673248
0.419490588142
0.356061296767
0.381351964618
0.428686488171
0.377131083699
0.398177871197
0.438037687008
0.397533365886
0.414976960453
0.448371482046
0.417927079888
0.432231572392
0.459871399437
0.438456405546
0.449936060123
0.472265980738
0.459096319204
0.468039903105
0.485570704663
0.479365395996
0.486121733437
0.499486758566
0.499603776395
0.504570802429
0.514564479434
0.521045687968
0.524742135962
0.532285024508
0.545980168113
0.548789255168
0.554648702046
0.576217483072
0.578435329773
0.583108253663
0.611365798912
0.613098027226
0.616798202191
0.647323250782
0.648683365988
0.651586527522
0.678466404719
0.679559277298
0.681871686057
0.701022894074
0.701919515994
0.703763836354
0.515742376483
0.468028661241
0.423383622912
0.414236789806
0.416037097123
0.423918177772
0.434688450417
0.44631921662
0.45714666122
0.466619612539
0.473151478551
0.47739661988
0.480142241022
0.481488900502
0.482074333889
0.483544193051
0.486963005462
0.492143175086
0.498556775212
0.506427654474
0.515635366858
0.52691067736
0.541854700816
0.562261300122
0.589270840495
0.621686717462
0.655406577915
0.68489607742
0.706192318793
0.767994903252
0.767996954753
0.767998599388
0.767999353028
0.767999718582
0.767999886938
0.767999957284
0.767999985049
0.767999995129
0.767999998554
0.767999999613
0.767999999907
0.767999999981
0.767999999996
0.767999999999
0.768
0.768
0.768
0.767999999996
0.76799999999
0.767715059016
0.767906517189
0.76797435978
0.767990913197
0.767996404055
0.767998679014
0.767999533647
0.767999851733
0.76799995576
0.767999988035
0.767999997071
0.767999999364
0.767999999878
0.767999999979
0.767999999997
0.768
0.768
0.767999999995
0.767999999935
0.767999999492
0.766725397356
0.767712764146
0.767896990934
0.76796109923
0.767982755774
0.767993473807
0.767997613655
0.767999264683
0.767999791918
0.767999947164
0.767999987683
0.767999997464
0.767999999539
0.767999999926
0.76799999999
0.767999999999
0.767999999998
0.767999999969
0.767999999359
0.767999986911
0.753776433262
0.767093352007
0.767630756221
0.767840299554
0.76792243661
0.767969950704
0.767988699054
0.767996560734
0.76799907859
0.7679997802
0.767999950438
0.767999990046
0.767999998238
0.767999999725
0.767999999963
0.767999999995
0.767999999992
0.767999999861
0.76799999656
0.767999760448
0.730231105944
0.761100649155
0.766116438953
0.767370162535
0.767731444466
0.767888208773
0.767956028662
0.767986241589
0.767996490222
0.767999212414
0.767999824833
0.767999964481
0.767999993656
0.767999999004
0.767999999863
0.767999999982
0.767999999979
0.767999999657
0.767999991954
0.767999571574
0.699582526863
0.756211158023
0.764820247602
0.766778007957
0.767412583877
0.76771908253
0.767883501062
0.767961242433
0.767989834111
0.76799772971
0.767999485036
0.767999890465
0.767999979518
0.767999996662
0.767999999526
0.767999999939
0.767999999953
0.767999999344
0.767999986497
0.767999445713
0.686175201374
0.753812543959
0.763666493961
0.766026335149
0.766954643276
0.767464189937
0.767770795517
0.767919123925
0.767977130317
0.767994561822
0.767998722012
0.767999708379
0.767999941297
0.767999989808
0.767999998471
0.767999999797
0.767999999898
0.767999998877
0.767999980325
0.76799937343
0.675033596724
0.749810013616
0.762092650085
0.765048905923
0.766367515853
0.767154408005
0.767632094997
0.767862614042
0.767956904099
0.767988573015
0.767997198706
0.767999314031
0.767999849438
0.767999971681
0.767999995441
0.767999999362
0.767999999782
0.767999998191
0.76799997291
0.767999314876
0.666022040107
0.744559415861
0.759996819215
0.763864507987
0.765693454453
0.766826538475
0.767481891852
0.767793568748
0.767927370417
0.767978138905
0.767994304346
0.767998537052
0.767999649603
0.767999927931
0.767999987423
0.767999998124
0.767999999524
0.767999997209
0.767999963791
0.767999245281
0.656927217824
0.738966495357
0.757356397598
0.762496382298
0.764965026495
0.766491937634
0.767317405646
0.76770803521
0.767885790421
0.767961195425
0.767988999562
0.767997086877
0.767999246621
0.767999830151
0.767999967702
0.767999994822
0.76799999892
0.767999995825
0.767999952163
0.767999160728
0.647551508219
0.732801361025
0.754140491546
0.760909590472
0.76417461637
0.766119551158
0.767117518368
0.767597002368
0.767828489218
0.767935348071
0.76797973276
0.767994409179
0.767998482002
0.767999625916
0.767999922319
0.767999986561
0.767999997476
0.767999993869
0.767999937447
0.767999063318
0.638368781216
0.72591495206
0.750235877063
0.759007829672
0.763262698009
0.765652140789
0.766856179967
0.767450049442
0.767751144886
0.767898105509
0.767964539585
0.76798952748
0.767997082158
0.767999223112
0.767999824003
0.76799996708
0.767999994048
0.767999991045
0.767999919173
0.767998952342
0.62928114562
0.718073944111
0.74552937786
0.756633370479
0.762121262724
0.765029626517
0.76650838455
0.767256316095
0.767648459486
0.767846529168
0.767941065909
0.767980957905
0.76799453263
0.76799847312
0.767999623342
0.767999923684
0.76799998611
0.767999986808
0.767999896852
0.767998824548
0.619215544039
0.708728627576
0.739872576416
0.753517589896
0.760581683995
0.764188280671
0.766044744735
0.767002627489
0.767513335561
0.76777669375
0.767906952651
0.767966840428
0.767989934517
0.767997127807
0.767999234841
0.767999831951
0.767999968362
0.767999980108
0.767999869601
0.767998676004
0.608528872198
0.697941887865
0.73297888916
0.749304654024
0.75843272158
0.763065962049
0.765439219392
0.766677635312
0.767339033708
0.767684596476
0.767860135064
0.767945074108
0.767981951055
0.767994734918
0.767998521817
0.767999647549
0.767999930159
0.76799996886
0.767999836183
0.767998500365
0.597300307395
0.685503260057
0.724450125239
0.743833570354
0.755530096372
0.761643936017
0.764703266144
0.766291505721
0.767129508167
0.767570244167
0.767799402518
0.767914212661
0.767968970223
0.767990445712
0.7679972558
0.767999290653
0.767999850597
0.767999948891
0.767999794925
0.767998293362
0.585801419257
0.671626437783
0.714256194636
0.737193599846
0.751831391764
0.759988159072
0.763916265797
0.765889913147
0.766904064961
0.767439243702
0.767724725916
0.767873269742
0.767948986431
0.767982877625
0.767995006964
0.767998618682
0.767999689215
0.767999911823
0.767999743348
0.767998050477
0.57484356116
0.657458777297
0.703074518637
0.729759476914
0.747577560076
0.758277103823
0.763202419501
0.765523086265
0.766675407105
0.767290740634
0.767631577373
0.767818402677
0.767919127001
0.767969768454
0.76799068484
0.76799739167
0.767999370207
0.767999840951
0.767999677456
0.767997764873
0.565466856857
0.643689298847
0.691219179932
0.721510732739
0.743000062962
0.756495459778
0.762488980112
0.765107265052
0.766380214276
0.767083709284
0.767495390199
0.767735738986
0.767872634625
0.767946664612
0.767982131263
0.76799507814
0.767998749499
0.767999703379
0.767999590499
0.767997427111
0.557871151915
0.630508874202
0.678676077269
0.712133941349
0.73765577848
0.754225673994
0.761452038122
0.764399253068
0.765845019248
0.766704651425
0.767248768921
0.767588162827
0.767790886831
0.767905036436
0.767965042591
0.767990101575
0.767997571782
0.767999437687
0.767999470744
0.767997024448
0.55201628745
0.617895402538
0.665326222383
0.701218589694
0.730795326024
0.75089013615
0.759638442213
0.763044891404
0.764772725167
0.765926594208
0.766741092654
0.767289645528
0.767630445348
0.767826412559
0.767930867699
0.767979244135
0.767995273719
0.767998933991
0.767999298434
0.767996539778
0.54769016357
0.605850332651
0.651359000557
0.688847712382
0.722122716748
0.74593082553
0.756540894779
0.760566465136
0.762704330688
0.764364244129
0.765693704958
0.76667244414
0.767302657101
0.767670896077
0.767863962764
0.767956599838
0.767990221869
0.767998032421
0.767999043283
0.767995948862
0.545798455209
0.595280300759
0.637907037357
0.676074569403
0.712256451536
0.739302653711
0.751644276699
0.756234228442
0.758804531118
0.761267848188
0.763569993014
0.765412213258
0.76664579326
0.767366824487
0.767738376695
0.767912778292
0.767979788214
0.767996463872
0.767998664234
0.767995218547
0.54671498455
0.588191346996
0.627410046135
0.66553945066
0.703141450825
0.731383085031
0.74441289822
0.749180632591
0.752001832937
0.755418646955
0.759415222191
0.762957305263
0.765408187222
0.766817419718
0.76752044602
0.767837037674
0.767961022053
0.767993936349
0.76799812286
0.767994301422
0.55132457101
0.586367432874
0.622517224816
0.65988162146
0.696566640773
0.72280703132
0.734730061888
0.739036190707
0.742031255427
0.746475387959
0.752381521689
0.75846987829
0.763227712535
0.765914834053
0.76718781631
0.767730107135
0.767934903604
0.767990007279
0.767997425818
0.767993132911
0.561340819932
0.591469595144
0.624783969242
0.660010267646
0.692650141127
0.714023886265
0.723458025479
0.727351968181
0.731028696922
0.736739524804
0.744325704794
0.752606028466
0.759763664999
0.764642074178
0.766793940697
0.767614670063
0.767907610673
0.767985525692
0.76799662034
0.767991618637
0.57822629286
0.604265710251
0.633977070038
0.664506693651
0.690293553759
0.706220808091
0.714088134156
0.718973837077
0.724383973202
0.731373044421
0.739589952199
0.748401406003
0.756754383451
0.763279308904
0.76646144223
0.76754383143
0.767893335877
0.767982634654
0.767995725682
0.767989609522
0.602423160561
0.624351956567
0.6491285402
0.673162215211
0.692327500554
0.705121769977
0.713896366922
0.721525633569
0.72894768787
0.735824193568
0.742153496507
0.748577136421
0.755673190439
0.762693009896
0.766387302118
0.767539905044
0.767893235523
0.767981470828
0.767994551039
0.767986879342
0.63220180971
0.649855200261
0.669396393478
0.687894988146
0.703327220356
0.71572837914
0.726235894334
0.735430449299
0.742679038428
0.747633850704
0.750870268849
0.753662609068
0.757661558434
0.763507961883
0.766658618807
0.767603580262
0.767901570709
0.767979901058
0.767992528597
0.76798309739
0.663592273181
0.677588744552
0.693092072905
0.708147337001
0.721625742293
0.733189169055
0.742522338001
0.749403077707
0.753922781587
0.756691309726
0.758340416492
0.759414180011
0.761181421408
0.765009271852
0.767037632567
0.767687950193
0.767907357417
0.767973802779
0.767988435852
0.767977759445
0.691303840681
0.702492562731
0.714917035139
0.727058879551
0.737837934876
0.74654610386
0.752824565232
0.756940394339
0.759541259904
0.761201151262
0.762273478354
0.762984343295
0.763943174969
0.76611891228
0.767291526612
0.767719875693
0.767886672219
0.767954665217
0.767979402604
0.767969909047
0.711194523427
0.719932330484
0.72960094332
0.738942338574
0.746964520254
0.753096386379
0.757271599621
0.75997282483
0.761744032736
0.762978474397
0.763885160495
0.764581496114
0.765304566646
0.767982976735
0.76798115382
0.767988565896
0.767985698098
0.76799179232
0.767989254253
0.767993600316
0.767990955295
0.767994467854
0.767991680217
0.76799479471
0.767991922979
0.76799479982
0.767991876847
0.767994601535
0.767991631408
0.76799425535
0.767991222194
0.767993784478
0.76799066018
0.767993197106
0.767989941029
0.767992502331
0.767989053943
0.767991687075
0.767987978122
0.767990729585
0.76798667717
0.767989602244
0.767985101634
0.76798826681
0.767983184472
0.767986666729
0.767980830835
0.767984724577
0.767977908366
0.767982330687
0.767974234664
0.767979341266
0.767969597758
0.767975552955
0.767963709607
0.767970706357
0.767956204127
0.767964490655
0.767946671907
0.767956511921
0.767934681927
0.767946417973
0.767919887341
0.767933888647
0.767902067856
0.767918818071
0.767881180472
0.767901189059
0.767857317693
)
;

boundaryField
{
    inletfuel
    {
        type            fixedValue;
        value           uniform 0;
    }
    inletair
    {
        type            fixedValue;
        value           uniform 0.768;
    }
    outlet
    {
        type            zeroGradient;
    }
    axis
    {
        type            empty;
    }
    leftside
    {
        type            zeroGradient;
    }
    burnerwall
    {
        type            zeroGradient;
    }
    front
    {
        type            wedge;
    }
    back
    {
        type            wedge;
    }
    procBoundary0to1
    {
        type            processor;
        value           nonuniform List<scalar> 
27
(
0.71659149005
0.71724131055
0.718602366301
0.720405051975
0.766568728666
0.767309184742
0.767635308237
0.767805061571
0.767907198812
0.767959243575
0.767957980452
0.724127443107
0.730724675199
0.738039731404
0.745039996632
0.750986229595
0.755504970261
0.758622713427
0.760704266807
0.762146686889
0.76322890083
0.764100838354
0.764840342339
0.766568728666
0.765553635923
0.767881002957
0.767830672419
)
;
    }
}


// ************************************************************************* //
