/*--------------------------------*- C++ -*----------------------------------*\
  =========                 |
  \\      /  F ield         | OpenFOAM: The Open Source CFD Toolbox
   \\    /   O peration     | Website:  https://openfoam.org
    \\  /    A nd           | Version:  7
     \\/     M anipulation  |
\*---------------------------------------------------------------------------*/
FoamFile
{
    version     2.0;
    format      ascii;
    class       volScalarField;
    location    "0.09";
    object      nut;
}
// * * * * * * * * * * * * * * * * * * * * * * * * * * * * * * * * * * * * * //

dimensions      [0 2 -1 0 0 0 0];

internalField   nonuniform List<scalar> 
814
(
0.00235595166289
0.00143848281177
0.000182516087609
0.00196948272025
0.00121062847975
0.000156311196709
0.00176212961747
0.00113570429926
0.000146595125012
0.00153788322015
0.000986168369617
0.000277088846083
0.00131413412271
0.000867109676236
0.000457354264883
0.00114693591395
0.000836582775748
0.000596826814094
0.00104594666925
0.000863217684172
0.000742733637664
0.00100676950517
0.000927531553951
0.000879845775934
0.0010166282506
0.00101287930105
0.000999482868506
0.00106232185494
0.00110485554109
0.00109818012659
0.00113032592909
0.00119291161871
0.00117737720155
0.00120865428846
0.00127200260743
0.00124122343141
0.00128831455142
0.00134106503955
0.00129342841265
0.00136443253889
0.00140245906195
0.00134399949844
0.00143621691403
0.00146140738256
0.00140083504323
0.00150486395735
0.00152135951298
0.00146631388497
0.00157226032429
0.00158445588801
0.00154173661865
0.00164102863347
0.00165233404349
0.00162694975723
0.00171457068358
0.0017283641144
0.00172276524286
0.0017985363933
0.00181752534438
0.00183299923437
0.00190051945308
0.00192590426898
0.0019618449295
0.00203063647478
0.00206217388132
0.00211577611572
0.0021978627486
0.00223408448084
0.00230023763696
0.00239975642612
0.00243662758502
0.00250596624186
0.00260551876758
0.00263729053994
0.00269761036262
0.00273724633288
0.00275879291575
0.0027985003252
0.00271505862857
0.00272432147843
0.00273974689752
0.00251633848082
0.00251831254243
0.0025196567579
0.00222279567014
0.00222475028311
0.00222742255814
0.00199285483414
0.00199893291878
0.00201114275425
0.00193100038048
0.00193911379025
0.00195538342871
0.00195217192275
0.00195908715473
0.00197179648436
0.000578036081759
0.000377516208248
0.000530443312242
0.000672317209924
0.000780775054975
0.000862478150443
0.000924441389978
0.000973471318725
0.00101771074169
0.00106201001632
0.00111953747678
0.00119457622429
0.00128667511667
0.00139728437945
0.00152448796016
0.0016634972984
0.00181436845973
0.00198009152077
0.00216475460469
0.00236992263309
0.00258225149938
0.0027633214071
0.00283879161198
0.0027509869195
0.00251612012267
0.00222959589645
0.00202756476672
0.001976147421
0.00198695565935
2.5642818346e-05
0.000156615330142
0.000210609188756
0.000240630024886
0.000261989583778
0.000283580184523
0.000304734920218
0.000326390551363
0.000347388232741
0.000365085084633
0.000379365545372
0.000387889879335
0.000391250916896
0.000388337731799
0.000381885438245
0.000370999461137
0.000361382059153
0.000349591726069
0.000323768546
9.58295496533e-05
3.60522914054e-05
0.00012856160389
0.000184891174078
0.000239764399764
0.000273560476373
0.000305843305934
0.000330301571146
0.000351813170109
0.000369900421075
0.00038386482958
0.000394226827732
0.000399722983014
0.000400429704583
0.000396090206487
0.000388016654246
0.000377023407736
0.000365862608011
0.00035379677919
0.000316468753425
9.74474742906e-05
5.6777339648e-05
9.55475724809e-05
0.000139529887322
0.00021852652585
0.000263770254384
0.000306493510359
0.000336751594206
0.000362103084242
0.000381780864596
0.000394785692938
0.000403775441322
0.000407959734404
0.000407476429757
0.00040239939685
0.00039333116812
0.000381933167275
0.000369610501011
0.00035715557568
0.000313070662157
9.88193791299e-05
4.79454319261e-05
3.30576313233e-05
8.75294850654e-05
0.000162187221193
0.000213148074266
0.000269543863278
0.000314507987929
0.00035175110017
0.000382790179799
0.000400811638013
0.000411559563102
0.000415556244942
0.000414534031418
0.000408875121335
0.000399017506812
0.00038699036821
0.000373623812442
0.000360585479995
0.000314413163878
0.000110398845687
2.9837175191e-05
5.03865010925e-06
8.89824179282e-06
6.09615908586e-05
0.000141440470619
0.000197807584322
0.000254063145052
0.000310619562069
0.000364085854986
0.00039814323376
0.000416443520783
0.00042224360112
0.000421319684304
0.000415096424226
0.000404578727594
0.00039177191309
0.000377565446752
0.000363392202282
0.000312703662579
0.000116301651252
7.22659453603e-05
7.92002446168e-06
7.69802380076e-06
4.7246862829e-05
9.71058176109e-05
0.00013396368313
0.000186138318938
0.00025427070943
0.00032900469359
0.000385440403841
0.000417548959072
0.000428564247297
0.000428816750553
0.000422152211166
0.000410894855056
0.000397145497542
0.000382062106182
0.000366484170946
0.00030967358461
0.000121298796001
0.000100839733274
9.23857141579e-06
1.07998122982e-05
4.10254464289e-05
6.72782249515e-05
9.05216118541e-05
0.000133357492996
0.000203237064087
0.00028899194884
0.000363873546842
0.000412242301181
0.000432672763041
0.000436174236401
0.000429800030929
0.000417879889601
0.000403170586987
0.000387118708856
0.000370084677964
0.0003066864837
0.000125010935698
0.000135831795786
1.33502422316e-05
1.48589719503e-05
3.46784550924e-05
4.72802776482e-05
6.27235306145e-05
9.77810381577e-05
0.000163885830443
0.000251531817586
0.000336488004129
0.000399411992221
0.000432493295625
0.000442117800064
0.000437472807215
0.000425296110134
0.000409729747677
0.000392623061568
0.000373997802377
0.000303792503417
0.00012853756603
0.000175515347341
2.12603602178e-05
1.92855583092e-05
3.01980931502e-05
3.47480995312e-05
4.54169497833e-05
7.51324306128e-05
0.000135059053782
0.000218517669799
0.000306201665459
0.000379956378433
0.000426680549036
0.000445343554263
0.00044447289164
0.000432865954344
0.000416668219696
0.00039844773747
0.000377969693338
0.000300542141673
0.000132006088905
0.000223901806109
3.38274795919e-05
2.50015649749e-05
2.8571250222e-05
2.75190621557e-05
3.49938234777e-05
6.04806047845e-05
0.000113190415108
0.00018937501322
0.000275345219261
0.000355947709117
0.000415024179442
0.00044477905093
0.000450072646869
0.000440337393448
0.000423930689294
0.000404578855663
0.000381917391839
0.000295666071193
0.000135048886709
0.000283936218514
5.2924570406e-05
3.41664355907e-05
3.05349072377e-05
2.43018523807e-05
2.87617228251e-05
4.9886940008e-05
9.48070950699e-05
0.000163008906947
0.000245303469473
0.000329316584364
0.000398175799551
0.000439688922762
0.000453442087736
0.000447365868622
0.000431483217694
0.000411072887384
0.000385882419906
0.000289492731482
0.00013739316259
0.000356137364754
8.17775078666e-05
4.98537047022e-05
3.74335192904e-05
2.45703654247e-05
2.50813406041e-05
4.12496654083e-05
7.81751161516e-05
0.000138763975649
0.000216707341446
0.000301442830482
0.000377209016228
0.000429779422792
0.00045369725932
0.000453405871073
0.000439192753883
0.000417975070704
0.000389922681662
0.000283152242658
0.000139134081706
0.000442555430166
0.00012533776615
7.64862203904e-05
5.14985836851e-05
2.87071215206e-05
2.35889171991e-05
3.42053050838e-05
6.32775051125e-05
0.000116463458657
0.000189613777868
0.000273135067696
0.00035321268322
0.000415246830314
0.000450131586761
0.000457723746152
0.000446770835732
0.000425280429355
0.000394085986902
0.000277614128603
0.000140493591978
0.000550971009693
0.000191482955987
0.000119973559656
7.65726202181e-05
3.84336368918e-05
2.5016345782e-05
2.93459368206e-05
5.07709056696e-05
9.61820781973e-05
0.000163937685169
0.000244993055025
0.000327297247687
0.000396834074414
0.000442440307665
0.000459548491335
0.000453766406397
0.000432918487397
0.000398433860589
0.000273188296491
0.000141636588783
0.000684922739882
0.000288761366453
0.000187555764977
0.000119168028021
5.71135455314e-05
3.08185693838e-05
2.77368547451e-05
4.1577983622e-05
7.85895151821e-05
0.000140001518695
0.000217642770909
0.000300471608292
0.000375496883004
0.000430731144802
0.000458237309399
0.000459577189112
0.000440721468024
0.000403050958473
0.000269980410236
0.00014260324301
0.000847254368324
0.000427636009713
0.000289879086036
0.00018784452068
8.91362315286e-05
4.26552883217e-05
3.0271235257e-05
3.65357221402e-05
6.52642992887e-05
0.000119335544971
0.000192252344037
0.000273875531401
0.000352251075662
0.000415439470236
0.000453360656865
0.000463487512009
0.000448379238394
0.00040802728673
0.000268093605768
0.000143499228484
0.00103958867755
0.000617840815028
0.000438416920824
0.000289038422421
0.00013896621922
6.17102384349e-05
3.70849497629e-05
3.57800735084e-05
5.75001324635e-05
0.000103835499884
0.000170173352235
0.000248273189128
0.000327574131578
0.000396713733653
0.000444392320794
0.000464620386621
0.000455362712342
0.000413421535997
0.000267621618169
0.000144432153528
0.0012590602829
0.000859811398561
0.000636489910458
0.000422749095991
0.000207443810877
8.74448900753e-05
4.79020758706e-05
3.95793643929e-05
5.57606860414e-05
9.36349869889e-05
0.00015074618836
0.000222337558837
0.000300108078274
0.000373473037641
0.000430316022272
0.00046176609457
0.000460815589468
0.000419177204854
0.000268637912869
0.000145480004095
0.00149570723216
0.00114458631551
0.000880022840309
0.000589641657308
0.000293637463407
0.000119672337113
6.46485059619e-05
5.0138834573e-05
5.99641805683e-05
8.63536380636e-05
0.00013010321437
0.000191455754093
0.000265273242825
0.000341913501612
0.000408269524421
0.000452680100021
0.000463355840702
0.000425037767673
0.000271238321964
0.000146720033643
0.00174164164262
0.0014609172485
0.00116374702096
0.000792581970684
0.000400572354474
0.000161126564382
9.04279540705e-05
7.09767340533e-05
7.14242401061e-05
8.22732966346e-05
0.000107519631369
0.000152379573351
0.00021737917891
0.000295438925353
0.000372957951538
0.000433736500178
0.000460715901458
0.000430373762669
0.000275492566444
0.000148235236027
0.00199158188397
0.00179542375566
0.00148075616681
0.00103386941772
0.000537104739715
0.000217127743804
0.000126207721681
0.000106223371512
9.73138774945e-05
9.0704160096e-05
9.36619470244e-05
0.000114389453824
0.00016006012824
0.000231362245877
0.000317953361069
0.000399226645927
0.000449177503484
0.000433941982829
0.000281460574257
0.000150120699042
0.00224231645182
0.00213146568594
0.00181591571984
0.00130396751398
0.000702906566225
0.000294265621773
0.000176539662624
0.000163655742797
0.00015172424316
0.000127848880796
0.000105958902911
9.74792067681e-05
0.000113438334085
0.000162116024784
0.000244115331087
0.000344218921717
0.000424381495843
0.000433731816239
0.00028899783074
0.00015246559277
0.00248736369001
0.00244143359674
0.00213428670039
0.00157278932399
0.000880417599768
0.000397932966127
0.000259109490273
0.000260809182733
0.000255496694471
0.000216983067001
0.000164170583705
0.000117977228052
9.70045934762e-05
0.000111409153835
0.000169430532818
0.000272188489021
0.000383346039321
0.00042737583319
0.00029774260794
0.000155352334737
0.00270997620051
0.00268641561156
0.00237648505953
0.00177780613635
0.00103365100216
0.000534266132898
0.000410019602959
0.000432480893165
0.000435942281587
0.000387493244362
0.00029883747056
0.00019579558098
0.000120870881212
9.32714507718e-05
0.000116420623195
0.000199787655886
0.00032983576898
0.000413916477498
0.000306897061128
0.000158779660332
0.0028675785111
0.00281874511844
0.00248284055797
0.00186340636806
0.00114691068873
0.000731244134044
0.000675511053203
0.000718353825925
0.00071603625234
0.000647069340381
0.000523586951667
0.000358947353003
0.000197907501512
0.000107849843577
9.1938308557e-05
0.000146880360521
0.000278279989248
0.000396702685335
0.000315687437158
0.000162637857154
0.00289182250725
0.00278680888298
0.00242571289178
0.00184456308134
0.00128130541542
0.00105419217988
0.00108179005552
0.00111053281862
0.00106142078285
0.00094039614964
0.000775084591289
0.000575206729464
0.000344668565057
0.000153464316568
8.91979956721e-05
0.000118544597838
0.000242404216975
0.000383053146818
0.000323421057897
0.000166635954549
0.0027499269324
0.00260610848927
0.00228232802346
0.00186377537963
0.0015745983159
0.00153725039048
0.00156210504638
0.00149421221281
0.00133203615793
0.00112872069187
0.000927675788584
0.000727580387143
0.000485877534811
0.00021780646452
9.55708652874e-05
0.000109869335534
0.000231885437116
0.0003795791097
0.00032890545954
0.000170311111397
0.0024938291285
0.00238131656256
0.00219652122168
0.00203150967159
0.00197669967754
0.00195680332348
0.0018206203581
0.00155036687208
0.00124439464902
0.000998057925631
0.000835798291664
0.000721919750733
0.000541668419506
0.00025237707518
9.95051746289e-05
0.000113491676786
0.00023969486404
0.000383610216716
0.000330547564523
0.000173211226178
0.00223028154441
0.00221315888916
0.00219581056959
0.00218926743558
0.00212625045999
0.00190606563773
0.00153275119618
0.00111942021263
0.00079465180744
0.000608925191767
0.000538307378611
0.000533148259387
0.000462829003722
0.00021615035224
9.82045214288e-05
0.000130436956825
0.000260491342998
0.000384863853812
0.00032610431415
0.000175182767163
0.00206400539938
0.00212181498624
0.00215613716966
0.0020878574706
0.00183425337425
0.00141670668464
0.000973785396836
0.000637416480467
0.000436790507494
0.000340207232952
0.000311754709769
0.000328125030563
0.000311225921794
0.000154062143638
0.000104761458349
0.000162124581527
0.000282176041286
0.000369591053688
0.000312882922882
0.000176291522863
0.00201893249303
0.00206339703394
0.00201737719539
0.0018026485835
0.00142134643049
0.000984035612154
0.000627843153763
0.000403247929377
0.000285811818747
0.000232059979414
0.000211355760069
0.00020883102922
0.000195854447968
0.000122476598001
0.000125665180791
0.000189942508845
0.000270555111478
0.000321275466902
0.000287271425587
0.00017674019335
0.00201314715012
0.00201153681576
0.00189803280907
0.0016286584773
0.00124278306619
0.000844184272968
0.000534781577588
0.000352713709354
0.000262010103413
0.00021685865463
0.000190238625785
0.000171325580164
0.000152638334682
0.000173659793965
8.99234869858e-05
0.000146456964632
0.00011874462291
0.000147286349526
0.000135785115076
0.000144685890371
0.000134092710908
0.000142617224069
0.000127403688526
0.000140494504642
0.000119290584239
0.000138532219241
0.000110968923514
0.000136521009021
0.000102911783901
0.00013440368337
9.53008131881e-05
0.000132167657376
8.81998483238e-05
0.000129824382325
8.16227945515e-05
0.000127333275181
7.55859380782e-05
0.000124752394444
7.00962609222e-05
0.000122205960981
6.51237373486e-05
0.000119789474122
6.06444699498e-05
0.000117577352112
5.66439472591e-05
0.000115628582243
5.310129995e-05
0.000113991618475
4.99931694232e-05
0.00011271191608
4.72959530738e-05
0.000111830560015
4.49852227745e-05
0.0001113683296
4.30339730097e-05
0.000111287518154
4.14021724161e-05
0.000111515381289
4.0048920538e-05
0.000111844763419
3.89235113168e-05
0.00011211270403
3.80252532901e-05
0.000112115592417
3.73583643095e-05
0.000111948948322
3.69616154814e-05
0.000111677404473
3.68677274641e-05
)
;

boundaryField
{
    inletfuel
    {
        type            calculated;
        value           uniform 0.0100623058987;
    }
    inletair
    {
        type            calculated;
        value           uniform 0.000335410196625;
    }
    outlet
    {
        type            calculated;
        value           nonuniform 0();
    }
    axis
    {
        type            empty;
    }
    leftside
    {
        type            nutkWallFunction;
        Cmu             0.09;
        kappa           0.41;
        E               9.8;
        value           nonuniform List<scalar> 
33
(
0
0
3.60760396862e-06
3.86728638228e-06
4.08664517851e-06
0
0
0
0
0
0
0
0
0
0
0
0
0
0
0
0
0
0
0
0
0
0
0
0
0
0
0
0
)
;
    }
    burnerwall
    {
        type            nutkWallFunction;
        Cmu             0.09;
        kappa           0.41;
        E               9.8;
        value           nonuniform List<scalar> 7(0 0 0 0 0 0 1.21004432406e-05);
    }
    front
    {
        type            wedge;
    }
    back
    {
        type            wedge;
    }
    procBoundary0to1
    {
        type            processor;
        value           nonuniform List<scalar> 
27
(
0.00194963208201
0.00195498013601
0.00196446180539
0.00197569624993
0.000127557634659
0.00014724557618
0.000183733690517
0.000214270840849
0.000243013819565
0.000247079429685
0.000176247924157
0.00199433980237
0.00198878773934
0.00189115002456
0.00166126942089
0.00131370892577
0.000921539571359
0.000606258115676
0.000418943002811
0.000321091484427
0.000266031817347
0.000227938765575
0.000196372711035
0.000127557634659
0.000169629265666
0.000111497082201
3.72253370507e-05
)
;
    }
}


// ************************************************************************* //
