/*--------------------------------*- C++ -*----------------------------------*\
  =========                 |
  \\      /  F ield         | OpenFOAM: The Open Source CFD Toolbox
   \\    /   O peration     | Website:  https://openfoam.org
    \\  /    A nd           | Version:  7
     \\/     M anipulation  |
\*---------------------------------------------------------------------------*/
FoamFile
{
    version     2.0;
    format      ascii;
    class       volScalarField;
    location    "0.09";
    object      O2;
}
// * * * * * * * * * * * * * * * * * * * * * * * * * * * * * * * * * * * * * //

dimensions      [0 0 0 0 0 0 0];

internalField   nonuniform List<scalar> 
814
(
2.73604564862e-09
1.95254079766e-09
2.89132833009e-10
3.27925521101e-07
3.30108930853e-07
1.58804848688e-07
1.87855965401e-05
3.26371915941e-05
8.15291502205e-05
0.000628044871796
0.00210077210971
0.0182918340138
0.000986094603339
0.00230780075846
0.00983953312206
0.00104170894364
0.00186821727443
0.00494096238807
0.000907991257528
0.00129776533658
0.00238002835295
0.000698810643106
0.000827075363745
0.00116906323804
0.00049270335294
0.000505692536303
0.000612418683161
0.000327205802928
0.000307553898514
0.000358538336911
0.000210679172484
0.000192799123004
0.000242525801149
0.000135681538739
0.000128994691158
0.000188304228192
9.04780366043e-05
9.44718212776e-05
0.000162359457705
6.42451716221e-05
7.52286389022e-05
0.000144923045831
4.90598954263e-05
6.34036071173e-05
0.000129483469951
3.99505486915e-05
5.51376492038e-05
0.000114358140061
3.399465078e-05
4.8370095873e-05
9.87726760988e-05
2.96977374523e-05
4.24822414677e-05
8.38748115542e-05
2.65131670666e-05
3.76542376417e-05
7.17014938777e-05
2.43034160234e-05
3.4026573488e-05
6.24500821003e-05
2.29249706283e-05
3.14146240093e-05
5.52071822013e-05
2.21676986471e-05
2.94440891685e-05
4.8923962776e-05
2.17626463013e-05
2.7825473632e-05
4.33432255222e-05
2.13053683031e-05
2.61304707144e-05
3.79985963722e-05
2.03612867813e-05
2.39861540908e-05
3.26209218427e-05
1.90202150706e-05
2.16335988677e-05
2.77354203144e-05
1.88065777539e-05
2.07869993813e-05
2.5360460743e-05
2.9557365943e-05
3.19260080609e-05
3.74094261648e-05
0.000119095479766
0.000127722286227
0.000147845931713
0.000574330477955
0.000617822543271
0.000718018147898
0.00178857202094
0.00192625031237
0.00223840329888
0.00355011849798
0.00380886198502
0.00438754364697
0.14001381151
0.0444363124661
0.0140873374757
0.00497898992739
0.0021231838739
0.00111823366262
0.000729933632883
0.000569630373499
0.000492164696085
0.00044389371478
0.000391543682576
0.000337031179858
0.000282878711609
0.000230253709572
0.000184434543721
0.000149491226846
0.000123928089898
0.000103809347705
8.61704733018e-05
7.11042534602e-05
5.80452875037e-05
4.65836872262e-05
3.73166074158e-05
3.24621133865e-05
4.5940485571e-05
0.000179197997079
0.000870675847778
0.00270186758807
0.00524266537155
0.23198995483
0.231992750597
0.231994585394
0.231996685953
0.231998269968
0.231999210531
0.23199967258
0.231999877543
0.231999958086
0.231999987095
0.231999996445
0.231999999133
0.231999999814
0.231999999966
0.231999999995
0.231999999999
0.231999999999
0.231999999996
0.231999999971
0.23199999992
0.231494668518
0.231793386483
0.231889596744
0.231945353483
0.23197428292
0.231989657332
0.231996109511
0.231998704649
0.231999599534
0.231999888794
0.231999972237
0.231999993879
0.231999998809
0.231999999797
0.23199999997
0.231999999996
0.231999999996
0.23199999996
0.231999999486
0.231999995971
0.229375568083
0.230963824219
0.231262916217
0.231684353786
0.231851534375
0.23194214838
0.231978250381
0.231993146425
0.231998025367
0.231999491341
0.231999879977
0.231999975055
0.231999995432
0.231999999265
0.231999999898
0.231999999987
0.231999999984
0.231999999752
0.231999994916
0.23199989619
0.213689769475
0.226636147413
0.228696385563
0.23049767446
0.231265010708
0.231715309783
0.231891985536
0.231966761065
0.231991012448
0.231997838446
0.231999508696
0.231999900659
0.23199998231
0.231999997226
0.231999999621
0.231999999952
0.231999999938
0.231999998899
0.23199997272
0.231998100088
0.0641552172256
0.174480188121
0.21428431532
0.225787588836
0.229323727938
0.230890641968
0.231565008733
0.231863736962
0.23196512225
0.231992137506
0.231998241899
0.231999641781
0.231999935742
0.231999989873
0.231999998606
0.231999999824
0.231999999832
0.231999997277
0.231999936182
0.231996602091
0.0211029356758
0.128707321162
0.200482495823
0.219588868357
0.225999703677
0.229139985911
0.23082411211
0.231610241295
0.231897636133
0.231977068072
0.23199477992
0.231998885908
0.231999790996
0.231999965832
0.231999995138
0.231999999379
0.23199999961
0.231999994794
0.231999892905
0.231995603862
0.00977488595298
0.0999201074894
0.187767122627
0.21166887163
0.221171440694
0.226461401
0.229654526057
0.231176870662
0.231767110373
0.231944493499
0.231986932353
0.231997012093
0.231999397171
0.231999895085
0.23199998423
0.231999997916
0.231999999141
0.231999991092
0.231999843956
0.231995030581
0.00594376764319
0.0624233108655
0.171339240827
0.201411241779
0.214951681692
0.223176076007
0.228196125005
0.230587119409
0.231556715417
0.231882288068
0.231971133247
0.23199292575
0.231998445047
0.231999707044
0.231999952765
0.231999993418
0.2319999981
0.231999985633
0.231999785147
0.231994566191
0.00402390479007
0.0306750730209
0.150662433182
0.189084353778
0.207809999375
0.219681740226
0.2266008489
0.229858175452
0.231246547151
0.231773081885
0.23194090534
0.231984824775
0.231996362636
0.231999251083
0.231999869179
0.231999980536
0.231999995668
0.231999977806
0.231999712822
0.231994014214
0.0031135421855
0.0220061303722
0.126244001005
0.175062251785
0.200128283793
0.216112844472
0.224845164087
0.228949516652
0.230807286368
0.231594804092
0.231885212419
0.231969625145
0.23199214359
0.231998227864
0.23199966287
0.231999946058
0.231999989757
0.231999966711
0.231999620584
0.231993343597
0.00261706341827
0.0181229076412
0.0986415763477
0.159208011794
0.191871904524
0.212153204332
0.222712301578
0.227768623763
0.230200248781
0.231321865469
0.231787554029
0.231941444022
0.231984107212
0.231996083222
0.231999186626
0.231999859499
0.231999975241
0.231999950849
0.231999503837
0.231992570988
0.0022395630987
0.0145048873007
0.0691286334263
0.140967444771
0.182476257628
0.207208746022
0.219930739883
0.226207361745
0.229380096514
0.230927678511
0.231627008026
0.231889917277
0.231969349401
0.231991841458
0.231998152215
0.231999654831
0.231999940145
0.231999927489
0.231999358816
0.231991690777
0.00191333373035
0.011303090457
0.0455423946584
0.119647240939
0.170947022172
0.200673423066
0.216240142024
0.224151762526
0.228291110495
0.2303809994
0.231378493781
0.2317992833
0.231942410297
0.231983925764
0.231996036468
0.231999197884
0.231999857946
0.231999891386
0.231999181548
0.231990677178
0.00156929383811
0.00861896689519
0.0327860623962
0.0943121707536
0.155880205833
0.191941649386
0.211338289096
0.221462951829
0.226858327028
0.229640199446
0.231016867948
0.231649760576
0.231893747376
0.231969701596
0.231991932947
0.231998230185
0.231999672767
0.231999832063
0.231998964818
0.231989498989
0.00125583181568
0.00646433877043
0.0234994586784
0.0657361849669
0.13588995973
0.180475128109
0.204962971458
0.218020584392
0.225009785193
0.228662710554
0.230520095161
0.231418978784
0.231809158651
0.23194436685
0.231984391007
0.231996281933
0.231999272147
0.231999728278
0.231998698296
0.231988105872
0.000976721745033
0.00471924787757
0.0165559955547
0.0444196951957
0.110956380608
0.166248205725
0.19724941276
0.213930388714
0.22278562503
0.22744815146
0.229875182594
0.231091491681
0.231671504234
0.231898911111
0.231970985083
0.231992506628
0.231998434934
0.231999536861
0.231998367517
0.231986463901
0.000738956110454
0.00335619548442
0.0115147328396
0.0311708847532
0.0827565433546
0.150156069007
0.18903922455
0.209672565628
0.220389414905
0.226055899132
0.229081893342
0.230656836496
0.23145949442
0.231818666451
0.231947155707
0.231985392356
0.231996732669
0.231999170329
0.231997950191
0.231984537078
0.000557918058571
0.00241408051804
0.00813578801033
0.0222810445639
0.0572645778327
0.134234629947
0.181639709763
0.205783771834
0.217961061458
0.224479660629
0.228093477268
0.230074774169
0.23114283422
0.231679694789
0.231901354228
0.231972397117
0.231993362702
0.231998453258
0.231997408927
0.231982270793
0.000430554067311
0.00177327192265
0.0058836462611
0.0164800365184
0.0435266257904
0.118558974659
0.174336909793
0.201418367375
0.214855157054
0.222296837253
0.226654760025
0.229200369298
0.230650692157
0.231435057546
0.231810780608
0.231947902424
0.231986801102
0.231997039233
0.231996678221
0.23197958933
0.000337294201113
0.00131430432041
0.00427459719669
0.0122172439019
0.033952432739
0.0994900493856
0.163938005737
0.194124655255
0.209313929212
0.218346874719
0.224069685052
0.227647335772
0.229788351942
0.230995287779
0.231630119629
0.231895270151
0.231974352916
0.23199428089
0.231995641164
0.231976389846
0.000263411290779
0.00095944608503
0.00301399670385
0.00858966130221
0.024287955551
0.0732074650372
0.146403437708
0.180489571329
0.198422100544
0.210363095238
0.218807342107
0.224528888546
0.228103998194
0.230167440554
0.23126964147
0.231780633182
0.231950083169
0.231989020681
0.231994097181
0.23197253326
0.000200654330752
0.000672469312119
0.00200906687657
0.00557866772407
0.0154338048377
0.0441102260396
0.118785175709
0.156739180849
0.178194441154
0.194761298245
0.208142852125
0.218152251581
0.224685406014
0.228536822207
0.230565909619
0.231542025615
0.23189680125
0.231979579943
0.23199173751
0.231967821561
0.00015091250537
0.000451863667579
0.0012638667267
0.00337225763983
0.00914265778965
0.0263443693058
0.0815459119745
0.119925199179
0.143659336301
0.165922388276
0.187378918162
0.205405545376
0.217907726109
0.225366075151
0.22924943103
0.231081271677
0.231786926
0.231963135762
0.231988143963
0.231961983819
0.000112781037965
0.000300748971602
0.00078078177845
0.00200687665594
0.00542737789867
0.0160211491353
0.0465974035373
0.0740468786498
0.0947145591515
0.119069336044
0.150073995357
0.181532313929
0.20534357129
0.219674729312
0.226972740846
0.230286701068
0.231589596646
0.231936633886
0.231982936885
0.231954637014
8.32745252888e-05
0.000200624143937
0.000489770154423
0.00123224181153
0.00336810469654
0.00987146457593
0.025695801329
0.039876924903
0.0511181222066
0.0665444126698
0.0965395780485
0.140850207768
0.183681261532
0.210386798805
0.223504701504
0.229166543603
0.231315262382
0.231895433171
0.23197624285
0.231945269134
6.19199822255e-05
0.000137218227027
0.000321043668386
0.000802154784186
0.00218080557042
0.00591979771722
0.0131326872434
0.0193846040289
0.0246744873308
0.0330936689743
0.0507173858746
0.0920809655287
0.150218264455
0.197307930224
0.219390051575
0.227955690632
0.231028453471
0.23184847988
0.231968644928
0.231933142717
5.05951309035e-05
0.000105030040425
0.000237937875941
0.000579794906547
0.00146006623073
0.00338249347578
0.00633465776238
0.00897945503262
0.0117201478203
0.0165559348958
0.0273493053982
0.0569175994997
0.120964668089
0.183285921658
0.215896129477
0.22720797015
0.230877842069
0.231818420768
0.231960519643
0.231917082329
6.78710335154e-05
0.000133188151651
0.000288500416293
0.000653103445437
0.00144459992995
0.00293282722168
0.00533745693199
0.00896522360001
0.01441084395
0.0214677242695
0.0311355030385
0.0547368376439
0.109646426056
0.177150836304
0.215098137731
0.227161054323
0.230876185626
0.231806975803
0.231950192272
0.231895265002
0.000260251108261
0.00050012579529
0.00104579931032
0.0022275097527
0.00461975130852
0.00915832431286
0.017120264461
0.0299876070043
0.0476950556998
0.0671627660157
0.0809848601462
0.094662790596
0.127692029593
0.185353489011
0.217917386117
0.227826190006
0.230964123478
0.231792152907
0.231932250071
0.231864936811
0.00125431635998
0.0023328685138
0.0045633948212
0.00891283813303
0.0169084101366
0.0306490275935
0.0521265992886
0.082490578795
0.109007386267
0.12782550182
0.139235946299
0.146185898645
0.161969020178
0.2007462276
0.221874913079
0.228711829175
0.231026856933
0.231731265196
0.231894691797
0.231821744951
0.00381970985684
0.00678642644089
0.0124091867796
0.0224365456706
0.0394031547204
0.0671453775217
0.101456736035
0.129749282815
0.150311807892
0.164589126139
0.174155518636
0.180487445262
0.189803702333
0.212240945909
0.224532137119
0.229048461856
0.23081270995
0.231535385652
0.231808495931
0.231756923743
0.00723082880708
0.0122599934615
0.0213207499139
0.0369337667031
0.0633755323678
0.0988731628717
0.129462113695
0.15214535782
0.168397001723
0.180310322455
0.189309099952
0.19631829057
0.203733322431
0.231864984414
0.231850526061
0.231909313364
0.231886567837
0.231934902807
0.231914772703
0.231949242428
0.231928264087
0.231956123095
0.231934013681
0.231958715498
0.23193593918
0.231958756079
0.231935573414
0.231957183503
0.231933626937
0.231954437925
0.231930381557
0.231950703451
0.231925924333
0.231946045038
0.231920220874
0.231940534833
0.231913185563
0.231934069126
0.231904653471
0.231926475394
0.23189433598
0.231917534587
0.231881840943
0.231906943355
0.231866636744
0.231894253009
0.231847971275
0.231878849149
0.231824794963
0.231859861388
0.231795661391
0.231836148475
0.2317588897
0.231806096935
0.231712196006
0.231767649873
0.231652678144
0.231718344203
0.231577091528
0.231655057482
0.231482021708
0.231574992105
0.231364721742
0.231475581946
0.231223440951
0.231355888469
0.231057801346
0.231215431765
0.230868386244
)
;

boundaryField
{
    inletfuel
    {
        type            fixedValue;
        value           uniform 0;
    }
    inletair
    {
        type            fixedValue;
        value           uniform 0.232;
    }
    outlet
    {
        type            zeroGradient;
    }
    axis
    {
        type            empty;
    }
    leftside
    {
        type            zeroGradient;
    }
    burnerwall
    {
        type            zeroGradient;
    }
    front
    {
        type            wedge;
    }
    back
    {
        type            wedge;
    }
    procBoundary0to1
    {
        type            processor;
        value           nonuniform List<scalar> 
27
(
0.00535540771713
0.00569086619881
0.00644034008717
0.00754307503864
0.217093437163
0.224756086037
0.228164929888
0.229955861817
0.231042171006
0.231608810192
0.231654903315
0.0100779556765
0.0163817679454
0.02757444702
0.0466854993069
0.0790601487388
0.111844381991
0.138101999724
0.15735022144
0.171465209809
0.182387556252
0.191358175094
0.199054237727
0.217093437163
0.206483783075
0.231052564321
0.230655175127
)
;
    }
}


// ************************************************************************* //
