/*--------------------------------*- C++ -*----------------------------------*\
  =========                 |
  \\      /  F ield         | OpenFOAM: The Open Source CFD Toolbox
   \\    /   O peration     | Website:  https://openfoam.org
    \\  /    A nd           | Version:  7
     \\/     M anipulation  |
\*---------------------------------------------------------------------------*/
FoamFile
{
    version     2.0;
    format      ascii;
    class       volScalarField;
    location    "0.09";
    object      one_over_tauStar;
}
// * * * * * * * * * * * * * * * * * * * * * * * * * * * * * * * * * * * * * //

dimensions      [0 0 -1 0 0 0 0];

internalField   nonuniform List<scalar> 
814
(
809.454106997
1161.08497146
5238.47261376
995.70374636
1386.29421254
5230.4193181
1082.09079165
1502.03200843
5223.29393346
1226.81202328
1966.96093614
6925.5084372
1471.02364804
2607.83651459
7120.68705543
1753.07905477
3080.1670248
6541.10570063
2039.03593929
3396.00508505
5945.60773106
2285.94654713
3547.97634106
5389.00859283
2468.18261588
3570.32711495
4885.89435801
2574.17319383
3499.71186372
4438.34830632
2607.23956069
3365.54395229
4040.39354679
2581.0890804
3192.6361586
3682.49180939
2512.09670681
3000.08261249
3355.6486801
2413.82679271
2799.46489328
3057.74977845
2296.53483895
2598.71143296
2789.03998673
2167.85448775
2402.67410345
2545.28248419
2032.98287232
2213.00413243
2320.96957949
1895.04547765
2030.04900614
2110.83453589
1754.76269246
1853.90655014
1912.09255624
1614.02278643
1684.45172651
1724.33266245
1473.69169968
1521.67291721
1546.69968161
1335.86062185
1366.61774053
1380.19040492
1201.23808769
1219.84113034
1226.17532061
1075.54451175
1086.05301509
1088.59026663
962.899323376
969.127525231
970.594627301
867.797859602
871.661452454
873.406435226
788.558345486
791.218521654
792.905653684
714.174140971
715.754995532
716.512408525
627.548774692
627.884068123
626.537703391
523.886605793
523.099844913
519.958962599
424.725176911
423.586439765
420.37617187
352.721435064
351.681853244
349.374722423
917.981736815
5279.06653628
5447.9452606
5190.56213092
4817.03195161
4431.10496106
4061.14828644
3716.29538994
3400.66215926
3111.49760079
2849.32090661
2613.17681028
2397.4565288
2198.58733828
2012.85406954
1835.05762703
1662.13963109
1495.41199147
1338.79818098
1194.64124622
1066.59065416
957.320118532
866.55183051
789.690226835
714.013769143
622.488603324
514.533890084
415.723552478
346.242360828
54.4966707043
15.6187373289
13.7986458036
13.2432770581
12.2104106409
11.2296149551
10.1056381199
9.03775692719
8.10456846473
7.27363535542
6.57974704253
5.98297722131
5.48741294446
5.07548976694
4.75018500796
4.48700651258
4.30660985081
4.16933410872
4.35591854594
14.5432227213
56.6212694086
29.3865214152
22.6666510977
19.9305826655
16.4991255487
14.0813825834
11.9545695408
10.2201851079
8.84431269866
7.74759091741
6.88126241627
6.18351654668
5.61740099343
5.16594095441
4.80616125107
4.53286375191
4.3313889315
4.20426785586
4.5335078004
14.7899372463
66.1187937335
41.2796072889
34.1348897559
26.2208889939
20.9944541895
16.8518602942
13.6978078704
11.2113863558
9.42748093625
8.08485358918
7.09249509739
6.32424517292
5.71407944825
5.23548382514
4.85366939717
4.56897271596
4.35369458956
4.23056419471
4.63264067441
14.9982798595
597.079172482
119.726925756
61.3328960185
37.2896680498
30.0865389858
21.7922596541
16.9889891973
12.9009633588
10.3463275832
8.54376749607
7.35110248005
6.48176732632
5.81948264431
5.30856306618
4.90460440425
4.60492237661
4.37718901475
4.25496027978
4.62798250833
16.7544801463
3572.7088548
2280.01280713
628.895229882
109.716157948
51.1223132668
33.1367583003
23.5437792443
16.182305847
11.9302120201
9.26242171797
7.70837983622
6.67571795634
5.93943480667
5.38589866736
4.95684102302
4.63910120592
4.39987076938
4.27504754767
4.7024570454
18.8228316729
3856.70253243
2610.57070531
829.56338689
161.046690405
77.9480549182
51.2896572705
33.7198699366
21.5221996869
14.3205233972
10.3471779731
8.22465869432
6.94229712454
6.09532576835
5.48323766023
5.02113411195
4.68131679036
4.42860492978
4.30148610246
4.83767925614
20.5733478527
3431.73309694
2156.18226059
675.697352912
198.321204751
109.087895567
73.5633165941
46.3159512069
27.9940661369
17.2481843315
11.7554855162
8.90767838505
7.29208111593
6.29050755838
5.60130883824
5.09680507695
4.73115306174
4.46270217832
4.3351377311
5.00475386235
21.7681479084
3120.88291096
1883.93245196
614.945137979
244.860336355
145.760873558
97.4714101792
59.6590995505
34.5097340866
20.4347988966
13.4230416093
9.76791323161
7.74206023377
6.53479211736
5.74371345963
5.18470962439
4.78787859799
4.50098297735
4.37343667113
5.1855902446
22.5955745296
2858.92230634
1734.90233783
625.02469216
298.466476036
186.125484308
120.586571665
71.9366420781
40.5990920595
23.7705292558
15.3286875318
10.8215192812
8.31394987093
6.84430548085
5.91877249392
5.28853933461
4.85237472376
4.54311348213
4.41491384493
5.36939268243
23.1072263433
2625.73284781
1601.91117137
661.302930153
355.944341195
228.644985982
142.007522327
82.9090079866
46.4929141971
27.3082185525
17.4780932987
12.0776679195
9.02742987748
7.23806139677
6.13888011463
5.41505321708
4.92778574126
4.59033834658
4.46073212704
5.5758279024
23.3462384844
2425.86472524
1485.60657421
694.870468472
414.003474559
273.427421302
163.734206406
94.2271111052
52.9081211864
31.1847357534
19.8740611959
13.5373040914
9.89539447702
7.73514718624
6.41852607866
5.57309830958
5.01863432773
4.64481114331
4.51252137396
5.80728121666
23.3561659648
2251.46777569
1384.56897385
717.612820952
466.849723505
320.500924433
189.629742865
108.036168547
60.6673648696
35.5606428259
22.5156042957
15.194205545
10.9222267883
8.35178524439
6.77295026104
5.77300603047
5.13044250983
4.70920316353
4.57142485213
6.0503403457
23.1948352123
2095.39702029
1296.4306802
729.727349457
508.823735574
366.972271086
222.360519782
126.117449437
70.5743040861
40.6610701275
25.4453977462
17.0534739332
12.1125235796
9.09824302695
7.21758172582
6.02641160162
5.27012345133
4.78692855685
4.63844210491
6.28813805575
22.9145727484
1958.34871304
1224.46415306
736.860966476
538.706704136
408.853765634
261.194806911
150.279246368
83.6370551641
46.9074842349
28.7762495017
19.1275065301
13.4672551543
9.97811181769
7.76611253694
6.34634591147
5.44636877331
4.88254918696
4.71489429865
6.51457155741
22.5553184485
1838.54899161
1165.88011248
738.965483036
559.796927099
443.457835951
300.53163127
179.502049578
100.323561356
54.7747733725
32.6617792646
21.4334586117
14.9905974127
10.9954517101
8.42926106043
6.74753817681
5.66995158313
5.00211716347
4.80268716885
6.72659542264
22.1583836616
1730.96683785
1118.5830313
740.153855519
577.974534838
470.668254238
334.811934848
206.945909468
117.93948694
63.6818540255
37.0354115883
23.9659105194
16.6822844005
12.1566057308
9.21708569026
7.24673769891
5.95449524541
5.15365488854
4.90456223915
6.92101139949
21.7300899963
1632.2417435
1080.8140181
743.414529586
594.164459209
492.796279833
362.586361371
224.60828835
130.180248606
71.4545742713
41.4990812562
26.7344087159
18.5890150239
13.5086626716
10.1586318993
7.86733945419
6.31958807172
5.3483487194
5.02459123256
7.09545366628
21.271232212
1539.61947535
1047.71182664
746.605960719
606.542567777
510.571637502
383.370777448
229.611259304
132.183377156
76.2746579821
46.0947839033
30.1252365425
20.9798284028
15.2091029296
11.3366053763
8.65069188489
6.79337747312
5.60202187521
5.16868414945
7.24932463378
20.7880272186
1448.31080366
1015.64633098
747.155892636
615.332155764
526.002705576
398.43880333
227.310254614
128.222379928
81.1920321018
53.1953948293
35.7159413402
24.7515644551
17.6981115579
12.9725717238
9.69669825952
7.4235228863
5.94009720405
5.34598912522
7.38333767117
20.2868603529
1355.83237421
982.983223724
745.145432364
621.290191883
537.836868062
410.415329849
226.795741901
128.291286613
91.9604772575
67.1655606642
46.8798484213
32.0087252343
22.098185584
15.5949877026
11.2371505087
8.29926526543
6.40041268021
5.57019606471
7.50018773667
19.7737217969
1261.38661164
949.055851523
741.503411985
625.49347051
547.764465144
424.893525001
238.692582805
138.644156254
110.179161427
90.051402645
68.1096532476
46.8936356355
30.9040715702
20.4066974016
13.7740465245
9.6079185983
7.04978663894
5.86377499463
7.60377855724
19.2539737288
1166.95443272
914.914331485
737.864947444
629.957962086
555.995278579
440.71778355
261.413722676
157.272948047
131.785999627
116.650625719
97.7177007032
73.0488511961
48.3776137404
29.8944195071
18.4243146197
11.7341875293
7.99480106354
6.25542008081
7.70144133007
18.7342854261
1073.24195339
880.901261111
734.836328295
636.195950612
561.604263002
450.201861173
280.802597868
179.495114167
153.740925525
142.0381377
128.071949401
106.656004213
77.6679613779
47.9870366161
27.2161850274
15.3627791562
9.41840622237
6.78759812104
7.80400342539
18.2224949892
985.012123608
846.004803716
730.674636616
641.569551426
561.448687227
442.997902366
285.576762431
199.92000311
175.130765093
163.732963596
153.337581021
136.282907136
110.067958592
75.2809058565
42.3541229804
21.5313128163
11.5156872726
7.47361578138
7.91912204113
17.7314235928
906.181863973
809.823582967
720.123651189
637.568390227
546.646958158
415.265625549
281.777375872
219.873823512
197.154446731
183.49356403
172.36669839
159.610088027
137.760012298
104.714603843
63.560294472
30.4154381802
14.2362021229
8.2725821685
8.04612580367
17.2743626713
836.473779637
770.199096261
697.184171442
614.139884438
507.436639501
376.700281726
282.717694348
240.355667619
217.719064168
200.382786523
185.831949679
173.851370719
156.998415544
125.715147415
82.6918969037
39.8922256988
17.0043308126
9.00829614448
8.15784563891
16.866658197
771.618001327
722.554068162
655.893033053
566.246018696
454.746926798
353.785330214
293.238731788
258.337343503
232.89778948
212.137351321
194.326366831
179.203752162
164.636296425
138.478516377
94.5716219509
45.3861978944
18.3821308015
9.4011426908
8.2254380581
16.5164714961
699.928836587
655.876930943
587.380533951
496.631430053
405.271180268
338.14554461
293.982724251
260.316902543
232.702924035
210.698456164
192.810742304
178.471785223
164.564396572
141.970280276
97.4952902452
45.5125057026
18.2439739949
9.46347827676
8.26316456791
16.2143071068
606.941000625
562.30574184
496.780268813
423.784016131
361.947416468
314.928046904
276.684455648
243.1866105
214.734724804
192.821953062
176.22658509
165.97623411
157.295292337
135.314075269
89.0316253182
40.3300318697
17.1570492414
9.41849093271
8.34514461713
15.939051334
498.691364294
460.495407107
411.918750165
363.828113645
321.377214828
281.93588492
244.925282997
212.606170185
186.013777851
165.4538871
151.377060778
146.699723535
143.532007891
119.640889051
71.8885397868
32.9732246737
15.9569241576
9.57057628455
8.6139304983
15.6726018573
404.017581041
379.14209982
348.987364495
316.515276625
281.418682553
243.311629919
207.617328108
176.696474075
151.870447701
134.051707899
124.446049075
124.23125004
124.397683051
96.8174708443
54.9510816009
28.2835784834
16.2069233759
10.6686013055
9.31470332834
15.4367027796
339.211290305
324.786014751
305.243316548
279.630242919
247.095616616
209.732593283
173.305167501
143.17907193
121.612648399
108.157531131
101.79230492
101.57172159
101.098929882
27.8380695456
55.9502418117
67.5360758034
55.9455519709
70.9929724328
55.9406139368
69.6347617417
55.938262389
66.6092653063
55.9350190416
62.880529536
55.931606297
59.1947142719
55.9279589157
55.8112336535
55.9239486244
52.8116308465
55.919483888
50.1926010231
55.9145007641
47.9161873214
55.9089598947
45.9138134409
55.9028777717
44.1536862457
55.8962336633
42.6077241658
55.8888284318
41.2434109019
55.8807179094
40.034234248
55.8720032942
38.9618986648
55.8626856574
38.0099910163
55.8527898587
37.1657854085
55.8423653406
36.4207722382
55.8314704752
35.7758689738
55.8201794595
35.2375328318
55.8085607051
34.8186815672
55.7967176949
34.5235550806
55.784629145
34.3215526031
55.7722107603
34.1509987263
55.7600092801
33.9348869013
55.7479307648
33.5997523737
55.7360663781
)
;

boundaryField
{
    inletfuel
    {
        type            calculated;
        value           uniform 120.747670785;
    }
    inletair
    {
        type            calculated;
        value           uniform 4.0249223595;
    }
    outlet
    {
        type            calculated;
        value           nonuniform 0();
    }
    axis
    {
        type            empty;
    }
    leftside
    {
        type            calculated;
        value           nonuniform List<scalar> 
33
(
27.8380695456
55.9502418117
14.5432227213
14.7899372463
14.9982798595
55.9502418117
55.9455519709
55.9406139368
55.938262389
55.9350190416
55.931606297
55.9279589157
55.9239486244
55.919483888
55.9145007641
55.9089598947
55.9028777717
55.8962336633
55.8888284318
55.8807179094
55.8720032942
55.8626856574
55.8527898587
55.8423653406
55.8314704752
55.8201794595
55.8085607051
55.7967176949
55.784629145
55.7722107603
55.7600092801
55.7479307648
55.7360663781
)
;
    }
    burnerwall
    {
        type            calculated;
        value           nonuniform List<scalar> 7(5238.47261376 5230.4193181 5223.29393346 54.4966707043 56.6212694086 66.1187937335 917.981736815);
    }
    front
    {
        type            wedge;
    }
    back
    {
        type            wedge;
    }
    procBoundary0to1
    {
        type            processor;
        value           nonuniform List<scalar> 
27
(
300.364914281
299.855607946
298.545315365
296.91801873
75.0175542384
46.5757212237
29.5002227067
19.9900672422
13.7941895037
10.895648349
15.3363092435
293.240616692
285.31898224
272.781150133
253.439941245
225.431443169
188.66703724
151.938028753
124.141807211
106.850369304
96.8803135898
91.2114724243
87.8305047804
75.0175542384
83.5840358414
33.1418819197
55.7239346688
)
;
    }
}


// ************************************************************************* //
