/*--------------------------------*- C++ -*----------------------------------*\
  =========                 |
  \\      /  F ield         | OpenFOAM: The Open Source CFD Toolbox
   \\    /   O peration     | Website:  https://openfoam.org
    \\  /    A nd           | Version:  7
     \\/     M anipulation  |
\*---------------------------------------------------------------------------*/
FoamFile
{
    version     2.0;
    format      ascii;
    class       volScalarField;
    location    "0.09";
    object      p;
}
// * * * * * * * * * * * * * * * * * * * * * * * * * * * * * * * * * * * * * //

dimensions      [1 -1 -2 0 0 0 0];

internalField   nonuniform List<scalar> 
814
(
98653.60254
98644.8853826
98661.1568541
98637.3590503
98632.854705
98636.2824642
98626.0360974
98624.0103731
98625.4891963
98629.0421878
98628.3156008
98628.4145146
98648.469786
98648.072773
98647.3882283
98643.944001
98643.5710917
98644.047126
98651.7437837
98651.8805696
98652.1965644
98662.2901986
98662.1393519
98662.2427358
98670.8784015
98670.7524213
98670.7575819
98679.6127482
98679.5961234
98679.5375326
98689.1293743
98689.1332977
98689.0835745
98699.1490137
98699.1350921
98699.1007987
98709.7495073
98709.7184111
98709.704027
98720.750009
98720.7034224
98720.6524
98732.2734143
98732.2446054
98732.179758
98744.4581536
98744.4301019
98744.3997374
98757.3895704
98757.3517189
98757.3140161
98771.0969354
98771.0340489
98770.9856708
98785.4401732
98785.4262223
98785.400989
98800.6479223
98800.6323266
98800.6276904
98816.3226772
98816.3074385
98816.3170123
98832.2714287
98832.2467221
98832.2271474
98847.5815984
98847.5659292
98847.5793565
98863.1462166
98863.1025588
98863.1001247
98878.4896362
98878.4595502
98878.4406269
98894.1924776
98894.1512127
98894.1573345
98910.8018578
98910.74804
98910.7152385
98928.5765699
98928.531695
98928.5066604
98948.9049982
98948.8501142
98948.8041632
98972.4438659
98972.4205886
98972.3836136
99001.5626947
99001.5523973
99001.5121572
99036.5696365
99036.562079
99036.5281826
98622.0590617
98648.6897646
98643.6095467
98652.2827612
98662.0407334
98670.5835429
98679.4273678
98689.0345194
98699.070872
98709.7137907
98720.6262648
98732.1327079
98744.3590087
98757.2606738
98770.9026601
98785.3483364
98800.6149981
98816.3245856
98832.2073123
98847.5949266
98863.0819492
98878.4179723
98894.148122
98910.6593451
98928.4577517
98948.7297788
98972.3279354
99001.4574821
99036.4766066
98608.6933984
98607.7850187
98606.7121368
98604.6578714
98602.886313
98599.0321823
98595.0567599
98590.3046562
98585.3716778
98580.0438898
98574.5866723
98568.973263
98563.3864218
98557.8891564
98552.5280673
98547.5178193
98542.6170836
98538.4279049
98534.5998306
98532.7824922
98615.0836842
98613.9500228
98613.1856166
98611.0340609
98608.9291488
98604.6122663
98600.1675079
98594.7896454
98589.2924529
98583.4880622
98577.6484007
98571.7056293
98565.8526764
98560.1321754
98554.5736773
98549.3874752
98544.3525712
98540.0707614
98536.163617
98534.2660006
98626.1320052
98624.6568975
98622.0659823
98618.6775142
98615.560696
98609.8842403
98605.0981229
98599.2085133
98593.2383974
98586.9930635
98580.8049546
98574.5627528
98568.469538
98562.5486861
98556.8159787
98551.474724
98546.3089716
98541.9520466
98537.9447405
98536.0160732
98635.9019956
98627.8274119
98629.3584542
98623.6151654
98621.0659727
98615.1770283
98610.020552
98603.680807
98597.2880176
98590.6035822
98584.0687012
98577.5290893
98571.1949249
98565.0733616
98559.1690649
98553.6748039
98548.3764453
98543.9408312
98539.806393
98537.9183093
98643.820508
98644.7771143
98642.0167862
98636.2849753
98630.5261912
98623.5602862
98616.4043743
98609.5620104
98602.4914864
98595.2842371
98588.3029337
98581.3899026
98574.7478937
98568.3704235
98562.2506619
98556.5641807
98551.1011493
98546.5476939
98542.2791998
98540.1370493
98643.115509
98645.0151311
98644.3530175
98641.9980795
98639.201085
98629.8158997
98623.4885061
98616.3096686
98608.6268033
98600.8560955
98593.3859381
98586.05149
98579.055347
98572.3803172
98566.0117856
98560.1034827
98554.4518229
98549.7504968
98545.3430143
98543.1154087
98652.8427226
98653.8825629
98652.7630657
98653.4255563
98644.0817397
98639.0765509
98631.8984602
98623.9829986
98615.6688411
98607.3432927
98599.3585138
98591.5766317
98584.186717
98577.1739145
98570.5227507
98564.363375
98558.5002134
98553.6194011
98549.0686619
98546.7243639
98662.0247601
98662.4404012
98662.1662333
98658.7004669
98653.989934
98648.3675559
98640.8443558
98632.3971261
98623.5678367
98614.7459571
98606.2464264
98598.0137903
98590.1979819
98582.8105592
98575.8435135
98569.4049913
98563.3102375
98558.22036
98553.5336461
98551.0246734
98670.2769024
98670.3558584
98670.6664374
98667.0468745
98663.6790003
98657.6305491
98650.3628775
98641.5216971
98632.3387163
98623.1012614
98614.089638
98605.404346
98597.1403226
98589.3467732
98582.0323484
98575.288663
98568.9446724
98563.6211063
98558.7993173
98556.0937721
98679.1875498
98679.081555
98678.9807223
98676.1705372
98673.4510012
98667.4680345
98660.4214142
98651.4236301
98642.0008814
98632.3942187
98622.9188312
98613.8009892
98605.0685465
98596.844189
98589.1530022
98582.0795501
98575.4703
98569.8925355
98564.9315815
98562.041448
98688.7707956
98688.7248978
98688.3968029
98686.1477725
98683.5879918
98678.0527945
98671.1134179
98662.1989839
98652.613207
98642.6806186
98632.8253101
98623.2440476
98614.0411172
98605.3693502
98597.2748089
98589.8476649
98582.9566678
98577.1086466
98572.0034091
98568.9415428
98698.7825436
98698.8020171
98698.1849771
98696.6977277
98694.0473494
98689.2384657
98682.575059
98673.8667042
98664.217658
98654.0057677
98643.79658
98633.767258
98624.1250259
98614.9930516
98606.4731958
98598.668127
98591.4779177
98585.3492603
98580.0848894
98576.8647822
98709.4770412
98709.5897982
98709.168804
98707.8108385
98705.4391613
98701.2005395
98694.8456014
98686.492895
98676.8164982
98666.3989827
98655.8710564
98645.4737484
98635.3823854
98625.7966712
98616.8302465
98608.6228643
98601.1124549
98594.6958812
98589.2749204
98585.8653892
98720.3994012
98720.3808962
98719.9856219
98719.192842
98717.1182335
98713.5940975
98707.7881972
98699.8904711
98690.3843118
98679.8912746
98669.1083757
98658.4045216
98647.8742052
98637.8630567
98628.4312722
98619.7988769
98611.9441268
98605.2322655
98599.6287666
98596.0382407
98731.9222155
98731.8606867
98731.5125875
98730.7832257
98729.3468033
98726.2143763
98721.1917396
98713.9882603
98704.8320481
98694.4875379
98683.5629835
98672.6143909
98661.7259629
98651.2754535
98641.3650329
98632.2862469
98624.059287
98617.0389337
98611.2271622
98607.454087
98744.2262762
98744.1766189
98743.9909275
98743.6081272
98742.2260274
98739.6569255
98735.3365733
98728.7871808
98720.2592178
98710.2433552
98699.3574198
98688.2328209
98677.0493503
98666.1219469
98655.7312185
98646.1783986
98637.5426417
98630.1854768
98624.1418291
98620.1846713
98757.1286343
98757.0302187
98756.7487286
98756.4409744
98755.4263539
98753.3995168
98749.7603821
98744.0794616
98736.4637314
98727.0658472
98716.564075
98705.3628374
98693.9433725
98682.5690088
98671.6394811
98661.5718454
98652.4740063
98644.7319547
98638.4252475
98634.2561437
98770.7808805
98770.6393596
98770.5301944
98770.2658156
98769.4575102
98768.1100555
98765.25957
98760.4389845
98754.0023069
98745.3218001
98735.4267174
98724.3401696
98712.6535802
98700.8308029
98689.2218567
98678.5672743
98668.9254688
98660.7311203
98654.1226482
98649.7478317
98785.2688316
98785.2274331
98785.2663879
98785.2360743
98784.9743941
98783.8256886
98781.8148006
98778.0080751
98772.825735
98765.3827516
98756.1179313
98745.2497742
98733.4004247
98720.9999845
98708.6621543
98697.254017
98686.9549089
98678.2284283
98671.2698568
98666.6931502
98800.6093246
98800.6311388
98800.7438622
98800.8844026
98800.9140542
98800.6530842
98799.4565288
98797.2647739
98792.8617156
98786.793479
98778.9143671
98768.2268031
98756.1706203
98743.2103608
98730.02824
98717.6651311
98706.6086238
98697.2623883
98689.8976357
98685.1176854
98816.31927
98816.3946318
98816.5693226
98816.8166482
98817.1064379
98817.491226
98816.8947983
98816.4022157
98814.1971296
98809.8697509
98802.4553571
98793.4194505
98780.9947042
98767.5383446
98753.1553905
98739.7973862
98727.8267656
98717.8308804
98710.0241118
98705.0388723
98832.1412722
98832.24688
98832.4623384
98832.8363593
98833.4451499
98834.4591106
98834.5234937
98835.2297134
98834.2969985
98831.9658387
98826.8157147
98818.0877401
98807.1761207
98792.9949946
98777.8535688
98763.3591294
98750.4357032
98739.8588584
98731.640812
98726.4623863
98847.613055
98847.7224929
98847.9547532
98848.3413006
98848.9529085
98849.6549512
98850.6366057
98851.9610249
98852.1686988
98851.4488773
98848.4984227
98842.6050721
98832.3386681
98819.5403828
98803.0673691
98788.1990808
98774.180751
98763.1643573
98754.688177
98749.3764032
98863.065161
98863.1056014
98863.2928848
98863.6543805
98864.2376524
98865.2003549
98866.3084877
98867.0986383
98867.7226293
98867.3365306
98866.569067
98862.4932076
98855.3563853
98844.5206639
98827.894051
98813.1111343
98798.8459557
98787.5215681
98779.07322
98773.7547292
98878.3827029
98878.4018757
98878.5161192
98878.7498356
98879.1471974
98879.7199878
98880.384436
98881.0469155
98881.6297706
98881.679
98881.0541667
98880.3726809
98875.6761302
98866.2022019
98851.8458917
98839.0734121
98824.1185668
98812.9305689
98804.6833266
98799.5718806
98894.1340968
98894.1266554
98894.1715513
98894.3037887
98894.5832342
98895.010822
98895.5743125
98896.0268601
98896.135146
98895.832168
98895.1296506
98894.33111
98891.6471299
98892.1497164
98871.449855
98864.4608241
98850.0760741
98839.4078077
98831.5927644
98826.8586435
98910.5618245
98910.4209424
98910.2622669
98910.1207323
98910.0271864
98909.9842358
98909.9019024
98909.7332841
98909.5710757
98909.4380854
98909.2700833
98908.5553981
98906.4267443
98904.9913653
98897.2446512
98889.2074401
98877.1475523
98867.0766154
98859.9566248
98855.7426218
98928.3492803
98928.1306871
98927.8356223
98927.4338813
98926.9472521
98926.3775707
98925.8083008
98925.2574088
98924.623102
98923.8335383
98923.0768418
98922.5950074
98922.5659381
98921.4733833
98918.0787955
98911.8377063
98903.3610194
98895.5077103
98889.8242657
98886.3921729
98948.5836941
98948.2864227
98947.8490779
98947.269537
98946.5491952
98945.6480139
98944.5045582
98943.006281
98941.4149009
98940.0061181
98938.4870186
98937.3735399
98937.1571213
98936.3974519
98935.9780446
98934.0644086
98930.5212871
98925.9862822
98921.8838755
98919.2058976
98972.194507
98971.8069043
98971.156403
98970.2016394
98968.8940035
98967.2453954
98965.2303583
98963.5000629
98961.1109146
98959.1497738
98957.6860591
98957.3846947
98958.5487648
98959.9039517
98961.167568
98963.4300574
98961.955122
98959.8197844
98956.7696937
98954.5479782
99001.3294975
99001.0397935
99000.4308147
98999.55263
98998.4696681
98997.3107315
98995.0697903
98993.1643663
98991.324254
98989.7233892
98988.2074459
98987.6599945
98987.8412372
98993.0559804
98995.5816236
98999.4071725
98999.316657
98997.5621784
98994.9999468
98992.7055839
99036.3632176
99036.132026
99035.7269653
99035.2485774
99034.5810541
99033.6458282
99033.0450541
99032.4989462
99031.9524575
99031.4983904
99030.9543341
99030.9361408
99031.9678266
98538.5619631
98538.9763236
98540.2464513
98540.4181101
98542.9690895
98543.0307189
98546.4868252
98546.5331526
98550.7694869
98550.7993345
98555.7529938
98555.7410682
98561.6170019
98561.5767069
98568.4476113
98568.3835927
98576.3144312
98576.2333603
98585.2780597
98585.1858822
98595.408244
98595.305151
98606.7672706
98606.6544748
98619.3948978
98619.2944755
98633.4610454
98633.3342858
98648.9219301
98648.7863653
98665.8337831
98665.6908246
98684.2260094
98684.0759054
98704.1143344
98703.9587525
98725.5047512
98725.344971
98748.3936218
98748.2317898
98772.7718598
98772.6136744
98798.6323378
98798.4841701
98825.9989577
98825.8625189
98855.0034385
98854.8631302
98885.8567774
98885.7628237
98918.7986783
98918.7312141
98954.2447836
98954.1877616
98992.3904383
98992.3401037
)
;

boundaryField
{
    inletfuel
    {
        type            zeroGradient;
    }
    inletair
    {
        type            zeroGradient;
    }
    outlet
    {
        type            fixedValue;
        value           nonuniform 0();
    }
    axis
    {
        type            empty;
    }
    leftside
    {
        type            zeroGradient;
    }
    burnerwall
    {
        type            zeroGradient;
    }
    front
    {
        type            wedge;
    }
    back
    {
        type            wedge;
    }
    procBoundary0to1
    {
        type            processor;
        value           nonuniform List<scalar> 
27
(
99077.6819003
99077.6855423
99077.6817674
99077.6690237
99036.6853762
99040.0740161
99042.8182055
99042.1149441
99039.411514
99036.4156302
99033.979999
99077.6265997
99077.5873225
99077.481358
99077.4182385
99077.3128953
99077.4334374
99077.6149011
99077.9148097
99078.2340201
99078.7077247
99079.3222077
99080.5749997
99036.6853762
99082.1217451
99033.5939749
99033.5379875
)
;
    }
}


// ************************************************************************* //
