/*--------------------------------*- C++ -*----------------------------------*\
  =========                 |
  \\      /  F ield         | OpenFOAM: The Open Source CFD Toolbox
   \\    /   O peration     | Website:  https://openfoam.org
    \\  /    A nd           | Version:  7
     \\/     M anipulation  |
\*---------------------------------------------------------------------------*/
FoamFile
{
    version     2.0;
    format      ascii;
    class       volScalarField;
    location    "0.09";
    object      PaSR<psiReactionThermo>:kappa;
}
// * * * * * * * * * * * * * * * * * * * * * * * * * * * * * * * * * * * * * //

dimensions      [0 0 0 0 0 0 0];

internalField   nonuniform List<scalar> 
814
(
5.72965033236e-12
8.00311530721e-12
2.60319412215e-11
6.98371026037e-12
9.42504178431e-12
2.48846477729e-11
7.55338783291e-12
1.0168097454e-11
2.43702411623e-11
8.48225997359e-12
1.31406836383e-11
3.87379617479e-11
1.00748257347e-11
1.72521006752e-11
4.32440708097e-11
1.18898599722e-11
2.02984974298e-11
4.10901201895e-11
1.37246345333e-11
2.24449571177e-11
3.82371124281e-11
1.53394057976e-11
2.35994166886e-11
3.52008791966e-11
1.65800014345e-11
2.39168544445e-11
3.22325869357e-11
1.73563805746e-11
2.3589596544e-11
2.94587458171e-11
1.7659525097e-11
2.27909827866e-11
2.69133006831e-11
1.75564050434e-11
2.16866582044e-11
2.45772102406e-11
1.71417212232e-11
2.04143713357e-11
2.24128183681e-11
1.65067853492e-11
1.90661193432e-11
2.0438558222e-11
1.57252575722e-11
1.77099296495e-11
1.86688004441e-11
1.48550809439e-11
1.63820843804e-11
1.70710761638e-11
1.39357490785e-11
1.50972426589e-11
1.56073601376e-11
1.29931787406e-11
1.38579362215e-11
1.4237628521e-11
1.20339865175e-11
1.26651440054e-11
1.29376226862e-11
1.10696362637e-11
1.15171096313e-11
1.17021699744e-11
1.01113157389e-11
1.04152107226e-11
1.05286455227e-11
9.17170001502e-12
9.36734168859e-12
9.4248709324e-12
8.26109900038e-12
8.37948921247e-12
8.40292356463e-12
7.40945106639e-12
7.47756096746e-12
7.48462629286e-12
6.64698117612e-12
6.68647027568e-12
6.69047798051e-12
5.98541220597e-12
6.01042385494e-12
6.01726072873e-12
5.41422777977e-12
5.42908982575e-12
5.43500425908e-12
4.84467328869e-12
4.85312095862e-12
4.85183457731e-12
4.17722439539e-12
4.17629317113e-12
4.16275711758e-12
3.40964404983e-12
3.40447501234e-12
3.3825721292e-12
2.7291240012e-12
2.72116228802e-12
2.70153774608e-12
2.25103030267e-12
2.2456353585e-12
2.2319925358e-12
6.24384509317e-12
2.95258948891e-11
3.16979949517e-11
3.12727235998e-11
2.96589882773e-11
2.76387140563e-11
2.55234444766e-11
2.34612028154e-11
2.15410505789e-11
1.9771829386e-11
1.81980579155e-11
1.68068999395e-11
1.55454431574e-11
1.43854758649e-11
1.32933336036e-11
1.22223062173e-11
1.11521441235e-11
1.00986322223e-11
9.09502511462e-12
8.16067868411e-12
7.31961283711e-12
6.58991567765e-12
5.96256582622e-12
5.40382520314e-12
4.82599871671e-12
4.12867795523e-12
3.34593945865e-12
2.67215334593e-12
2.21379750972e-12
3.19174065433e-13
1.10335936784e-13
9.8610389243e-14
9.50444502952e-14
8.7846265123e-14
8.0960314034e-14
7.29867312943e-14
6.53778018064e-14
5.87067128341e-14
5.27416252436e-14
4.77463164624e-14
4.34342892921e-14
3.98431260325e-14
3.68469859128e-14
3.44742647613e-14
3.25458307355e-14
3.12208612388e-14
3.02049626212e-14
3.15039866025e-14
9.99528818381e-14
3.49142745975e-13
2.05449382139e-13
1.61178646001e-13
1.43006165578e-13
1.18833279378e-13
1.01707150267e-13
8.64988964658e-14
7.40499292976e-14
6.41464447514e-14
5.6232682665e-14
4.99699204299e-14
4.49145696121e-14
4.08038188886e-14
3.75168872375e-14
3.48904952009e-14
3.28882520163e-14
3.1407722543e-14
3.04650545077e-14
3.27706591013e-14
1.01758051908e-13
4.24876628499e-13
2.82069300346e-13
2.39133589373e-13
1.87468583515e-13
1.51020862043e-13
1.21710771958e-13
9.91488469971e-14
8.12768287898e-14
6.84163023843e-14
5.87100256311e-14
5.15251610379e-14
4.59525826828e-14
4.151810905e-14
3.80319153999e-14
3.52433541191e-14
3.31575131325e-14
3.15748574508e-14
3.06605309058e-14
3.34775447477e-14
1.03276771062e-13
3.24706348249e-12
6.83476926631e-13
4.10120913006e-13
2.62443036788e-13
2.14660691422e-13
1.56799722623e-13
1.22760625484e-13
9.34637238819e-14
7.50861106057e-14
6.20586946741e-14
5.34213749545e-14
4.71119060857e-14
4.22962591872e-14
3.85732899062e-14
3.56220577966e-14
3.34261851154e-14
3.17514020752e-14
3.08427311828e-14
3.34464088966e-14
1.16183316591e-13
6.37068203518e-12
3.1064801855e-12
1.88073592813e-12
6.86360011159e-13
3.55272702009e-13
2.35452058394e-13
1.69042677038e-13
1.16887211959e-13
8.64910757011e-14
6.72696137556e-14
5.60293009429e-14
4.85351468462e-14
4.31803710974e-14
3.91457362207e-14
3.60105227421e-14
3.36820345787e-14
3.19224209513e-14
3.09931391373e-14
3.39801713371e-14
1.30930997295e-13
9.24940559465e-12
3.19920486079e-12
1.86330703958e-12
8.9877096098e-13
5.16101778203e-13
3.5475556513e-13
2.38917504167e-13
1.54546045957e-13
1.03583735492e-13
7.5100435e-14
5.97847166343e-14
5.04865149731e-14
4.43275274266e-14
3.98652759092e-14
3.64880235148e-14
3.3997377972e-14
3.21384505095e-14
3.11903131402e-14
3.4949493665e-14
1.43453920347e-13
9.26836151753e-12
2.4542630002e-12
1.51269313978e-12
9.70135063146e-13
6.62632506581e-13
4.8480419584e-13
3.21045247175e-13
1.99281234573e-13
1.2433953649e-13
8.5221006074e-14
6.47343373243e-14
5.30390512157e-14
4.57604718221e-14
4.07365854532e-14
3.70492266151e-14
3.43690146962e-14
3.23942131556e-14
3.14406166916e-14
3.61483897067e-14
1.5204017245e-13
9.56401898734e-12
2.18326715237e-12
1.35485548749e-12
1.00849355036e-12
7.7540991237e-13
5.96384563142e-13
4.00860658092e-13
2.42929709237e-13
1.46674469862e-13
9.71386553251e-14
7.09434376147e-14
5.63113752559e-14
4.75484206122e-14
4.17849516354e-14
3.76999268758e-14
3.4791366357e-14
3.26808835084e-14
3.17250430812e-14
3.74460965929e-14
1.5805716661e-13
9.77932202181e-12
2.25517068137e-12
1.31949894544e-12
1.02999089548e-12
8.41896883539e-13
6.70909495521e-13
4.65198755412e-13
2.81976062177e-13
1.69702926777e-13
1.10664213163e-13
7.85174948952e-14
6.04562186288e-14
4.98064433416e-14
4.30699818438e-14
3.84666410129e-14
3.52706498051e-14
3.29958713329e-14
3.20325618386e-14
3.87632717209e-14
1.61863152371e-13
9.92836702019e-12
2.52782102368e-12
1.35001459874e-12
1.06418219753e-12
8.81320999624e-13
7.12771439186e-13
5.13119958767e-13
3.17669815578e-13
1.93639615167e-13
1.2578880078e-13
8.75084735825e-14
6.56110081831e-14
5.26704500425e-14
4.46809111869e-14
3.9398304634e-14
3.58297108272e-14
3.33482440791e-14
3.23715367373e-14
4.02374401521e-14
1.63729470023e-13
1.0055345324e-11
2.866241114e-12
1.42851050946e-12
1.13485056426e-12
9.26119909799e-13
7.40999693015e-13
5.52978111319e-13
3.53746131729e-13
2.19159318765e-13
1.42458241263e-13
9.79016411001e-14
7.1862091714e-14
5.62762610182e-14
4.67219096433e-14
4.05589355432e-14
3.65014574701e-14
3.37537558917e-14
3.27538988651e-14
4.1885654956e-14
1.63941697133e-13
1.01196059912e-11
3.24283513577e-12
1.56239108435e-12
1.24923733294e-12
9.99096902033e-13
7.73355088018e-13
5.91390687438e-13
3.93252895605e-13
2.46879113373e-13
1.60552850953e-13
1.09619190156e-13
7.92307293388e-14
6.07377682728e-14
4.93020879138e-14
4.20230676256e-14
3.73259453318e-14
3.42319032818e-14
3.31880609388e-14
4.36141918608e-14
1.62911512904e-13
1.01129821193e-11
3.65405054238e-12
1.78747496141e-12
1.39856534752e-12
1.10604073604e-12
8.22426346756e-13
6.30752074332e-13
4.37354957343e-13
2.77490149628e-13
1.80194530758e-13
1.22646845695e-13
8.77342961462e-14
6.61239390853e-14
5.25314006906e-14
4.3874381673e-14
3.83531882193e-14
3.4807530457e-14
3.36813778995e-14
4.53052092496e-14
1.6102018046e-13
1.00916621129e-11
4.11302622514e-12
2.12041397084e-12
1.5722042893e-12
1.24417732278e-12
8.99906490305e-13
6.76784083861e-13
4.86534941238e-13
3.1233848701e-13
2.01872654644e-13
1.36997364004e-13
9.7356897237e-14
7.24533198993e-14
5.65065681899e-14
4.62064180816e-14
3.96459636223e-14
3.55137756426e-14
3.42435720769e-14
4.6916795518e-14
1.58558352131e-13
1.00450870536e-11
4.59122506439e-12
2.50385533781e-12
1.77884504411e-12
1.40528406012e-12
1.00937645521e-12
7.358033167e-13
5.38756879953e-13
3.52245218026e-13
2.26172226398e-13
1.52684070639e-13
1.0809594182e-13
7.97447560855e-14
6.13016795678e-14
4.91247513986e-14
4.12819979323e-14
3.63945318427e-14
3.48886567282e-14
4.84285212414e-14
1.55819127796e-13
9.95109814371e-12
5.05818072814e-12
2.92403281957e-12
2.07144055684e-12
1.58004138914e-12
1.14350562949e-12
8.05905861623e-13
5.84830995237e-13
3.92012896446e-13
2.52127937548e-13
1.69540239502e-13
1.19909018624e-13
8.80295134143e-14
6.69843539456e-14
5.27491111255e-14
4.33594925847e-14
3.75078919414e-14
3.56367374133e-14
4.98188732953e-14
1.52853097484e-13
9.79707986673e-12
5.47930562154e-12
3.36237900455e-12
2.41834959373e-12
1.76782678789e-12
1.29065318696e-12
8.7402338779e-13
6.12165082242e-13
4.21438811755e-13
2.77026431058e-13
1.87519662486e-13
1.33077369441e-13
9.76238698987e-14
7.37557196796e-14
5.72458684546e-14
4.60195049893e-14
3.89347230022e-14
3.65175538727e-14
5.10721795844e-14
1.49671407679e-13
9.57164651026e-12
5.8010231823e-12
3.76791944212e-12
2.75588369963e-12
1.97257461535e-12
1.43495678926e-12
9.26742472025e-13
6.15943641157e-13
4.37217584951e-13
3.01500683836e-13
2.09056002435e-13
1.49383371757e-13
1.09606431692e-13
8.21933026239e-14
6.29075846772e-14
4.9464062457e-14
4.07891787204e-14
3.75740551358e-14
5.21851490695e-14
1.46321199934e-13
9.25325947585e-12
5.99892151821e-12
4.09972727221e-12
3.06127569025e-12
2.21885405097e-12
1.56546277808e-12
9.71233987325e-13
6.15287670575e-13
4.58730187444e-13
3.39362801126e-13
2.43753173196e-13
1.74672810254e-13
1.26960955708e-13
9.38376988925e-14
7.04389117619e-14
5.4033236441e-14
4.32543135165e-14
3.88724549456e-14
5.31636965642e-14
1.42850240463e-13
8.84617329821e-12
6.08379635322e-12
4.35369812521e-12
3.32758337472e-12
2.45898135712e-12
1.67350410188e-12
1.01887890541e-12
6.38964168169e-13
5.12954552328e-13
4.12706941129e-13
3.10026643257e-13
2.21790894908e-13
1.57069659672e-13
1.12304048873e-13
8.14630915305e-14
6.03598516512e-14
4.66013009288e-14
4.05114296749e-14
5.40274629302e-14
1.39303232695e-13
8.36473878102e-12
6.07649147273e-12
4.54189260477e-12
3.55646148902e-12
2.68667404099e-12
1.77387108574e-12
1.09179963647e-12
7.02253073199e-13
6.04769277151e-13
5.28433489959e-13
4.27159465631e-13
3.1262242114e-13
2.15136166909e-13
1.45536747314e-13
9.94324229167e-14
6.97615397532e-14
5.13065828878e-14
4.26524344669e-14
5.48043495808e-14
1.3572027438e-13
7.83809469194e-12
6.00487788165e-12
4.6820875369e-12
3.7554282653e-12
2.89835913107e-12
1.8966593676e-12
1.18816282222e-12
7.93347474803e-13
7.11056600879e-13
6.59359653145e-13
5.78823782056e-13
4.5788411201e-13
3.22366644661e-13
2.0859703147e-13
1.31780708067e-13
8.49073384133e-14
5.81235549016e-14
4.55003660085e-14
5.55456493598e-14
1.32149651569e-13
7.27996963712e-12
5.88450990496e-12
4.78210577332e-12
3.92880809939e-12
3.07866063081e-12
2.05870433941e-12
1.28258559352e-12
9.01461333358e-13
8.17735190299e-13
7.83491436266e-13
7.30160197919e-13
6.31426571851e-13
4.85085865748e-13
3.20413015085e-13
1.90887686125e-13
1.10395446733e-13
6.8332639873e-14
4.93577266418e-14
5.63269006097e-14
1.28646882245e-13
6.7298546445e-12
5.71625582339e-12
4.83116557107e-12
4.05097251074e-12
3.19196682461e-12
2.17562539278e-12
1.38223506117e-12
1.02903029045e-12
9.34770982285e-13
8.9334562452e-13
8.56937905719e-13
7.82776803734e-13
6.53634347917e-13
4.7339089874e-13
2.86587229401e-13
1.52731622723e-13
8.32528856067e-14
5.43136322993e-14
5.71992699444e-14
1.25299173407e-13
6.21659782244e-12
5.50257483164e-12
4.79482692996e-12
4.06380580329e-12
3.18329501181e-12
2.20242782442e-12
1.50351324429e-12
1.2109160268e-12
1.09734043121e-12
1.01782253278e-12
9.57372328188e-13
9.02869609821e-13
8.00395324853e-13
6.29756076988e-13
4.10386099343e-13
2.11570705823e-13
1.0242009361e-13
6.00695635825e-14
5.81546861998e-14
1.22194005353e-13
5.73591553774e-12
5.2289475746e-12
4.63469565335e-12
3.91401642058e-12
3.0249285279e-12
2.16516226208e-12
1.64748252121e-12
1.4152772832e-12
1.27501715731e-12
1.15305437929e-12
1.0458901921e-12
9.76278757431e-13
9.04352712192e-13
7.43749339965e-13
5.15408788335e-13
2.71849103218e-13
1.21744943831e-13
6.53633722904e-14
5.8994293824e-14
1.19429517617e-13
5.25804427866e-12
4.86895992894e-12
4.3272350372e-12
3.61266483825e-12
2.81080668958e-12
2.17596980971e-12
1.81209299417e-12
1.58776952768e-12
1.40570450355e-12
1.24521970135e-12
1.10516388794e-12
1.00067669302e-12
9.45171821559e-13
8.18300325449e-13
5.8025331622e-13
3.0608915762e-13
1.31365628381e-13
6.81987519059e-14
5.95049539239e-14
1.17050939287e-13
4.70861532303e-12
4.36471012739e-12
3.84633202151e-12
3.19843760449e-12
2.58832525341e-12
2.15407333917e-12
1.85604416934e-12
1.60861792138e-12
1.39193589662e-12
1.21540429269e-12
1.07965989852e-12
9.9299028181e-13
9.43177613202e-13
8.41436631717e-13
5.98688735257e-13
3.07744656403e-13
1.3052686354e-13
6.86644567236e-14
5.9783628096e-14
1.14981435434e-13
4.01082156997e-12
3.6908858345e-12
3.23794510956e-12
2.74792339735e-12
2.33374264442e-12
2.00500634437e-12
1.71677272969e-12
1.4497315666e-12
1.2230320788e-12
1.06454605049e-12
9.64059293905e-13
9.22745608899e-13
9.06301743837e-13
8.05053534225e-13
5.57031812313e-13
2.76684506728e-13
1.23104084621e-13
6.83411018791e-14
6.03566937797e-14
1.1307046009e-13
3.23998832933e-12
2.98842226445e-12
2.66885686947e-12
2.3457917215e-12
2.04494512254e-12
1.74728703159e-12
1.45826469414e-12
1.2170426164e-12
1.03044419016e-12
9.02639215303e-13
8.31434774849e-13
8.26466476779e-13
8.37121548598e-13
7.21440265283e-13
4.66442647939e-13
2.3027472348e-13
1.14775853801e-13
6.93815168401e-14
6.22370492702e-14
1.11192908912e-13
2.59930486251e-12
2.44151733743e-12
2.24228120356e-12
2.01484688529e-12
1.75652652716e-12
1.47686222411e-12
1.22240053933e-12
1.00825028595e-12
8.49694648236e-13
7.49689817042e-13
7.05412804589e-13
7.18393126678e-13
7.39157624018e-13
6.02002298948e-13
3.69240715312e-13
1.99356074575e-13
1.16367674528e-13
7.70745947396e-14
6.71470481941e-14
1.09506856056e-13
2.17175840061e-12
2.08139966701e-12
1.95089596823e-12
1.77200936885e-12
1.54638848878e-12
1.29358481575e-12
1.04318345589e-12
8.41444580186e-13
7.07878988703e-13
6.32993556638e-13
6.02844695072e-13
6.09272587557e-13
6.17801352099e-13
1.97324482864e-13
3.82087645557e-13
4.75237047814e-13
3.89270250853e-13
4.99796204749e-13
3.92192393323e-13
4.89870269919e-13
3.91963813858e-13
4.6828475034e-13
3.9089713724e-13
4.41755412477e-13
3.89446649134e-13
4.15572731926e-13
3.87753302147e-13
3.9152812186e-13
3.85873513945e-13
3.70184077257e-13
3.83831220027e-13
3.51512390042e-13
3.81637672174e-13
3.35244504899e-13
3.79299474427e-13
3.20890572098e-13
3.76833163608e-13
3.08231763377e-13
3.74262075022e-13
2.97084194251e-13
3.71599677328e-13
2.87229667614e-13
3.6886838248e-13
2.7848990585e-13
3.66102127907e-13
2.70742512929e-13
3.6333581626e-13
2.63877140643e-13
3.60605550754e-13
2.57808712608e-13
3.57947427672e-13
2.52480487667e-13
3.55395303738e-13
2.47897332534e-13
3.52973835429e-13
2.44093547108e-13
3.50682191522e-13
2.41142998146e-13
3.48505089458e-13
2.39041257385e-13
3.46400848522e-13
2.37550503266e-13
3.44388912398e-13
2.36213830909e-13
3.42507233495e-13
2.34512238556e-13
3.40851251528e-13
2.31951121475e-13
3.39517725739e-13
)
;

boundaryField
{
    inletfuel
    {
        type            calculated;
        value           uniform 0;
    }
    inletair
    {
        type            calculated;
        value           uniform 0;
    }
    outlet
    {
        type            calculated;
        value           nonuniform 0();
    }
    axis
    {
        type            empty;
    }
    leftside
    {
        type            calculated;
        value           uniform 0;
    }
    burnerwall
    {
        type            calculated;
        value           uniform 0;
    }
    front
    {
        type            wedge;
    }
    back
    {
        type            wedge;
    }
    procBoundary0to1
    {
        type            processor;
        value           uniform 0;
    }
}


// ************************************************************************* //
