/*--------------------------------*- C++ -*----------------------------------*\
  =========                 |
  \\      /  F ield         | OpenFOAM: The Open Source CFD Toolbox
   \\    /   O peration     | Website:  https://openfoam.org
    \\  /    A nd           | Version:  7
     \\/     M anipulation  |
\*---------------------------------------------------------------------------*/
FoamFile
{
    version     2.0;
    format      ascii;
    class       surfaceScalarField;
    location    "0.09";
    object      phi;
}
// * * * * * * * * * * * * * * * * * * * * * * * * * * * * * * * * * * * * * //

dimensions      [1 0 -1 0 0 0 0];

internalField   nonuniform List<scalar> 
1567
(
-3.70472199684e-09
8.72093353606e-08
-1.48863493624e-08
2.61624007413e-07
4.02468591578e-07
6.34672204123e-10
8.67779203819e-08
-4.70903133798e-09
2.67618181827e-07
3.98920434984e-07
-2.83279395258e-10
8.72177568122e-08
-4.83284768322e-10
2.68274016907e-07
3.99175926833e-07
9.79955983519e-10
8.64061104129e-08
1.63662192261e-08
2.53394391006e-07
3.58131614399e-07
5.85513944759e-08
2.22320271517e-09
8.43601273074e-08
1.88265330498e-08
2.37372658196e-07
3.47039861292e-07
3.12730887235e-08
2.80422789223e-09
8.1739922487e-08
1.20451112508e-08
2.28738747849e-07
3.18614474257e-07
4.18269287596e-08
7.55912934533e-10
8.11716985947e-08
6.94304495396e-09
2.23183997574e-07
3.06328748248e-07
2.0583376521e-08
1.18228613383e-09
8.01740344225e-08
5.61448429466e-09
2.19400480362e-07
2.96993519036e-07
1.62839785482e-08
1.33269478601e-09
7.90119046012e-08
5.25086062026e-09
2.16124460187e-07
2.90223210585e-07
1.32956904512e-08
9.25155632055e-10
7.82293821811e-08
4.87594949391e-09
2.127704438e-07
2.86587741071e-07
9.65916134463e-09
6.45718422718e-10
7.76884028984e-08
3.84140668639e-09
2.10077184502e-07
2.85735259647e-07
5.63327198122e-09
4.83027208809e-10
7.72708278162e-08
2.31488267713e-09
2.08621738386e-07
2.86722500018e-07
1.97281836125e-09
2.71198695792e-10
7.7031460563e-08
2.81268011758e-10
2.08849514331e-07
2.9055115128e-07
-3.13772248209e-09
2.89259135196e-10
7.67524074413e-08
-1.89198006107e-10
2.09469304289e-07
2.9570755477e-07
-5.011063519e-09
2.70259246905e-10
7.64843043191e-08
-9.24368932424e-11
2.09936741882e-07
3.01061468791e-07
-5.10977441626e-09
2.62884185214e-10
7.62261079809e-08
-4.06963134846e-10
2.10723345965e-07
3.06485141998e-07
-5.42509312909e-09
4.98883550524e-10
7.57375936052e-08
3.8843970422e-10
2.10972459625e-07
3.10872907627e-07
-3.50353514363e-09
1.1655458586e-09
7.45827218982e-08
2.47718222305e-09
2.09798588821e-07
3.12708916161e-07
1.16336919601e-09
1.23049623062e-09
7.33505633078e-08
3.6783854866e-09
2.07451138967e-07
3.13038361523e-07
3.82550664924e-09
1.3732130831e-09
7.19449803168e-08
4.05977604278e-09
2.04777672451e-07
3.12948879935e-07
4.51341813582e-09
1.45679262982e-09
7.0410595443e-08
4.28559918455e-09
2.0184466533e-07
3.12038236643e-07
5.43201735019e-09
2.03758070757e-09
6.82497028389e-08
6.8482762525e-09
1.9682071406e-07
3.08353274787e-07
1.06749646531e-08
2.18781807026e-09
6.59206164027e-08
7.41191269789e-09
1.91357744629e-07
3.02933632628e-07
1.30115616045e-08
3.02823972428e-09
6.27909010851e-08
1.04450267277e-08
1.83833034399e-07
2.93112958307e-07
2.06853632999e-08
3.79822313657e-09
5.89948701858e-08
1.44309350879e-08
1.73384346461e-07
2.7894535992e-07
2.94443108644e-08
4.67678439376e-09
5.44520633576e-08
1.760918223e-08
1.60988785307e-07
2.5990990793e-07
3.79483441479e-08
6.10278475032e-09
4.85865999771e-08
2.37025004605e-08
1.44189499212e-07
2.33617621851e-07
5.15943594991e-08
6.81059797404e-09
4.20910021531e-08
2.69424060715e-08
1.25060879985e-07
2.03144951263e-07
5.92732885806e-08
6.37415506239e-09
3.62044733712e-08
2.49736793034e-08
1.07980884895e-07
1.75751583405e-07
5.50782875828e-08
3.92973340891e-09
3.31090750555e-08
1.62519630032e-08
9.82280681014e-08
1.60580448048e-07
3.59489021762e-08
3.29051267982e-10
3.39698170943e-08
1.86251736951e-09
1.00355364275e-07
1.64911169315e-07
3.94424113248e-09
-1.7997037777e-09
-7.35767195681e-09
-1.71131707848e-08
2.38263745336e-07
-1.75083587164e-07
2.18229348506e-07
5.47421487667e-08
2.13369325346e-07
4.82740172948e-08
2.21867938853e-07
1.28110835488e-08
2.30610519361e-07
7.81614903167e-09
2.38325957932e-07
5.44262444988e-09
2.44889375862e-07
2.63531363833e-09
2.51767989581e-07
-1.74628290212e-09
2.59583012341e-07
-6.12676706617e-09
2.69289960667e-07
-1.28214818597e-08
2.80030934556e-07
-1.55115269102e-08
2.91525315232e-07
-1.62042998974e-08
3.03403218048e-07
-1.67063873095e-08
3.13844212551e-07
-1.31763815715e-08
3.2273593525e-07
-6.79442547424e-09
3.30058436026e-07
-2.50917874099e-09
3.35752963211e-07
-3.10110101924e-10
3.40020778634e-07
1.98655944358e-09
3.40917035059e-07
1.06033654261e-08
3.39081889584e-07
1.58023669956e-08
3.32489380401e-07
2.85398116705e-08
3.19130547959e-07
4.44973624339e-08
2.99615297917e-07
5.95438159684e-08
2.71084710026e-07
8.2388034345e-08
2.37113556041e-07
9.57331590524e-08
2.06757818637e-07
8.89730777517e-08
1.89943601791e-07
5.85814617853e-08
1.95909099451e-07
6.20843585044e-09
-3.01644362246e-08
8.82992342818e-08
8.78520781869e-07
1.24666354573e-07
1.50846776036e-06
1.21000807001e-07
2.26843026334e-06
-1.58351439939e-08
3.29210908995e-06
-1.881359519e-07
4.42062974342e-06
-5.03606170305e-07
5.90683441692e-06
-8.25260274451e-07
7.55050686502e-06
-1.24688632271e-06
9.64751360184e-06
-1.64200647798e-06
1.20482183871e-05
-2.0636111084e-06
1.50142176838e-05
-2.43188259107e-06
1.85137015835e-05
-2.75490776512e-06
2.27557768542e-05
-2.98170307504e-06
2.78232376571e-05
-3.08335486146e-06
3.3906775535e-05
-3.04758334972e-06
4.12257464363e-05
-2.76712861064e-06
4.99222321541e-05
-2.37421550194e-06
6.05149340447e-05
-1.57420079406e-06
7.29193170377e-05
-1.1634560235e-06
8.86285261401e-05
0.000106161876707
2.12497281259e-07
6.97236345809e-07
8.39289286633e-08
1.70730125955e-06
9.74334977956e-08
2.36266267251e-06
-6.94475350972e-08
3.61325635615e-06
-2.68941755029e-07
4.82778767031e-06
-6.23410186449e-07
6.53300350437e-06
-9.94657539725e-07
8.26741959978e-06
-1.44129274853e-06
1.0532709205e-05
-1.85148147557e-06
1.30130546223e-05
-2.26488284176e-06
1.61236643957e-05
-2.61509200698e-06
1.97312686397e-05
-2.90525140454e-06
2.41218916933e-05
-3.09260949512e-06
2.93393346305e-05
-3.15605475754e-06
3.56039545114e-05
-3.0724572969e-06
4.31442078079e-05
-2.7763680176e-06
5.20718542402e-05
-2.32808983914e-06
6.30432035452e-05
-1.54217023722e-06
7.57458448296e-05
-1.32785680516e-06
9.27914847648e-05
0.000110113476537
2.35729597189e-07
4.4314985108e-07
3.69090871869e-07
1.58976610061e-06
4.19965180545e-07
2.33122267244e-06
2.351242952e-07
3.8763989987e-06
7.03089721568e-10
5.1795828035e-06
-3.45748891012e-07
7.04533261238e-06
-6.68022424441e-07
8.80310036156e-06
-1.01366460695e-06
1.11493095942e-05
-1.30144183085e-06
1.36435237684e-05
-1.58123048288e-06
1.68333960117e-05
-1.81202822836e-06
2.04976293246e-05
-1.99771589735e-06
2.49718184581e-05
-2.11121155299e-06
3.02731108504e-05
-2.1408592681e-06
3.66421138032e-05
-2.06700465928e-06
4.43059182971e-05
-1.85377127487e-06
5.33681014933e-05
-1.51562926396e-06
6.45424271306e-05
-9.6936314076e-07
7.74295922784e-05
-9.27264530934e-07
9.54512108841e-05
0.000112450358472
3.47866670414e-08
4.56075149164e-07
4.68404215172e-07
1.04440216497e-06
3.47826593707e-07
2.33585674139e-06
2.9111716334e-07
3.88930673872e-06
-6.27509343489e-08
5.56647336309e-06
-3.57618783946e-07
7.47129124742e-06
-7.55202829863e-07
9.41219464701e-06
-1.13770548857e-06
1.18197940316e-05
-1.44818015433e-06
1.43245597097e-05
-1.72817945975e-06
1.75799923565e-05
-1.95691592069e-06
2.13080401066e-05
-2.13454304557e-06
2.5870996885e-05
-2.23689529825e-06
3.1266649485e-05
-2.25138260342e-06
3.77523935455e-05
-2.15275632544e-06
4.55495806194e-05
-1.90772660587e-06
5.47629448583e-05
-1.48228944965e-06
6.61132838371e-05
-8.6474968971e-07
7.92350906773e-05
2.3979180595e-07
9.72823217227e-05
0.000115492580594
7.46628388209e-07
3.45411131274e-07
3.4466734613e-07
1.09533439056e-06
8.77901253211e-07
1.50894395733e-06
2.43314221172e-06
1.16999475649e-06
4.29347727419e-06
4.45880594299e-07
6.15288151992e-06
-1.80060540231e-07
8.0466660183e-06
-7.71196268881e-07
1.01104288691e-05
-1.16659998735e-06
1.24773144613e-05
-1.53265359839e-06
1.50720579373e-05
-1.79896468562e-06
1.83371582616e-05
-2.01028421157e-06
2.21333246623e-05
-2.16792860382e-06
2.67906059018e-05
-2.25336618204e-06
3.22931581333e-05
-2.25118682571e-06
3.89072498234e-05
-2.13090463491e-06
4.6846099895e-05
-1.86450296679e-06
5.62267829536e-05
-1.36605021264e-06
6.7720995617e-05
-6.57021004057e-07
8.10818731045e-05
1.23554725167e-06
9.84875248344e-05
0.000116408679014
4.0637961002e-06
1.24543855959e-07
3.36851013343e-07
4.88697780151e-07
8.18662795034e-07
7.73383916163e-07
2.37275574327e-06
5.47014333768e-07
4.21835701635e-06
-9.99559207459e-09
6.20090796407e-06
-5.3052580899e-07
8.11271352352e-06
-1.0470604606e-06
1.05035769742e-05
-1.35052354569e-06
1.29523442852e-05
-1.71422489608e-06
1.58054203235e-05
-1.94627194361e-06
1.90771701826e-05
-2.13858429213e-06
2.29673196692e-05
-2.27356447803e-06
2.7723336386e-05
-2.34078775487e-06
3.33457523975e-05
-2.31960557289e-06
4.0097462544e-05
-2.1748879934e-06
4.81841297206e-05
-1.88279455391e-06
5.77443594464e-05
-1.32266134374e-06
6.93631899194e-05
-5.34225168579e-07
8.29649856817e-05
1.56443757159e-06
9.9628115122e-05
0.000117175892845
4.71187632598e-06
1.94965448582e-08
3.70192123804e-07
1.88806950937e-07
7.52801192844e-07
2.52032589013e-07
2.21237278093e-06
-3.31501280321e-08
3.87019739395e-06
-4.88734681895e-07
5.74608828686e-06
-1.02578951738e-06
7.8646236101e-06
-1.4468853678e-06
1.0545530161e-05
-1.71363537822e-06
1.32574985568e-05
-1.99890439339e-06
1.64191188697e-05
-2.19296532049e-06
1.97839051502e-05
-2.36133290348e-06
2.37985928412e-05
-2.46905674477e-06
2.8658848396e-05
-2.51365586029e-06
3.44136398786e-05
-2.4685181957e-06
4.13105438099e-05
-2.29435640309e-06
4.95496179138e-05
-1.97209596124e-06
5.93001095571e-05
-1.36170386139e-06
7.10375312956e-05
-5.14366682469e-07
8.48883881644e-05
1.52094531555e-06
0.000100952553112
0.00011824495922
4.51320252905e-06
-6.15504855862e-09
4.15093423336e-07
6.61510623723e-08
7.01985755453e-07
7.11752100667e-10
2.00542820769e-06
-3.41024255213e-07
3.41773862383e-06
-8.89445940258e-07
5.29090345851e-06
-1.45738744429e-06
7.49123248312e-06
-1.84485859806e-06
1.03778450084e-05
-2.1212875813e-06
1.34378725555e-05
-2.33737772459e-06
1.68937709042e-05
-2.51434089527e-06
2.04608745603e-05
-2.65237148963e-06
2.46153772142e-05
-2.72870306999e-06
2.95903753702e-05
-2.74486263628e-06
3.54891512501e-05
-2.67041267963e-06
4.25394173863e-05
-2.46335847565e-06
5.09373676396e-05
-2.10852841574e-06
6.08896619987e-05
-1.46097421128e-06
7.2754613063e-05
-5.79162248496e-07
8.68738394013e-05
1.28620973974e-06
0.000102564205298
0.000119937458699
3.79798124159e-06
-2.33712791879e-08
4.67460520653e-07
1.29558687599e-08
7.06296564377e-07
-1.11840314584e-07
1.77736232844e-06
-5.20995716532e-07
3.10065278647e-06
-1.09829549234e-06
4.89908992516e-06
-1.70720236828e-06
7.1556407256e-06
-2.15824088584e-06
1.01855412294e-05
-2.49500284825e-06
1.3548258521e-05
-2.70357798008e-06
1.72603142381e-05
-2.86593151185e-06
2.10856525232e-05
-2.99579458519e-06
2.54323131812e-05
-3.03089110461e-06
3.05072783895e-05
-3.01374915609e-06
3.65686931946e-05
-2.90599869172e-06
4.37824888725e-05
-2.6639802388e-06
5.23486405157e-05
-2.27671160737e-06
6.25173939728e-05
-1.6039376373e-06
7.45315261225e-05
-7.06233978572e-07
8.8946461125e-05
9.83000289263e-07
0.000104477925585
0.000122212393833
3.06486380964e-06
-3.41603279473e-08
5.21072808244e-07
-4.28856298368e-08
7.49836693861e-07
-1.81104837557e-07
1.59174239993e-06
-5.8116221286e-07
2.85353824918e-06
-1.17306006543e-06
4.59774018207e-06
-1.83830859554e-06
6.90788209663e-06
-2.39382153724e-06
1.00117842708e-05
-2.82775165886e-06
1.35994387801e-05
-3.07829278432e-06
1.75315846434e-05
-3.24145983256e-06
2.16399980977e-05
-3.36424192185e-06
2.62347832667e-05
-3.37174218327e-06
3.14207840415e-05
-3.31790670915e-06
3.76499421947e-05
-3.17502549912e-06
4.50406816412e-05
-2.89775133763e-06
5.37870583967e-05
-2.47811562657e-06
6.41883964508e-05
-1.78807770364e-06
7.63824219751e-05
-8.84488624212e-07
9.11238468112e-05
6.35180146547e-07
0.000106695662464
0.000125015212678
2.35131342497e-06
-4.48050524017e-08
5.75459587501e-07
-8.34481366902e-08
8.05934218766e-07
-2.04954470605e-07
1.45221444101e-06
-5.7743847017e-07
2.64608774172e-06
-1.18598901719e-06
4.36307551748e-06
-1.91719938073e-06
6.69682406394e-06
-2.59978107662e-06
9.81112441025e-06
-3.14561410716e-06
1.35536917791e-05
-3.46802356932e-06
1.76948638222e-05
-3.65363097134e-06
2.21034438244e-05
-3.7500743988e-06
2.69750779563e-05
-3.75786716836e-06
3.23503292897e-05
-3.66361475738e-06
3.87281489452e-05
-3.48476922616e-06
4.63143514052e-05
-3.17217959591e-06
5.52549849199e-05
-2.71954032751e-06
6.59054889422e-05
-2.01507860026e-06
7.83146181181e-05
-1.10653115249e-06
9.34120982509e-05
2.69819363422e-07
0.000109195419697
0.000128244268888
1.72653121746e-06
-5.3670501049e-08
6.30564514541e-07
-1.08780817234e-07
8.64666626443e-07
-2.12058744974e-07
1.36815822379e-06
-5.4996134178e-07
2.4580129955e-06
-1.16957205289e-06
4.14671588706e-06
-1.96243872199e-06
6.44788732955e-06
-2.79059149033e-06
9.54254990357e-06
-3.44808535283e-06
1.33621431989e-05
-3.8708207859e-06
1.77333391211e-05
-4.08911055872e-06
2.24411299138e-05
-4.17207336609e-06
2.76253842666e-05
-4.1798921478e-06
3.32765427148e-05
-4.06185872485e-06
3.98158228187e-05
-3.84083488777e-06
4.75966982341e-05
-3.49371665301e-06
5.67543255177e-05
-3.00595987766e-06
6.76688511606e-05
-2.28447046157e-06
8.0328865734e-05
-1.36626048387e-06
9.58106244434e-05
-1.12864276426e-07
0.000111961530322
0.000131773141214
1.21213369906e-06
-6.76310413962e-08
6.89816418434e-07
-1.41275601621e-07
9.30630912984e-07
-2.15086974529e-07
1.36449436832e-06
-5.05844770491e-07
2.27946840902e-06
-1.11658273059e-06
3.90872170316e-06
-1.96749220181e-06
6.13278133823e-06
-2.92122500583e-06
9.17452131778e-06
-3.71279619936e-06
1.30190771971e-05
-4.25846890595e-06
1.7624057491e-05
-4.53252640368e-06
2.26281362536e-05
-4.63340616782e-06
2.81650304304e-05
-4.62260850102e-06
3.41471807619e-05
-4.50946526599e-06
4.09314302234e-05
-4.24371195323e-06
4.88830297261e-05
-3.86382420185e-06
5.82872498571e-05
-3.33825472772e-06
6.94778170566e-05
-2.59358325883e-06
8.24224308077e-05
-1.65634566357e-06
9.83143922778e-05
-4.775694353e-07
0.000114948859725
0.000135520875713
8.01713040627e-07
-6.89523297897e-08
7.4573164436e-07
-1.40048939214e-07
9.88574389645e-07
-2.32882598737e-07
1.39657929081e-06
-4.74282651438e-07
2.11364629725e-06
-1.02532948015e-06
3.60590052916e-06
-1.91289270449e-06
5.75024833431e-06
-2.95533423648e-06
8.69200355836e-06
-3.90670365157e-06
1.25415358731e-05
-4.58844952457e-06
1.73369913787e-05
-4.95911011207e-06
2.26507659759e-05
-5.10225507548e-06
2.85645342404e-05
-5.08502079949e-06
3.49271196073e-05
-4.98678046708e-06
4.20633070103e-05
-4.69581892751e-06
5.0188236911e-05
-4.28486888496e-06
5.98550896997e-05
-3.71792011642e-06
7.13308535335e-05
-2.94100771091e-06
8.45900021308e-05
-1.97006420613e-06
0.000100914033267
-8.10539195638e-07
0.000118107848149
0.000139439930768
4.75566147689e-07
-6.79131446724e-08
7.98922147156e-07
-1.37307594217e-07
1.04274059551e-06
-2.34847163102e-07
1.43687825718e-06
-4.12863559303e-07
1.99707842989e-06
-8.72554579156e-07
3.26373998463e-06
-1.74834605828e-06
5.32970664304e-06
-2.83442531402e-06
8.13439842277e-06
-3.95084230641e-06
1.19826089277e-05
-4.7934475138e-06
1.68889670088e-05
-5.31807287563e-06
2.25223274212e-05
-5.54639268726e-06
2.88216816766e-05
-5.57045647103e-06
3.56048754386e-05
-5.48031405905e-06
4.31668755793e-05
-5.20843763076e-06
5.15458250779e-05
-4.76307443316e-06
6.14527354693e-05
-4.14589363552e-06
7.32208979208e-05
-3.32656233825e-06
8.68251318418e-05
-2.30391574373e-06
0.000103596585346
-1.12283534066e-06
0.000121404257613
0.000143488707724
2.16528024737e-07
-6.4897277842e-08
8.48358305168e-07
-1.31964256401e-07
1.09423034804e-06
-2.32897294889e-07
1.48199800235e-06
-3.59577823167e-07
1.9745775556e-06
-7.14718275403e-07
2.94107972637e-06
-1.51439266884e-06
4.91348718023e-06
-2.62143089929e-06
7.62390647582e-06
-3.8307531444e-06
1.14235645445e-05
-4.84790270798e-06
1.63921727656e-05
-5.55266203355e-06
2.22901341593e-05
-5.91892470518e-06
2.89653542156e-05
-6.03847938981e-06
3.61873405217e-05
-5.97695986604e-06
4.42107647905e-05
-5.76391060394e-06
5.2970180537e-05
-5.30378143448e-06
6.30948975549e-05
-4.62623756021e-06
7.51385105717e-05
-3.75128455681e-06
8.91179409391e-05
-2.65713389615e-06
0.000106346547551
-1.42136368312e-06
0.000124810320449
0.000147637023472
5.99101044299e-09
-5.51853435734e-08
8.91985937909e-07
-1.11320906919e-07
1.1375607092e-06
-1.98502020615e-07
1.52039814245e-06
-3.22941389065e-07
1.98775229601e-06
-5.90871913177e-07
2.70399526047e-06
-1.28883177682e-06
4.56625874e-06
-2.36095382334e-06
7.26929671266e-06
-3.58660374441e-06
1.1009726108e-05
-4.74162869063e-06
1.60010725613e-05
-5.64543392895e-06
2.20700457548e-05
-6.21420539182e-06
2.90648649995e-05
-6.49633732142e-06
3.6710483484e-05
-6.51799177426e-06
4.51806986502e-05
-6.34943353981e-06
5.43992862182e-05
-5.90017070137e-06
6.47947170832e-05
-5.15930501063e-06
7.70783966696e-05
-4.21428839183e-06
9.14560330654e-05
-3.02847953572e-06
0.000109147334971
-1.70887991252e-06
0.000128302039684
0.000151859459529
-1.56202248466e-07
-4.52656863794e-08
9.32800374627e-07
-1.09935703655e-07
1.19321117721e-06
-2.01446350274e-07
1.57106722767e-06
-3.4156767856e-07
2.03579599601e-06
-5.28718153068e-07
2.61355540711e-06
-1.14762634668e-06
4.35079507505e-06
-2.1779858774e-06
7.14791144259e-06
-3.38225264472e-06
1.08166357759e-05
-4.61499062797e-06
1.5747705596e-05
-5.67761992295e-06
2.1851168842e-05
-6.46936607998e-06
2.9090681702e-05
-6.93811329908e-06
3.71200139055e-05
-7.08283603053e-06
4.60257077474e-05
-6.95701944689e-06
5.57490645323e-05
-6.56015233319e-06
6.65541263835e-05
-5.76185436959e-06
7.90389226474e-05
-4.72089633531e-06
9.38126787635e-05
-3.41789058503e-06
0.000111975689027
-1.98840980522e-06
0.000131858291203
0.000156149477712
-2.98496115738e-07
-4.43685255486e-08
9.78037353147e-07
-1.16387913605e-07
1.26001068819e-06
-2.19939073078e-07
1.64066677591e-06
-3.73099548133e-07
2.10481518375e-06
-5.77018834092e-07
2.66145077761e-06
-1.13602140991e-06
4.19752008155e-06
-2.08443226417e-06
7.07140211774e-06
-3.2533942724e-06
1.05961891102e-05
-4.55827817207e-06
1.53316225839e-05
-5.81842172421e-06
2.13517140711e-05
-6.81731342465e-06
2.87155259816e-05
-7.51223447963e-06
3.71838293279e-05
-7.80999518558e-06
4.6588722911e-05
-7.7467231371e-06
5.68749843143e-05
-7.31057158635e-06
6.81939896967e-05
-6.46368712723e-06
8.1008636117e-05
-5.27651344222e-06
9.61319234084e-05
-3.81789644159e-06
0.000114793482354
-2.25716409666e-06
0.000135462178362
0.00016050241568
-4.18576516465e-07
-4.23368464129e-08
1.02467406894e-06
-1.16649718334e-07
1.33312742781e-06
-2.24388900258e-07
1.72195897752e-06
-3.74612249866e-07
2.17651189e-06
-6.04136139426e-07
2.72695246089e-06
-1.04946722833e-06
3.97678437777e-06
-1.85445524219e-06
6.77462908853e-06
-2.99719813081e-06
9.99974575671e-06
-4.36985490414e-06
1.42499405172e-05
-5.86596999193e-06
1.99737682758e-05
-7.20576869388e-06
2.73732997528e-05
-8.16727039305e-06
3.6297998185e-05
-8.61152809371e-06
4.63858019223e-05
-8.60614429647e-06
5.74695717178e-05
-8.06618151027e-06
6.94654747117e-05
-7.18839147643e-06
8.29356385557e-05
-5.85814296534e-06
9.84062598715e-05
-4.21211645133e-06
0.000117567264841
-2.50864868188e-06
0.000139105811235
0.000164924575492
-5.20820133616e-07
-3.56811394002e-08
1.068104771e-06
-1.05886587505e-07
1.40654897966e-06
-2.05396752367e-07
1.80416217235e-06
-3.32654040257e-07
2.23625525287e-06
-5.33749567e-07
2.75645239309e-06
-8.32144162053e-07
3.67671039743e-06
-1.39375585816e-06
6.10722003086e-06
-2.3243813652e-06
8.80765685854e-06
-3.59043040265e-06
1.22578359635e-05
-5.31618298423e-06
1.73590536587e-05
-7.11938765493e-06
2.43956941464e-05
-8.61324177722e-06
3.36758642838e-05
-9.48410395551e-06
4.47351401724e-05
-9.57061653001e-06
5.69575865682e-05
-9.05423081606e-06
7.01159499964e-05
-7.95590924435e-06
8.44705983211e-05
-6.42426159444e-06
0.000100554971515
-4.57105266737e-06
0.000120274893684
-2.72034660466e-06
0.000142787876011
0.000169444436009
-6.04785130616e-07
-1.85877982299e-08
1.10395861872e-06
-7.80306789066e-08
1.47411025959e-06
-1.64112300489e-07
1.88395600305e-06
-2.74016442137e-07
2.29696264762e-06
-4.19740471069e-07
2.75624722527e-06
-5.09677640189e-07
3.45479340018e-06
-8.05275022257e-07
5.24406558274e-06
-1.42284148231e-06
7.29770309844e-06
-2.34741290647e-06
9.78237190401e-06
-3.74528831341e-06
1.37555699382e-05
-5.80752850215e-06
1.99473584597e-05
-8.09818414697e-06
2.90494572293e-05
-9.68142098716e-06
4.07519030565e-05
-1.041375276e-05
5.48090606502e-05
-9.86333696813e-06
6.94331764379e-05
-8.50271448544e-06
8.52582759641e-05
-6.84277853924e-06
0.000102567272108
-4.83441546189e-06
0.000122968288188
-2.8557098498e-06
0.0001465326131
0.000174115653899
-6.59099127516e-07
5.09220484267e-09
1.12212547244e-06
-3.10647912034e-08
1.5234088671e-06
-8.28177503142e-08
1.9422192341e-06
-1.43809834091e-07
2.33649600609e-06
-2.02152801722e-07
2.73190160854e-06
-1.97174590271e-07
3.30020122373e-06
-2.74557621137e-07
4.48720383413e-06
-5.53121333775e-07
5.88980552469e-06
-1.04868402669e-06
7.52957499907e-06
-1.88726766315e-06
1.0261275722e-05
-3.41836781444e-06
1.50073053353e-05
-5.7402103081e-06
2.28991435912e-05
-8.76680155772e-06
3.49986173554e-05
-1.0104081394e-05
4.99256566029e-05
-1.02992008313e-05
6.73207900874e-05
-9.06105884463e-06
8.51733131011e-05
-7.09084561354e-06
0.000104097834129
-4.93219774089e-06
0.000125647564326
-2.86225684441e-06
0.00015038559157
0.000179025465754
-6.64229290079e-07
4.10656395334e-08
1.11841112158e-06
3.85069653929e-08
1.54314548794e-06
3.16119024574e-08
1.96762102512e-06
2.80815740791e-08
2.34819048127e-06
2.94511220165e-08
2.72016404682e-06
7.64716433646e-08
3.19826877292e-06
1.6019976409e-07
4.03935553519e-06
1.62871945142e-07
4.92894014935e-06
7.06979633193e-08
5.97708688926e-06
-1.67634962528e-07
7.70728687479e-06
-8.7603275826e-07
1.09867503158e-05
-2.59970667574e-06
1.72232010838e-05
-5.42897084616e-06
2.80662901298e-05
-8.52147324752e-06
4.38983317623e-05
-9.72751134176e-06
6.34713597201e-05
-8.57737427638e-06
8.36888804139e-05
-6.74285179518e-06
0.00010538149956
-4.60389064878e-06
0.000128469591451
-2.65206236593e-06
0.00015456655426
0.00018432864466
-5.98789926318e-07
8.36023841441e-08
1.08942854072e-06
1.24234972591e-07
1.52216489516e-06
1.7590634817e-07
1.9419506851e-06
2.42109994873e-07
2.31103930247e-06
3.32107273296e-07
2.66682418547e-06
4.42696213517e-07
3.08903470552e-06
5.99401698325e-07
3.6868782581e-06
7.30972130629e-07
4.34009961438e-06
8.52960375754e-07
5.1289965335e-06
1.02817193872e-06
6.38840775922e-06
8.85661393376e-07
8.59626820324e-06
9.92732014931e-08
1.33150169184e-05
-1.9012222758e-06
2.19640174591e-05
-5.28155259597e-06
3.74154458171e-05
-7.12619469847e-06
5.83161258509e-05
-7.27083440103e-06
8.22319891411e-05
-5.59423683141e-06
0.000106461581199
-3.85343875141e-06
0.000131767717153
-2.1503732414e-06
0.000159214612334
0.000190243023197
-4.5206112087e-07
1.28247162816e-07
1.03146639033e-06
2.12430364995e-07
1.45815735521e-06
3.17511678194e-07
1.86658626379e-06
4.41622880001e-07
2.230109989e-06
5.90712426722e-07
2.57898812889e-06
7.61692668297e-07
2.94154122314e-06
9.93311354369e-07
3.34272849121e-06
1.30807552084e-06
3.77085579517e-06
1.69022081062e-06
4.37937543645e-06
2.120333215e-06
5.44292664889e-06
2.44832579192e-06
7.37374606401e-06
2.39806312277e-06
1.10132074623e-05
1.34705678736e-06
1.85384198889e-05
-6.18336732841e-07
3.30018442249e-05
-3.70149495985e-06
5.51686812348e-05
-4.03660032427e-06
8.10457714639e-05
-3.35563309767e-06
0.000108577727262
-2.20021115779e-06
0.000135772272686
-1.29629209056e-06
0.000164884681432
0.00019702269146
-2.06182626824e-07
1.83531974366e-07
9.40870377873e-07
3.20178003165e-07
1.34127635557e-06
4.94281334295e-07
1.72518672758e-06
7.105746466e-07
2.06722579194e-06
9.77260723987e-07
2.38303545947e-06
1.3009805181e-06
2.66137236009e-06
1.656094595e-06
2.96644135116e-06
1.99128655457e-06
3.37335984399e-06
2.29658245493e-06
4.01139524272e-06
2.54265279761e-06
5.13263452021e-06
2.79013777046e-06
6.9699104577e-06
3.04222493095e-06
1.00618529008e-05
2.88688263989e-06
1.7050993013e-05
2.35997318725e-06
3.09890908546e-05
1.49528188575e-06
5.49725859488e-05
9.27994459118e-07
8.31124597783e-05
3.82366664312e-07
0.000113032555967
-1.32242877382e-07
0.000141755929727
-2.38291685381e-07
0.00017179103105
0.000204840049837
7.16906904797e-08
2.19193058436e-07
8.2856166942e-07
3.89092543896e-07
1.19339345795e-06
6.12964954587e-07
1.5413516838e-06
8.84066775204e-07
1.86212082586e-06
1.192492054e-06
2.16312840533e-06
1.50412023542e-06
2.44760944442e-06
1.83691496569e-06
2.7546616505e-06
2.30229519454e-06
3.12796661263e-06
2.92087153975e-06
3.80938342201e-06
3.61490206915e-06
5.09738351466e-06
3.9697266018e-06
7.50862682444e-06
3.81342563972e-06
1.12198822453e-05
3.42359160528e-06
1.81672151511e-05
4.25360858119e-06
3.1991050365e-05
5.92515631942e-06
5.87779734954e-05
5.30298485151e-06
8.98187626203e-05
3.85630403442e-06
0.00012011522713
1.70870368462e-06
0.000149787683687
6.5710770442e-07
0.000179895870763
0.000213532111547
3.30286715344e-07
2.03732376209e-07
7.29360782646e-07
3.63441083811e-07
1.0650784388e-06
5.63468584995e-07
1.39936533066e-06
7.96937218108e-07
1.72717301664e-06
1.06145160647e-06
2.05776850608e-06
1.3620077609e-06
2.414778511e-06
1.69663701414e-06
2.89766752394e-06
1.98488109591e-06
3.72461542472e-06
2.31847300102e-06
5.06105088645e-06
2.84992844148e-06
7.07377232306e-06
3.73803846934e-06
9.77844672274e-06
4.62382518668e-06
1.38602010554e-05
4.80216329921e-06
2.21112783241e-05
5.91961418274e-06
4.01037541513e-05
9.37216010989e-06
6.84108515978e-05
8.77877726606e-06
0.000100304882368
5.77669038848e-06
0.000129868355812
2.51782570719e-06
0.000159174565445
1.05475349477e-06
0.00018861756718
0.000222725318119
4.3416789083e-07
1.38176398084e-07
6.74748295763e-07
2.46072903582e-07
1.00767021057e-06
3.72841001412e-07
1.36914220253e-06
5.08811846314e-07
1.77157419146e-06
6.49455500738e-07
2.25606087809e-06
7.77804204864e-07
2.93028912201e-06
9.08134922187e-07
4.00856372289e-06
1.07089093992e-06
5.71311279979e-06
1.07895352397e-06
8.10563776228e-06
1.06999645904e-06
1.12618676912e-05
1.17344934087e-06
1.52809918049e-05
1.6198696152e-06
2.05255498896e-05
3.22395507658e-06
2.94589280296e-05
7.08000738606e-06
5.22306336023e-05
1.02156185769e-05
8.2093070342e-05
8.53765500619e-06
0.000112604326746
4.32965904804e-06
0.000140501585419
1.63289989372e-06
0.000167799464053
3.99636294296e-07
0.000197169470776
0.000231488473392
3.75753794716e-07
8.8961497055e-09
7.07079445655e-07
-3.09723069087e-09
1.09088884156e-06
-4.41892286935e-08
1.54890141873e-06
-1.20247952108e-07
2.11790569731e-06
-2.36326183021e-07
2.90875519183e-06
-2.83909855239e-07
4.16213464157e-06
-5.6817874733e-07
6.07918628043e-06
-1.0686740343e-06
8.72192585561e-06
-1.71562446348e-06
1.22045929581e-05
-2.26456275076e-06
1.66772744948e-05
-2.25602541135e-06
2.23734856836e-05
-1.14591733176e-06
2.96827208639e-05
1.37066696847e-06
4.09273511275e-05
6.00885454117e-06
6.64356765227e-06
3.55872076882e-06
5.09789768223e-07
-1.22523690992e-06
-1.30725770884e-06
-4.96953260069e-08
-8.53048371476e-08
-1.84517910072e-07
-3.40977531801e-07
-5.57916550919e-07
-7.87689251164e-07
-1.18911086972e-06
-1.78573824051e-06
-2.61385428763e-06
-3.67757529615e-06
-4.84948198535e-06
-5.55464485144e-06
-4.65671470408e-06
-2.94824800295e-06
4.49436045653e-06
-2.12594364117e-06
7.76561701282e-07
8.62328236819e-06
-4.86584365877e-07
2.68102256665e-06
1.15384642069e-05
3.09178788384e-06
2.82787576401e-06
1.41449706331e-05
6.85448094683e-06
2.4046701142e-06
1.64940327265e-05
1.02292181638e-05
1.95941843893e-06
1.85897603199e-05
1.31936763492e-05
1.50652174885e-06
2.04608170092e-05
1.57416192358e-05
1.11643381877e-06
2.21342137427e-05
1.79368074439e-05
7.96313442687e-07
2.36507452174e-05
1.98494159837e-05
5.41645460266e-07
2.50496770908e-05
2.15453610202e-05
3.38697051613e-07
2.63643391349e-05
2.3076807958e-05
1.78676696399e-07
2.76202337608e-05
2.44875198803e-05
5.2088864086e-08
2.88351638761e-05
2.58123456845e-05
-4.81938185914e-08
3.00287085243e-05
2.70770360545e-05
-1.30900976235e-07
3.12058543754e-05
2.82999044034e-05
-1.98490560731e-07
3.23749021121e-05
2.94962492925e-05
-2.54009139437e-07
3.35424078004e-05
3.06775830958e-05
-3.02097292483e-07
3.47196462303e-05
3.18498053649e-05
-3.3403734022e-07
3.59198731826e-05
3.30261664623e-05
-3.41323683567e-07
3.71665355904e-05
3.42272995309e-05
-3.09864527736e-07
3.84890950035e-05
3.54860360881e-05
-2.35087685949e-07
3.99217599978e-05
3.68376440527e-05
-1.04821231968e-07
4.15016211038e-05
3.83270409674e-05
4.24294684134e-08
4.32292821487e-05
3.9954256641e-05
1.87892912161e-07
4.50820917148e-05
4.17089981029e-05
2.55041644444e-07
4.69704431273e-05
4.34998599565e-05
2.51387890296e-07
4.88049038012e-05
4.52556149904e-05
7.60361914521e-08
)
;

boundaryField
{
    inletfuel
    {
        type            calculated;
        value           nonuniform List<scalar> 3(-8.3097357183e-08 -2.4927000582e-07 -4.15518465724e-07);
    }
    inletair
    {
        type            calculated;
        value           nonuniform List<scalar> 
20
(
-8.83402674991e-07
-1.41114729805e-06
-2.06854265869e-06
-2.88234395076e-06
-3.88454928107e-06
-5.11319514308e-06
-6.61380887659e-06
-8.44051944777e-06
-1.0657884145e-05
-1.33426902429e-05
-1.65863687784e-05
-2.04976436176e-05
-2.52058443109e-05
-3.08646971231e-05
-3.76568921621e-05
-4.57995659881e-05
-5.55504375872e-05
-6.72160506193e-05
-8.11598327078e-05
-9.78150416241e-05
)
;
    }
    outlet
    {
        type            calculated;