/*--------------------------------*- C++ -*----------------------------------*\
  =========                 |
  \\      /  F ield         | OpenFOAM: The Open Source CFD Toolbox
   \\    /   O peration     | Website:  https://openfoam.org
    \\  /    A nd           | Version:  7
     \\/     M anipulation  |
\*---------------------------------------------------------------------------*/
FoamFile
{
    version     2.0;
    format      ascii;
    class       volScalarField;
    location    "0.09";
    object      Qdot;
}
// * * * * * * * * * * * * * * * * * * * * * * * * * * * * * * * * * * * * * //

dimensions      [1 -1 -3 0 0 0 0];

internalField   nonuniform List<scalar> 
814
(
4.55020189604
5.62560988575
7.45880452197
443.526071061
691.170756794
3653.52879186
20710.5829328
46514.8377247
443943.271427
678437.408064
3039498.09233
79600476.4285
6195621.51624
30455423.2757
372076350.71
9184964.8649
29444885.7959
172737981.43
9391155.58395
22894527.6511
76201196.6056
8220352.99054
15489199.3588
34228220.5633
6372616.90828
9684718.0913
16392176.6682
4504193.47262
5868229.51046
8779467.85217
2995890.00112
3590536.2726
5433000.37378
1945670.50534
2305658.30977
3854634.21526
1281218.93984
1599276.68234
3029169.57261
883453.545643
1193296.17977
2460536.54576
645806.032739
936030.937954
2002878.63559
497728.569707
752791.76642
1611422.61051
396978.067377
607717.586667
1267472.68735
322821.213337
488757.541562
978122.230047
266456.804075
394797.848214
757128.267336
223453.522579
322927.084126
593340.799131
191535.295703
268045.660401
469320.975514
166387.877881
224149.182933
369655.17318
146193.954283
188213.216914
290402.217824
126683.546417
156131.729458
225143.080233
108406.274902
127767.01351
172681.168388
90642.4402589
103430.019573
132178.52192
82193.4098092
90797.2613475
110713.141289
117698.05985
127458.299851
149204.668796
424499.524829
454186.746031
524672.516659
1726120.20525
1857544.30646
2147763.04749
4505475.72637
4830572.45949
5591702.1541
7607136.94316
8172725.04565
9395122.22561
83771398.9005
1496380559.69
429868632.351
140150253.309
55155205.6567
26778030.5391
16069298.248
11493820.175
9080946.66474
7475714.67755
6023877.75754
4746357.71132
3647561.54342
2720220.95453
1996075.61774
1476033.85006
1108605.10705
834989.112314
620182.466759
457142.249115
333318.117415
241090.15165
175629.004145
140525.870707
182363.105214
630630.190687
2583760.6515
6693456.24492
11215698.9146
16467.0290755
3511.52671351
2446.86913244
1467.23742103
713.610271291
301.343970547
91.0848889946
23.4662393189
5.69293581679
1.2764504197
0.263978920866
0.0495571193611
0.00836992927407
0.00125187444207
0.000162969108007
1.8002445135e-05
1.64811663316e-06
1.19586635147e-07
6.82439407885e-09
5.04209492553e-10
825795.762684
184815.910272
82407.3508827
36712.3511145
14437.2161747
3709.57172895
908.362498412
204.361129121
43.9744247156
8.82423191009
1.65235947113
0.282777163433
0.0438946664248
0.00611801125448
0.000750555573174
7.95878400172e-05
7.0317336045e-06
5.02558280958e-07
2.8561068035e-08
1.97995468142e-09
4708235.92038
1335466.53555
831835.529872
180491.629342
51843.4983524
13814.5554746
3529.4255265
769.169990291
159.372956597
30.5189579368
5.5133533106
0.906460656887
0.134624530723
0.0179706685913
0.00212082869203
0.000218533831848
1.88600623902e-05
1.33996697063e-06
7.51073044843e-08
4.79088966359e-09
158560195.765
17526578.053
2362669.3121
488736.999159
186563.810536
53428.904773
14627.7606825
3052.16795234
595.130171889
106.492107608
18.6168740442
2.99264450455
0.434289271876
0.0566080064203
0.00655075670187
0.000666693688927
5.72410979145e-05
4.11186854006e-06
2.32620644924e-07
1.98190326477e-08
1916956892.54
706053744.051
56101007.0469
2926485.50727
581783.770256
178301.864839
53550.3622208
11483.1132251
2067.53412109
336.502090592
57.1187491523
9.21554659521
1.3481852717
0.17661521168
0.0205789289317
0.00211720832917
0.000185013261814
1.37047465288e-05
8.22758452507e-07
1.1060660783e-07
526526128.498
739949600.361
54766973.3739
4188082.2279
1067363.82895
409449.806205
143131.016296
33643.8720106
5806.86157862
886.392786298
149.030618228
24.9174194579
3.80409383277
0.516956902639
0.0623386977595
0.00663768058001
0.000602874185264
4.68133902173e-05
3.0784310512e-06
5.35519272434e-07
199359307.089
428799874.446
29408836.7142
4680923.54352
1484445.69128
660357.86252
272363.678822
70664.0331873
12471.5708699
1928.16069145
328.993723509
58.3976255071
9.54935238782
1.38179521807
0.176548301614
0.0198524693482
0.00190665747606
0.000157061057396
1.14126346248e-05
2.26659857551e-06
106481396.026
383397173.306
25391370.5911
5625025.52145
1811138.62238
824714.250521
389593.440325
110377.249639
21259.1027858
3588.45874503
635.712261003
120.638638938
21.3702212502
3.34626474234
0.460709743832
0.0555630531393
0.0057153796612
0.000503078055488
4.03207243914e-05
8.39598227811e-06
65058207.0552
386867049.37
36381260.5074
7514123.06824
2144574.0156
876924.57787
449585.793243
139356.342958
30644.0245305
5943.69446156
1122.21070906
224.341594563
43.0971623292
7.36845597204
1.10529071059
0.144534445225
0.0160542886566
0.00151618348501
0.00013328522221
2.74576968375e-05
45591223.2665
240215298.695
61456348.006
11205545.5322
2733720.03924
877570.36778
457227.328185
155865.768562
39722.0631967
9005.30939614
1856.79441489
384.805851773
79.7030195769
14.9250988109
2.45311133439
0.349790122401
0.0421494246552
0.0042811841383
0.000411635810383
8.14901216234e-05
34892677.152
175443317.15
100311319.669
18112019.8449
3944814.41123
924626.76077
449631.886202
168316.508914
48736.4836792
12702.6973229
2906.92432199
626.796911718
137.423425986
28.1576232568
5.0791371887
0.79117932174
0.103629484276
0.0113354029381
0.0011900030048
0.000223947559512
27365697.2014
125787064.976
162005250.153
30521501.2449
6286838.72669
1135063.89108
461372.728275
186645.528242
58786.7301509
16912.7515773
4311.41213765
988.459647857
225.166533342
50.1135794169
9.89766051378
1.68218303914
0.23945863953
0.0282162454571
0.00322484068563
0.000576634181969
21500403.2301
88500518.3964
250809976.175
52288671.7673
10689161.2503
1751518.54593
528929.67868
218858.915265
71543.7097844
21623.9194717
6083.38805174
1517.50596236
358.529299082
84.7879249286
18.2695988676
3.37984298987
0.521957251917
0.0662314262124
0.00820553350838
0.00140070086649
16304138.1727
61543244.9849
168965168.935
89446377.2819
19108533.3898
3267318.48718
720812.034628
274061.411132
89220.6139223
27066.704327
8203.05918655
2254.35671797
561.883925222
137.865962207
32.1676202289
6.45389533719
1.07773872903
0.147113749228
0.0196737517112
0.00323556558404
12138317.3128
42579959.1183
114202591.442
157345672.197
34961243.3811
6349966.70433
1130456.45242
357924.717411
112353.935453
33358.6694889
10590.5221421
3215.81187684
864.682599898
218.868367634
54.2669136283
11.7768279296
2.11920768181
0.310638081407
0.0446501822258
0.00715753595191
8823264.17335
28993396.8312
76381991.67
193792869.325
62671718.4281
11611522.6613
1804496.52739
454414.275249
134379.821571
39472.5209843
13049.9302517
4365.41098284
1294.97225058
345.738539053
88.8194284525
20.7672506759
4.00682248777
0.628189568635
0.0964993856247
0.0152450744646
6265982.30697
19465345.4294
50946665.622
128810991.889
107180244.045
19481890.5591
2637389.56787
517641.567634
144965.346181
44280.3198106
15643.1080593
5762.10908937
1922.46967781
556.938354527
145.777671598
36.1593699203
7.41382007332
1.2325428852
0.200455949701
0.0314571222357
4452891.76264
13344350.269
34844461.1896
88394401.6959
179994946.41
30131163.5416
3472471.17996
541979.476684
156346.340899
54234.2282378
21026.5236838
8352.33406101
3076.8066252
974.873366058
261.523723163
64.3217118824
13.8027249171
2.39579108348
0.405941748294
0.0634339834465
3231119.25815
9393014.82664
24497954.2807
63207273.6452
173055871.383
44007627.2674
4539029.09545
709054.782742
262862.703144
107835.783203
43121.0970359
16814.415023
6221.82517946
2065.3996221
560.671555079
126.71866786
27.0140855352
4.75551462794
0.817845698476
0.126559072904
2371807.65637
6690553.46725
17351927.8304
45409554.1581
129533487.401
62653350.2128
6757535.63699
1444039.65131
748095.065691
358992.111266
143069.910821
51268.9655634
17426.7714962
5528.45513387
1484.24007278
310.917646816
57.5510484941
9.89540725877
1.67266871694
0.252630427859
1727108.08817
4700755.41641
11966990.2592
30997852.3132
88410019.9325
92128584.2004
12687781.1751
3628091.03015
2312304.00782
1321038.03409
584409.803837
205026.651029
63143.5201246
17986.9109277
4580.14620996
914.133485806
138.695895667
21.7857094795
3.49968619861
0.507262883681
1221783.14835
3178010.35477
7847775.14356
19681871.228
53652261.4931
154620785.112
28836655.4172
10024952.5427
6870764.25805
4338135.43407
2190296.43734
846605.544471
258131.463927
66838.484795
15440.3574774
2898.50029897
394.561178388
49.2017548096
7.33587188448
1.01232407576
850031.761305
2066168.66395
4894745.56501
11782572.3232
30673796.1772
85425157.315
65856529.808
28955125.2886
21019141.2062
13858148.6589
7347527.34024
3102037.37362
1018292.92889
257403.011498
54100.4141861
9223.28081318
1162.66321999
112.207699533
14.9177167048
1.94575082626
587124.628852
1332355.93088
3016877.32244
7022882.82613
17770849.6672
47840160.3479
108272079.997
78573055.1092
58962921.9999
40407005.0954
21576868.2687
9117474.57091
3121281.43244
841625.932126
175830.190677
27900.4465756
3184.50361499
243.620993778
27.9599941551
3.42977713553
402218.422987
860157.457895
1880410.19232
4295630.83613
10643536.8336
26349669.9591
52051868.2272
67176783.5539
80719483.5176
101186329.098
53825011.9811
22555003.343
7300867.57232
2048543.94167
454300.863259
69949.6732383
7196.70758508
496.98865225
45.3573114598
5.29410375505
278767.648338
566396.258614
1207410.91568
2717153.19484
6393424.55291
13836454.5538
24506167.1575
31785393.2331
37581844.3213
48468351.6452
75175361.8353
41061034.9302
13714178.3601
3434085.22271
788563.086784
127127.999976
12328.513247
801.875581544
60.975568431
6.97026838693
212700.973727
412650.348183
854417.071747
1834472.98764
3846508.57475
7251690.55314
11668294.4884
14924967.7568
17985026.6554
23965745.7557
38439923.043
49614673.0473
16816885.1234
4465524.6463
976805.252157
154913.508347
14325.4192358
923.010317379
67.4842743809
8.10452685231
263266.498849
484426.618087
947932.464705
1850553.60125
3442042.70667
6038850.39744
9891320.41949
15278048.1892
22930816.0343
32354268.2707
45063687.14
43152350.5049
15897535.1489
4510513.44824
949749.461387
140098.357149
12499.5095915
823.611506835
66.872589669
9.41233195906
892902.147497
1598153.77161
2994803.99437
5583142.93324
10267118.2484
18604703.5776
32497226.7982
54200838.7922
83660816.8759
88697946.6696
52087169.6233
25386421.2196
11032762.7607
3381474.95905
683050.286845
94625.3350497
8836.5765097
657.172274108
71.8021559729
13.3947146576
3625465.25074
6317751.59521
11359788.576
20480763.4553
36622233.3171
63730672.0848
106116408.335
98922872.777
55905856.2673
33827946.459
20717468.4923
11579168.1659
5910840.51938
1863686.67373
356734.405743
48499.2450844
5339.68087724
583.45279492
104.4746842
25.1079129569
9297130.53655
15929782.2892
28080686.9415
49454676.5986
85658239.27
136741088.218
68933578.2107
35153144.2566
19034892.0419
11292718.1145
7210718.3491
4609978.66659
2708846.06012
810964.488646
147978.710476
22919.8402241
3721.63390021
794.226215943
210.343103153
57.3628878752
15403454.3441
25971796.2773
45145948.9241
78737227.3713
118401173.246
56427238.2699
25785878.1907
11996029.4465
6204400.4201
3627835.34237
2363889.847
1625843.66131
1059856.56296
4.00021663388e-08
9.1084853553e-08
2.10781369867e-07
1.97354095237e-07
7.8837627657e-07
4.80314901052e-07
2.74347185255e-06
1.3027209027e-06
8.21605427536e-06
3.27889060486e-06
2.13597482056e-05
7.47657678184e-06
5.04242794193e-05
1.60366160007e-05
0.000111511557545
3.30758446108e-05
0.000235493108288
6.63236742749e-05
0.000481521329862
0.000130566509233
0.000963682232585
0.000253915384321
0.0019280105257
0.000492898644335
0.00384445467921
0.000958335433363
0.00759661776828
0.0018581247671
0.0148889894718
0.0035855127315
0.0290942429084
0.00689240971765
0.0568343525449
0.0131752434973
0.111098310736
0.0250070080223
0.214674798121
0.0466088569527
0.39936258234
0.0834972767147
0.685874749017
0.139437975162
1.05251206713
0.212967309069
1.42652211539
0.300957372348
1.81858067939
0.430635927248
2.54040633381
0.72663135219
4.52479605804
1.55263384229
10.1019362849
3.88783751355
25.322574873
10.2284279471
)
;

boundaryField
{
    inletfuel
    {
        type            zeroGradient;
    }
    inletair
    {
        type            zeroGradient;
    }
    outlet
    {
        type            zeroGradient;
    }
    axis
    {
        type            empty;
    }
    leftside
    {
        type            zeroGradient;
    }
    burnerwall
    {
        type            zeroGradient;
    }
    front
    {
        type            wedge;
    }
    back
    {
        type            wedge;
    }
    procBoundary0to1
    {
        type            processor;
        value           nonuniform List<scalar> 
27
(
10208966.9773
10794925.064
12230188.0666
14321272.0565
300194.073722
62247.1867188
14380.0371688
4357.30494068
1566.01350208
492.703920798
132.632382026
19222222.5561
31685875.776
54568276.1649
95534701.2392
56340119.1353
24673491.1822
10104652.9522
4402715.63608
2256825.99833
1324725.12918
857961.73321
587209.067654
300194.073722
390745.281566
61.9289130272
25.5723767016
)
;
    }
}


// ************************************************************************* //
