/*--------------------------------*- C++ -*----------------------------------*\
  =========                 |
  \\      /  F ield         | OpenFOAM: The Open Source CFD Toolbox
   \\    /   O peration     | Website:  https://openfoam.org
    \\  /    A nd           | Version:  7
     \\/     M anipulation  |
\*---------------------------------------------------------------------------*/
FoamFile
{
    version     2.0;
    format      ascii;
    class       volScalarField;
    location    "0.09";
    object      T;
}
// * * * * * * * * * * * * * * * * * * * * * * * * * * * * * * * * * * * * * //

dimensions      [0 0 0 1 0 0 0];

internalField   nonuniform List<scalar> 
814
(
293.614261696
293.616733304
293.627422138
293.343100625
293.345693183
293.342248341
293.17152372
293.179650094
293.177888371
293.098639068
293.37309777
297.030184221
293.72471617
296.029820363
318.807178627
295.144511583
300.294142374
337.15032232
297.54422289
306.374586997
355.968621412
301.163784536
314.414386207
375.127862222
306.41096668
324.581446812
394.707671317
313.737547004
336.927963468
414.586550332
323.47761912
351.304817342
434.580223031
335.821947014
367.51302313
454.721516419
350.779362985
385.439635407
475.636581814
367.953275043
404.394165998
495.184071935
386.786282849
423.724426138
512.850961464
406.802346824
443.255869809
529.052946753
427.680298637
462.75138604
543.653220467
449.506974027
482.560119817
557.152683048
472.988002427
503.760395118
572.030446506
499.075250232
527.574307638
589.915471778
528.87820675
555.040627474
611.53467457
563.025993451
586.576722467
636.699737843
601.865481919
622.445211453
665.717907436
644.420166047
661.764241062
697.911503916
690.984563054
705.115029507
734.635561066
744.745927912
756.431576705
780.960672471
815.438337749
825.592679795
847.276400513
919.125360833
928.845917205
949.774824879
1075.04247011
1084.88949418
1106.35265902
1291.36509971
1301.72296845
1324.19965877
1549.9008294
1560.65959542
1583.6604524
1802.76701156
1813.38262526
1835.11133107
335.516012207
537.713167542
547.022011039
553.856501796
560.289517389
571.066524202
586.019760445
603.667819809
621.605875485
638.736855055
651.247187309
659.718916887
665.356042168
667.908472387
668.449991962
670.869663438
677.987809788
689.528968053
704.282433399
722.941963315
745.184822053
773.291713827
813.515693147
876.573784068
978.408522011
1135.64907046
1354.51770848
1614.10426926
1863.55466118
291.214091794
291.191231666
291.178532494
291.159826588
291.145780394
291.13602107
291.130137468
291.125630817
291.121819868
291.117839956
291.113678655
291.109216444
291.104561154
291.099773941
291.094950003
291.090300183
291.085741065
291.081720353
291.077564762
291.068592763
296.431887364
293.215350252
292.291631315
291.711654997
291.432141663
291.290924416
291.245937445
291.230093379
291.23066825
291.23172845
291.233875957
291.23428452
291.233992962
291.232880184
291.230996864
291.229442833
291.226433921
291.225022417
291.220600742
291.225446184
319.4676834
302.810868326
300.037775921
294.760932836
292.923754518
291.97306191
291.63650533
291.509201892
291.481437642
291.477832605
291.4824304
291.486005192
291.488856416
291.490465687
291.490958759
291.491563247
291.490208794
291.490491641
291.486689792
291.502107281
443.722721992
356.68540462
332.827652981
309.382496587
300.231193071
294.781976169
292.76611611
291.950492177
291.713208536
291.657062689
291.650025606
291.651551047
291.654052376
291.655627501
291.656275452
291.656517347
291.655760762
291.655499281
291.654121541
291.699268926
1716.4038322
1010.1366373
530.44907545
374.572669262
326.448390162
305.922663796
297.155027897
293.296126402
292.051308478
291.755160139
291.698410822
291.688598402
291.6875607
291.687321849
291.686631337
291.685181232
291.683797797
291.681947523
291.682062141
291.745335675
1671.32489738
1486.69167063
709.155606902
462.766657592
372.194085275
330.306894403
307.403776007
296.670358312
292.869854384
291.900200316
291.70730308
291.667293123
291.659109745
291.656768978
291.654940965
291.65245646
291.650264104
291.647574109
291.646885078
291.725070094
1629.58141609
1787.4737025
866.274037027
574.988074785
437.793274802
367.245290371
323.535695755
302.514684648
294.533042989
292.262742364
291.766845351
291.658752059
291.634912862
291.629423319
291.626963718
291.624437216
291.621912525
291.619349868
291.617995694
291.708308634
1549.16767508
2163.69338673
1063.99297246
713.839271968
519.041426645
410.975959841
343.261870627
310.461843624
297.299347242
293.031787822
291.942898194
291.69658233
291.638257914
291.625277703
291.621606496
291.619189167
291.616682637
291.614488848
291.613852605
291.71384819
1476.77668216
2421.88139588
1307.43974017
869.879457779
606.726889592
455.197321976
364.312035609
320.231071385
301.434003593
294.440480637
292.311950888
291.794627062
291.667172771
291.636867824
291.62961825
291.626641865
291.624055327
291.621948944
291.622582996
291.730802006
1407.80994199
2408.32736143
1585.5470033
1035.83621935
695.307077745
498.24883529
387.044947737
332.332015909
307.303171563
296.775288924
293.009065017
291.979305107
291.722151945
291.656062427
291.640241464
291.635440411
291.632443008
291.630156438
291.631992339
291.748656746
1342.49249413
2326.82698536
1878.25917832
1214.11077118
787.570928074
544.83183538
414.388908017
347.932975556
315.375689219
300.368848118
294.251911329
292.321051655
291.819302858
291.685323006
291.651356175
291.642446485
291.638561458
291.636027791
291.639164269
291.765732444
1284.11198321
2229.95228071
2155.35103884
1412.77485683
893.539262961
602.636270881
449.697247668
368.35059206
326.201167806
305.562708823
296.323216815
292.956839897
291.99509512
291.737250274
291.667341827
291.649665743
291.643976962
291.641164231
291.645974276
291.784206566
1231.04317668
2122.35514573
2321.64323346
1638.74427421
1026.51239868
679.124238272
495.865432049
394.943049968
340.472675162
312.755855747
299.563511488
294.099831321
292.319946147
291.832321943
291.695741167
291.66011193
291.650553696
291.647214341
291.654095111
291.805686172
1176.32701586
2001.08865097
2338.6707812
1892.41041553
1201.58995282
781.888161144
556.26273234
429.402590711
359.1502438
322.488804721
304.306765156
296.018060829
292.918909215
292.003166499
291.747706123
291.677090804
291.659326933
291.654721077
291.663969026
291.830781071
1122.24290052
1871.14105184
2289.80873354
2143.61058351
1429.35977405
916.79033477
633.423944912
473.066113759
383.126653651
335.306251464
310.832988745
299.016470517
293.981245721
292.309403227
291.840392128
291.70581061
291.671392195
291.663812634
291.675628795
291.860221509
1069.13693226
1735.43647267
2194.03557618
2268.45703553
1699.39410831
1081.51374406
724.049753352
523.939485714
411.674156764
351.147245132
319.290409176
303.295252502
295.736469341
292.866818601
292.002898407
291.755972815
291.689073624
291.674872119
291.689214222
291.894474444
1018.15196081
1600.49792407
2066.77351545
2273.89219585
1976.30382996
1260.89482023
815.413788156
575.049001746
441.866616368
369.135051251
329.647917134
308.974037111
298.470323796
293.867436943
292.290648489
291.845504388
291.717167266
291.688845187
291.705025568
291.933999682
972.306947288
1477.82504834
1928.4283779
2218.09016199
2185.18039677
1428.51740293
891.382651997
619.888775174
472.090979922
389.430972231
342.548109088
316.588840045
302.587649752
295.630254311
292.851187996
292.004849216
291.764958992
291.70765361
291.723509355
291.979545496
934.752657456
1370.94790221
1791.15632306
2125.64455374
2244.64568456
1584.01119527
963.203672668
670.778045388
511.731132157
418.134244438
361.618844302
328.170534116
309.063367054
298.801253769
293.986411392
292.303113593
291.85064371
291.735153107
291.745360483
292.032072367
904.831593256
1278.15302908
1658.88343581
2011.6062797
2239.90439799
1764.83415943
1070.12735706
759.561758426
584.69641001
471.547626635
396.75575581
349.209621364
320.651437879
304.635535803
296.321008153
292.95836406
292.007361799
291.778883769
291.771815294
292.092877127
881.407590707
1196.51838548
1532.09753469
1882.56526609
2205.36801828
2001.62809646
1255.98266357
925.672814277
727.987155659
580.289605467
469.369451513
392.335715935
343.827106688
315.895280823
301.13267531
294.435985781
292.310584944
291.852914378
291.805064135
292.163688301
863.004734191
1123.81574646
1412.63378471
1744.94237062
2130.97171385
2219.3364206
1540.86173798
1201.0423332
983.67288699
788.308085843
615.86037988
481.087585448
391.630995948
338.568287859
310.781849122
297.618673285
292.99278622
291.978297061
291.848647952
292.247002978
852.303940879
1062.72498379
1307.65612821
1612.45427124
2018.72672539
2266.26951248
1886.20290609
1581.71279608
1376.09034201
1144.3438234
889.57602086
656.151173707
486.70501554
383.280342873
329.20268466
303.93898164
294.444678033
292.192049682
291.907516776
292.34621721
849.831704336
1020.20086155
1229.42528742
1508.43106208
1901.85675711
2207.19864433
2121.70524154
1960.98078849
1827.22252359
1633.2362999
1329.7370089
964.649122467
658.945485121
463.596841638
361.437439902
315.036994033
297.117959197
292.535657035
291.986274706
292.466233988
858.526753837
1001.67841565
1188.67524946
1450.47193209
1813.28366896
2103.91864157
2141.97493199
2102.56286524
2076.80631626
2031.12529361
1842.83232977
1431.05192696
938.550574152
592.426239816
410.676940877
330.827513762
300.88584291
293.077455746
292.083142374
292.613672657
885.997707463
1014.26606247
1191.58675612
1441.92466888
1757.75689003
1989.79216321
2056.11897937
2069.84892447
2101.22098613
2148.80916114
2154.82726703
1901.30197524
1330.60350522
765.614927425
468.375813312
347.868639083
304.831366708
293.69710075
292.190600317
292.798288075
943.104750592
1066.22637052
1239.81799119
1471.13971907
1721.36626672
1890.03157135
1963.15525179
2012.6261088
2082.9307266
2178.19933187
2267.77087217
2192.28811644
1640.18689273
941.932929964
516.259805752
358.1850113
306.846320065
294.08629376
292.304373309
293.036091368
1044.21092642
1167.70314664
1336.4186757
1538.9495591
1731.93025967
1869.75122806
1964.37808278
2047.65764661
2128.37680607
2204.84541088
2269.1608336
2209.93526715
1756.19210268
1016.66986917
526.591499648
358.564433353
306.774412852
294.224691404
292.446608322
293.351676438
1202.9710505
1328.18823198
1489.91475267
1668.30484441
1832.42812415
1962.66192081
2058.26129086
2104.11795999
2079.43943965
1997.38814328
1941.70986377
1881.81437379
1581.09605467
917.040964667
487.306089704
349.004826569
305.494731072
294.418796489
292.688894907
293.781889118
1423.0473455
1549.12424515
1702.93784748
1860.82454769
1991.80322229
2062.43935738
2033.59387133
1861.79803269
1668.6056212
1516.19445989
1424.75351475
1377.89319516
1209.79182367
720.34389069
431.943565425
336.52602813
304.666124598
295.266497216
293.192468534
294.384426277
1680.99109305
1800.44938536
1932.01354708
2040.04835952
2074.40364455
1963.14487037
1722.63755159
1483.38904466
1290.28993224
1147.15686946
1048.03412577
983.042889344
870.104958536
565.538246632
394.938590791
332.176140291
307.893586971
298.03976507
294.36295004
295.278081771
1922.92610973
2020.76882829
2108.25577991
2134.27493562
2018.95391562
1752.82084357
1485.30754095
1267.25628306
1099.823852
969.314508182
865.300163564
780.73234012
684.533422602
294.888507708
295.114746529
293.746816068
294.225035858
293.100961143
293.555625105
292.743972122
293.238850242
292.571339335
293.103261876
292.50046931
293.055576211
292.48841425
293.060188238
292.513311459
293.100420753
292.564803999
293.169395599
292.63804316
293.264617926
292.730838689
293.386331213
292.841007626
293.535787483
292.970017035
293.715825478
293.120516386
293.931983251
293.295814993
294.191781339
293.500761678
294.505520263
293.742878338
294.888036316
294.032602048
295.36022511
294.384986666
295.951138249
294.820008069
296.694404474
295.366231918
297.635642421
296.059999522
298.832497518
296.944033032
300.347654944
298.071984067
302.243578417
299.48704266
304.56224593
301.222361237
307.316812805
303.268657204
310.481167967
305.595473108
313.998038646
)
;

boundaryField
{
    inletfuel
    {
        type            fixedValue;
        value           uniform 294;
    }
    inletair
    {
        type            fixedValue;
        value           uniform 294;
    }
    outlet
    {
        type            zeroGradient;
    }
    axis
    {
        type            empty;
    }
    leftside
    {
        type            fixedValue;
        value           uniform 294;
    }
    burnerwall
    {
        type            zeroGradient;
    }
    front
    {
        type            wedge;
    }
    back
    {
        type            wedge;
    }
    procBoundary0to1
    {
        type            processor;
        value           nonuniform List<scalar> 
27
(
2027.91926717
2036.48285801
2054.17302441
2076.91470782
499.200793905
393.240275365
345.784048138
320.551965991
305.137964251
297.150548526
296.689126272
2123.29429489
2192.46245153
2231.32360892
2177.41870274
1942.48168647
1656.31412058
1408.21079573
1216.20753941
1067.77283712
945.825784253
839.544655691
743.475635881
499.200793905
646.227210499
308.191753664
317.814578832
)
;
    }
}


// ************************************************************************* //
