/*--------------------------------*- C++ -*----------------------------------*\
  =========                 |
  \\      /  F ield         | OpenFOAM: The Open Source CFD Toolbox
   \\    /   O peration     | Website:  https://openfoam.org
    \\  /    A nd           | Version:  7
     \\/     M anipulation  |
\*---------------------------------------------------------------------------*/
FoamFile
{
    version     2.0;
    format      ascii;
    class       volScalarField;
    location    "0.02";
    object      alphat;
}
// * * * * * * * * * * * * * * * * * * * * * * * * * * * * * * * * * * * * * //

dimensions      [1 -1 -1 0 0 0 0];

internalField   nonuniform List<scalar> 
814
(
0.000185085755017
0.00011302343427
1.38173458713e-05
0.000153092069364
9.60007658408e-05
1.18547850844e-05
0.000143250743509
9.09589900285e-05
1.11062856127e-05
0.000119347744746
7.6388740915e-05
2.20418280365e-05
0.000103991788186
7.00493914765e-05
3.65236717342e-05
9.21416679194e-05
6.93304959849e-05
5.21430978344e-05
8.5486045861e-05
7.426880428e-05
6.90341949091e-05
8.493193726e-05
8.35232696707e-05
8.56607354764e-05
8.9800325875e-05
9.54642381063e-05
0.000100782950758
9.89269036093e-05
0.000108375935681
0.00011376208798
0.000110656691998
0.000121008944845
0.0001248965841
0.00012364260514
0.00013291042933
0.000135108905486
0.000136764972034
0.000144146772818
0.000145024810994
0.000149494298266
0.000154865897369
0.000154991526741
0.000161399596832
0.000165294283771
0.000165056798719
0.000172180772242
0.00017504987353
0.000174790616521
0.000181400481822
0.000183622607626
0.00018345512087
0.000188774334104
0.000190465627355
0.000190424730359
0.00019375268285
0.000195144990434
0.000195416194382
0.000196726665858
0.000198131396654
0.000198744214886
0.00019856391111
0.000199956908252
0.000201221147397
0.000201490782799
0.000203141032108
0.000205226720331
0.000212347173193
0.000214368697581
0.000217747546534
0.000253591107079
0.000256602895246
0.000261628754909
0.000352152596588
0.000353223994465
0.000355219999348
0.000232358668193
0.000229403070074
0.000222703654534
0.000184243674985
0.000187409950022
0.00019519684511
0.000327255213001
0.000328155560998
0.000330077689211
0.000337725708726
0.000338769562727
0.000341309080485
0.000343265458849
0.00034445769875
0.000347161423076
0.000339977696158
0.000340928435702
0.00034325693862
0.000329860453344
0.000330570115045
0.00033232737129
0.000102215555475
3.53694459287e-05
5.28186508141e-05
6.85710523741e-05
8.14593110831e-05
9.23108401973e-05
0.000101607760461
0.000110484524794
0.000119848563595
0.000130178879156
0.000141532295835
0.000153617805497
0.000165510008065
0.000176040516103
0.000184586687258
0.000191056193764
0.000196013805857
0.000200214222888
0.000206249547656
0.000221296141988
0.000267936207335
0.000356565932641
0.000213983545117
0.000206979971783
0.000332865048597
0.000344769858378
0.000350823514711
0.00034618967839
0.00033457290549
2.65115629824e-05
0.000152308041561
0.000199612576403
0.000219450146799
0.000233137541585
0.000246808754491
0.000260518327767
0.00027587974664
0.000292189534135
0.000308599184582
0.00032456249236
0.000338136428059
0.000349159926275
0.000356159353008
0.00036037466672
0.000360438453929
0.000360643305004
0.000357912688765
0.000346497057679
0.000109612566243
2.81463236833e-05
0.000106685046768
0.000163560326447
0.000198074352455
0.000220679537473
0.000239974964245
0.000254948201382
0.000270000343489
0.000284609753729
0.000298336511816
0.000310654225146
0.000320198490476
0.000327003857347
0.000330213385328
0.000331275257952
0.000329034762372
0.000327778202066
0.000323940809964
0.000310635896349
0.000112351835958
4.16654758165e-05
8.91779839991e-05
0.000128816579107
0.000178146870845
0.000204263421691
0.000231030524918
0.000247979330984
0.000263467686824
0.000276356565224
0.000287612618612
0.000296449093959
0.000302687936758
0.000306069955982
0.000306621964881
0.000305300393024
0.000301774924227
0.000299236815004
0.000295193648781
0.000283488797658
0.000114523131057
1.86163591632e-05
6.57989295408e-06
4.63709364341e-05
0.000124099088054
0.00016190780226
0.000196740198404
0.000220425803625
0.0002407107361
0.000254499862961
0.000264447885265
0.000270174574918
0.000273222128805
0.000273275233493
0.000271325026242
0.000267817139319
0.000263208413161
0.000259584197839
0.000255670350825
0.000248050060461
0.000117698298833
8.12638685177e-06
1.53967568682e-06
1.19812567307e-06
7.14361282494e-06
5.12363242191e-05
0.000125551120335
0.000167833828647
0.00019714522724
0.000216882204864
0.000228816521031
0.000233084706334
0.000233658000981
0.000230969756547
0.000226995499274
0.000221937633642
0.000216680573157
0.000212586086913
0.00020897018021
0.00020539713438
0.000112557508182
1.23719223734e-05
1.90847779334e-06
1.04660703583e-06
4.19141103057e-06
3.04809871064e-05
7.5708877783e-05
0.000110397160801
0.000142366961938
0.000168673821044
0.000185188474169
0.000190286811423
0.000189623354548
0.000185203493369
0.000180035340219
0.000174385337964
0.000169178469485
0.000165295608206
0.000162189270522
0.000161686889456
0.00011285234102
1.64066303065e-05
2.11302915233e-06
1.0294392483e-06
3.88993976244e-06
2.11112248791e-05
4.16486914195e-05
6.33816235813e-05
9.06452864519e-05
0.000119281496504
0.000140328160605
0.000148222802591
0.000148006636361
0.000143262953746
0.000137979093849
0.000132710819953
0.000128247518106
0.000125011077752
0.000122631210072
0.000123921639883
0.000118641193902
2.26152802741e-05
2.85487995178e-06
1.12174297799e-06
4.14258174795e-06
1.46839815339e-05
2.2528142282e-05
3.3121414131e-05
5.10523088166e-05
7.63390340069e-05
9.91522965475e-05
0.000111575805736
0.000113863535831
0.00011035606083
0.000105893121374
0.000101615691077
9.82381311293e-05
9.57727577871e-05
9.41783448378e-05
9.65522361194e-05
0.000127747236174
3.02032941476e-05
4.15674477818e-06
1.36209579402e-06
4.87919592478e-06
1.18834460588e-05
1.56852272782e-05
1.96290054931e-05
2.81875005606e-05
4.50287822137e-05
6.57559095769e-05
8.2239144261e-05
8.90240794076e-05
8.82347274183e-05
8.52062661657e-05
8.21023281561e-05
7.97774752283e-05
7.80257252546e-05
7.71242573636e-05
8.06511334188e-05
0.00014021007545
3.90909190139e-05
6.33760464902e-06
1.92927939477e-06
6.51650479005e-06
1.26090403831e-05
1.56515846109e-05
1.65471971914e-05
1.89207924198e-05
2.71562944439e-05
4.2480858515e-05
6.08130353017e-05
7.29788574251e-05
7.61008884962e-05
7.49988645524e-05
7.30491593017e-05
7.15802987129e-05
7.04375726294e-05
7.01046062605e-05
7.53623629794e-05
0.000157556688939
5.05008178627e-05
9.83536987365e-06
3.39425763327e-06
9.46033957294e-06
1.59405656888e-05
1.89818871137e-05
1.85497095308e-05
1.7276177397e-05
1.93589480045e-05
2.89000588526e-05
4.67246621008e-05
6.41260274217e-05
7.22339742707e-05
7.36388467215e-05
7.28822956883e-05
7.21042760693e-05
7.1501638168e-05
7.16616695714e-05
7.94415411104e-05
0.000179995072533
6.45628567275e-05
1.53432776021e-05
6.83258951932e-06
1.45277603616e-05
2.12723078407e-05
2.40448037006e-05
2.3063868647e-05
1.95167348905e-05
1.74107424643e-05
2.23317584398e-05
3.85994803066e-05
6.07565650331e-05
7.48367824239e-05
7.95924108446e-05
8.02863856077e-05
8.01601449937e-05
8.00899156439e-05
8.0721924896e-05
9.17414869165e-05
0.000206085139776
8.11032863606e-05
2.36663308157e-05
1.26178012869e-05
2.21710483382e-05
2.94426141286e-05
3.03117614696e-05
2.88565858964e-05
2.39081177411e-05
1.87427866566e-05
2.01364485071e-05
3.47604887353e-05
6.12594560188e-05
8.22468305002e-05
9.14435903995e-05
9.41114412156e-05
9.47476792436e-05
9.52487110396e-05
9.63517682678e-05
0.00011093814497
0.00023332876421
9.96135429672e-05
3.56281165305e-05
2.12080020515e-05
3.13879198291e-05
3.90203564109e-05
3.86786896421e-05
3.53088927114e-05
2.97351090386e-05
2.22459803792e-05
2.06838994764e-05
3.37071077e-05
6.40098736158e-05
9.26904470965e-05
0.000107594243436
0.000113011889456
0.000114669977514
0.000115796969497
0.000117350967495
0.000135187826909
0.000258898803626
0.000119144419954
5.17073378196e-05
3.28524818415e-05
4.19317758291e-05
4.94612660847e-05
4.86010360417e-05
4.25702880543e-05
3.69030753212e-05
2.77432913982e-05
2.32547081608e-05
3.42126410494e-05
6.71672048028e-05
0.000104004612283
0.000126042546877
0.000135233310911
0.000138322489182
0.000140127685879
0.00014206717571
0.000162149351125
0.000280146422419
0.000137721614264
7.14548858743e-05
4.75967879186e-05
5.4168330384e-05
6.11533853311e-05
6.01586325364e-05
5.25206770423e-05
4.56234343079e-05
3.56288034734e-05
2.78010770957e-05
3.5408049601e-05
6.86820450319e-05
0.000113474677883
0.000144332219897
0.000158650248338
0.000163766022879
0.000166310139699
0.000168524101132
0.000189359287479
0.000295147989716
0.000153151525771
9.34435327796e-05
6.57889820426e-05
6.90799449487e-05
7.50658087726e-05
7.42276343123e-05
6.67473892272e-05
5.67399552736e-05
4.66674535406e-05
3.50680950185e-05
3.71034231664e-05
6.69216370936e-05
0.000118075387351
0.000159683437025
0.000180968287784
0.000188985500165
0.000192389779243
0.000194742184116
0.000214707205336
0.000303127038473
0.000165951774634
0.000115351932897
8.72724942165e-05
8.75172701221e-05
9.236876319e-05
9.20537927299e-05
8.53825331369e-05
7.29651776898e-05
6.16609470909e-05
4.67999719669e-05
4.06916736298e-05
6.16961890169e-05
0.00011486149971
0.000168990196968
0.000199934521852
0.000212178402156
0.000216714037143
0.000219078614103
0.000236752799835
0.000304412147424
0.000176775450668
0.00013613344339
0.000111443276238
0.000110176347655
0.000114133327855
0.000114569786492
0.000109760917428
9.85798610441e-05
8.20545397345e-05
6.53409720531e-05
5.01790557856e-05
5.60564876299e-05
0.000101982587227
0.000168724818236
0.000213368030007
0.000231949066987
0.00023814503322
0.000240440141151
0.000254778792338
0.000300161942408
0.000186130558593
0.000156374531635
0.000138422967018
0.000137604455697
0.000140916740199
0.000141745122301
0.000139089487279
0.000131125796204
0.000114167979569
9.21266314821e-05
7.05333210446e-05
5.81044713037e-05
8.25752122997e-05
0.000154077038419
0.000218538444081
0.000247273108055
0.000256098442644
0.000258323213752
0.000268614765917
0.000291809324687
0.000195164712321
0.000177404876931
0.000168498011961
0.000169619910276
0.000172116424447
0.000172090749783
0.000170450281379
0.000166797010427
0.000156224677849
0.000132171076277
0.000103579387564
7.56666894382e-05
7.12957284356e-05
0.00012521214393
0.000211634454879
0.00025728239359
0.00027043709011
0.000272697600373
0.000278465019819
0.000281401940299
0.000206574206426
0.000201577164972
0.000202269901823
0.00020619477978
0.000207473413486
0.000204797323297
0.000200966768129
0.000198895952538
0.000196804001008
0.000184659951739
0.000147010769237
0.00010954833441
7.89772822268e-05
9.84380209171e-05
0.000190158795584
0.000260895649183
0.000281308531505
0.0002838661804
0.000284726641171
0.000271653711175
0.000227592927577
0.000234224833953
0.000242379554811
0.000248715126572
0.00024898652066
0.000242254292569
0.00022935822318
0.000216627052357
0.000215019825973
0.000221048217271
0.000204080926349
0.000155906031234
0.000103444962464
8.95121185836e-05
0.000163634199096
0.000258603692454
0.00028909314859
0.000292267780653
0.000287852822249
0.000265847624205
0.000280059642334
0.000294662759095
0.000305829766848
0.000306524973473
0.000290153998436
0.000257978933914
0.000220562542974
0.000194077736975
0.000195715189796
0.000224837958113
0.000240451663691
0.000201651463225
0.000134524835019
9.51596237288e-05
0.000148562367941
0.000255008195729
0.000294622053277
0.000298368102872
0.000288163403735
0.000265709306492
0.000356601510083
0.000343700390672
0.000313325810528
0.000268293572656
0.000215700919408
0.000175237330406
0.000157762577699
0.000167442513671
0.000200794132471
0.000245325115379
0.000269527743798
0.000233604367086
0.000153486503162
0.000103354029307
0.00014962349972
0.000256774251009
0.000298995787688
0.000302474146868
0.000285587138303
0.000271408657653
0.000194424525281
0.000166757170068
0.00014666554969
0.000144194898889
0.000169403402814
0.000228985088049
0.000290236772581
0.00031628513682
0.000311790671769
0.000299565087837
0.000283530429307
0.000239741987874
0.000157113023884
0.000107502469371
0.000162621485196
0.000264831162875
0.000302743748542
0.000304721029324
0.000279650369082
0.000282908947887
0.00024094345446
0.000283126745095
0.000319970035092
0.000346789025638
0.000366608398945
0.000382578182435
0.000392539073076
0.000389223879269
0.000367482100909
0.000331406884826
0.000288557699981
0.000230453033411
0.000147933123223
0.000110686984041
0.000178227875895
0.000273860833407
0.000305786690237
0.000305223164867
0.00027049685423
0.00030090449865
0.000339036417419
0.000349945607927
0.000363798278908
0.000381144795736
0.000401118613984
0.000417921307262
0.000422641163293
0.000410190442547
0.000379985892892
0.0003340942624
0.00027894220395
0.000216939331586
0.000136584038846
0.000116850071082
0.000197246266417
0.000283458984872
0.000308153965859
0.000303684634036
0.000259576767605
0.000327024334105
0.000352445625057
0.000366625617711
0.000383287724438
0.000400787750998
0.000415443748299
0.000421590844957
0.000414877087255
0.000394858941798
0.000362220584829
0.000318584467173
0.000263092259865
0.000198762595997
0.0001250172505
0.000128074037638
0.000218511536489
0.000292173983083
0.000309567714737
0.000299674132434
0.000249434966432
0.000363434151832
0.000358543762501
0.00037144986392
0.000384498722458
0.00039590534337
0.00040415358739
0.000404560691637
0.000392240178487
0.000366223438031
0.000330481879898
0.00028876796366
0.000237354035371
0.000172287342587
0.000117260311262
0.00014699432943
0.000241660262041
0.000299505901227
0.000309814062825
0.000292744215664
0.000242835782097
0.000412679770239
0.000352159890528
0.000360938119176
0.000368725243148
0.000374886728856
0.000378691727012
0.000376176482476
0.000362078375793
0.000333463481568
0.000294930844461
0.000252099202436
0.000205234565999
0.000144511437666
0.000118955390024
0.000174650700088
0.000263729651325
0.00030478696878
0.000308697375268
0.000282925850041
0.000241728797404
0.000476409371893
0.00033898463918
0.000344815039224
0.000348661710237
0.00035012688038
0.000349577988184
0.000344544329554
0.000329703030627
0.000301022487
0.000261488179812
0.000217658335922
0.000174001795878
0.000126825940224
0.000134295686936
0.000201785363562
0.000120565178703
0.000137825733504
0.000145227191917
0.000145150062114
0.000163632634788
0.000153972924714
0.000171559395101
0.000162378485668
0.000174430902895
0.000168973059141
0.00017415594155
0.000174071878775
0.000172057292203
0.000177564984865
0.000168812177151
0.000179345072655
0.000164884069175
0.000179111897252
0.000160738221808
0.00017623535315
0.000157202533483
0.000169282948946
0.000155162090554
0.000156491586123
0.000154965785417
0.00013793940215
0.000158534036441
0.000114601389606
3.93933838281e-05
9.92056589561e-05
3.85823567982e-05
8.79210163697e-05
3.83466912455e-05
7.95551944228e-05
3.86920222889e-05
7.51962645272e-05
3.96579939164e-05
7.47974699635e-05
4.12042093813e-05
7.73716760107e-05
4.32785337702e-05
8.21367338688e-05
4.58273952325e-05
8.88603987038e-05
4.87987673796e-05
9.80960533222e-05
5.21790814006e-05
0.000110853437963
5.60084401955e-05
0.000128466231648
6.03648224464e-05
0.000152699288258
6.53904085675e-05
0.000185674110207
7.13258850982e-05
)
;

boundaryField
{
    inletfuel
    {
        type            calculated;
        value           nonuniform List<scalar> 3(0.000793904196613 0.00079383572996 0.000793964902404);
    }
    inletair
    {
        type            calculated;
        value           nonuniform List<scalar> 
20
(
0.000378277980652
0.000378267758676
0.000378251887967
0.000378229499644
0.000378200955252
0.000378165871427
0.000378125168369
0.000378079436314
0.00037802989071
0.000377977412435
0.000377923180506
0.000377868155524
0.000377814928741
0.000377766244367
0.000377723220422
0.000377685441516
0.00037765180774
0.000377624193633
0.000377603513409
0.000377594455774
)
;
    }
    outlet
    {
        type            calculated;
        value           nonuniform 0();
    }
    axis
    {
        type            empty;
    }
    leftside
    {
        type            compressible::alphatWallFunction;
        Prt             0.85;
        value           nonuniform List<scalar> 
33
(
0
0
4.28438172932e-06
4.72708977345e-06
5.13361053074e-06
0
0
0
0
0
0
0
0
0
0
0
0
0
0
0
8.30863451571e-07
1.86882678313e-06
3.04811481493e-06
4.30971915368e-06
5.58795945104e-06
6.85893599451e-06
8.13143799087e-06
9.41632838382e-06
1.07273780834e-05
1.20871674515e-05
1.35221310688e-05
1.50729485482e-05
1.67898148297e-05
)
;
    }
    burnerwall
    {
        type            compressible::alphatWallFunction;
        Prt             0.85;
        value           nonuniform List<scalar> 7(0 0 0 0 0 0 1.90097458959e-07);
    }
    front
    {
        type            wedge;
    }
    back
    {
        type            wedge;
    }
    procBoundary0to1
    {
        type            processor;
        value           nonuniform List<scalar> 
27
(
0.000319208871849
0.000319705798392
0.000321137262164
0.000322802602101
0.000208176761823
0.000281729624256
0.000307924995042
0.000306081732307
0.000271032001031
0.000246570443878
0.000551646884745
0.000325926694236
0.00032898259093
0.000329100445259
0.000326303646889
0.000321437811648
0.000313279488942
0.000297496614082
0.000269969709519
0.000232112201841
0.000190253635091
0.000151280110052
0.000126229440676
0.000208176761823
0.000162930544373
0.000231856934724
7.84565830328e-05
)
;
    }
}


// ************************************************************************* //
