/*--------------------------------*- C++ -*----------------------------------*\
  =========                 |
  \\      /  F ield         | OpenFOAM: The Open Source CFD Toolbox
   \\    /   O peration     | Website:  https://openfoam.org
    \\  /    A nd           | Version:  7
     \\/     M anipulation  |
\*---------------------------------------------------------------------------*/
FoamFile
{
    version     2.0;
    format      ascii;
    class       volScalarField;
    location    "0.02";
    object      dQ;
}
// * * * * * * * * * * * * * * * * * * * * * * * * * * * * * * * * * * * * * //

dimensions      [1 2 -3 0 0 0 0];

internalField   nonuniform List<scalar> 
814
(
4.54270215554e-10
1.67314446257e-09
2.80880135127e-09
3.01208059225e-08
1.37968672445e-07
9.27295226789e-07
9.71531525282e-07
6.54787477139e-06
9.8526106149e-05
3.4551483332e-05
0.000461247408097
0.0218118962173
0.000243264391395
0.00312534125983
0.0636800044891
0.000328220595898
0.00301601060488
0.0268076991815
0.000334370026008
0.00227021374405
0.0104279239951
0.000284255310673
0.00144225435944
0.00398956832229
0.0002081779041
0.000825155179287
0.00161117471952
0.000136002709692
0.000450685304202
0.000754035218826
8.2367195738e-05
0.000246302264501
0.000412477681103
4.80302396614e-05
0.000138841181769
0.000250662914104
2.78026352141e-05
8.18078911735e-05
0.000160812550245
1.63556680866e-05
5.02701109216e-05
0.000105556595814
9.89772952404e-06
3.19202430499e-05
6.98828332855e-05
6.190825621e-06
2.07710712586e-05
4.66779647349e-05
4.01474667118e-06
1.38965476917e-05
3.19638700783e-05
2.73292240378e-06
9.73271323559e-06
2.3111782246e-05
2.0114628608e-06
7.39536767424e-06
1.83276341673e-05
1.66684015906e-06
6.3090626152e-06
1.61841420742e-05
1.56594588098e-06
5.97296138621e-06
1.53249437036e-05
1.68716667942e-06
6.28691775395e-06
1.53866894275e-05
3.94977430346e-06
1.37251265159e-05
2.99177198335e-05
4.39262848031e-05
0.000143370093246
0.000279814040529
0.000962708562219
0.00318919066279
0.00636068702933
0.0232340504882
0.0714039282672
0.124703411155
0.00781737980493
0.0221583535958
0.0326025336801
6.69225707729e-05
0.000192954529193
0.000294968960857
1.45409546522e-06
4.37223260312e-06
7.35284290656e-06
6.12929682521e-07
1.91578342278e-06
3.47939303203e-06
5.13260455353e-07
1.59442623342e-06
2.86148423904e-06
4.54307391631e-07
1.39822925313e-06
2.46322363181e-06
0.0240494444686
0.309817364239
0.067600860111
0.0162895487525
0.00478685931475
0.00192772823512
0.00117991551617
0.000777648615914
0.000509902399364
0.000330055371084
0.000211501806876
0.00013523828799
8.77711618301e-05
5.95527723617e-05
4.36718780782e-05
3.56158538182e-05
3.1954678538e-05
2.96687359652e-05
2.80531847441e-05
4.8609966144e-05
0.000406690065004
0.00945604721868
0.158730092736
0.0327531748549
0.000313090198581
8.9701031065e-06
4.65913415289e-06
3.77509392656e-06
3.17950014439e-06
8.29849845329e-05
2.65434656333e-05
2.42133644452e-05
1.79932420046e-05
6.79852900528e-06
2.29981868616e-06
6.98860479087e-07
1.9335015642e-07
4.82439277036e-08
1.09354306996e-08
2.25564799817e-09
4.14024384707e-10
6.4237225271e-11
7.93808996271e-12
7.43769787951e-13
5.08622024918e-14
2.48815853894e-15
8.37776879081e-17
1.95349912425e-18
4.81996182585e-20
0.00121019552205
0.000524237719508
0.000273835899681
0.000165335629618
6.61963912102e-05
1.89407777953e-05
5.36688115584e-06
1.4277680587e-06
3.58291769631e-07
8.39676815458e-08
1.86359791356e-08
3.75213012728e-09
6.37085877024e-10
8.47492109478e-11
8.35789055138e-12
5.95109078815e-13
2.96318847689e-14
1.01784780297e-15
2.41220751683e-17
5.5764582203e-19
0.00553499414444
0.00168122807712
0.000999437469638
0.000416050332144
0.000115186008705
3.34960115566e-05
1.01624510398e-05
2.97602913497e-06
8.49969912945e-07
2.31384670006e-07
6.1287944265e-08
1.45043735107e-08
2.80262745474e-09
4.09196485321e-10
4.3008540929e-11
3.21385576982e-12
1.64482115013e-13
5.83525044845e-15
1.42986029322e-16
4.20375255618e-18
0.249327448062
0.104057531676
0.00741977205054
0.00107834820204
0.000281364296127
9.41641705039e-05
3.42107198433e-05
1.16978578773e-05
3.91292716654e-06
1.23363170319e-06
3.76240584808e-07
9.94898000661e-08
2.09122437254e-08
3.25032696646e-09
3.58353036825e-10
2.78549793926e-11
1.46691418058e-12
5.3970003036e-14
1.39237852209e-15
8.58471585201e-17
0.234055184462
1.77981817219
0.292333054526
0.0271839864831
0.00214605706879
0.000344611963058
0.000108388101787
4.2573366942e-05
1.65071927791e-05
6.06356634418e-06
2.12801049723e-06
6.27523777528e-07
1.43993413274e-07
2.40086312106e-08
2.80766225593e-09
2.29472010281e-10
1.25905906092e-11
4.85570530426e-13
1.39001422898e-14
1.38993112374e-15
0.0691757923061
0.986452581695
0.269984425004
0.027936933669
0.00340286493168
0.000815755724487
0.000318102264828
0.000136690649227
5.87169318936e-05
2.54885748475e-05
1.03855314361e-05
3.47845018728e-06
8.86319595413e-07
1.60785942056e-07
2.01969591067e-08
1.75300329546e-09
1.01358369678e-10
4.13089772553e-12
1.35990792996e-13
1.51402781811e-14
0.0269395801094
0.332604984786
0.19025851851
0.0188261717944
0.00497444174947
0.00215588290385
0.000973441257565
0.000440461343375
0.000202761347883
9.13253428849e-05
4.24171520769e-05
1.60451627256e-05
4.5666377695e-06
9.12224126021e-07
1.24236862105e-07
1.15253544527e-08
7.07233613992e-10
3.0655315284e-11
1.12120213047e-12
1.10565582991e-13
0.014763660826
0.197961773538
0.228196880291
0.020512493017
0.0100737020464
0.00652237015699
0.00323475176829
0.00147216805002
0.000650951466308
0.000306448250829
0.000143212374796
6.02142152389e-05
1.90297096715e-05
4.16157745596e-06
6.13361442482e-07
6.07587896468e-08
3.9629109985e-09
1.83275986328e-10
7.14944661747e-12
5.56392273051e-13
0.0113853294165
0.144999582364
0.254953551051
0.0340860854584
0.0244133201868
0.0187802820409
0.00992596329422
0.00442077848896
0.00189924451256
0.000880214058993
0.000420692784915
0.000185522592531
6.15365612666e-05
1.49068940659e-05
2.36547613463e-06
2.49193687666e-07
1.72355017408e-08
8.46460150442e-10
3.41099109488e-11
2.07998579253e-12
0.0114487988224
0.129526321403
0.37312710909
0.0796160646444
0.0611186717983
0.0470690272373
0.0254722575675
0.0110307765497
0.00464284793604
0.00215352816037
0.00102431790501
0.000458862601402
0.000165813851132
4.20977622398e-05
7.12676683787e-06
7.95630356561e-07
5.81670693198e-08
3.0012349627e-09
1.22325654518e-10
6.05392706587e-12
0.00741669909893
0.0598323397718
0.332848971474
0.221192099759
0.154168969127
0.106948209615
0.0557455632722
0.02309778248
0.00932010280807
0.00434238319762
0.00208325805385
0.000941194761932
0.000352890343078
9.48639294095e-05
1.70653886619e-05
2.01664831729e-06
1.55678508675e-07
8.37875946311e-09
3.42250438557e-10
1.44986448152e-11
0.00450622906699
0.0298435615743
0.138652710065
0.298697059621
0.368242467699
0.225320207575
0.109736710016
0.0426682989605
0.0158865288246
0.00727654668307
0.00356067307872
0.00161526965793
0.00062106847038
0.000175563482434
3.3492246368e-05
4.19802458611e-06
3.4295573406e-07
1.92560726389e-08
7.90500414413e-10
3.01786366845e-11
0.00270071153081
0.0155460740975
0.0650887949115
0.13922363648
0.252138030994
0.43367930788
0.195085597626
0.0721057428807
0.0245410808089
0.0105818934049
0.00524812695817
0.00238560587153
0.000934116651661
0.00027634202794
5.59225380398e-05
7.46667261861e-06
6.49217931873e-07
3.83011053367e-08
1.59990338601e-09
5.75245312403e-11
0.00161848781906
0.00837320974608
0.0324129984121
0.070856894631
0.13826632863
0.333890500747
0.31805711537
0.114977506668
0.0366723878619
0.0143166829769
0.00699344380779
0.00316134766408
0.00124893176592
0.000384471909753
8.25571274879e-05
1.17936657788e-05
1.10019669929e-06
6.89572313827e-08
2.98032581502e-09
1.04372081994e-10
0.000982733196498
0.00474185797859
0.0175380239912
0.0404710587591
0.0871269461421
0.221270174378
0.485908097977
0.181450422935
0.0567965273467
0.0197987483356
0.00905341874828
0.00398542601725
0.00155853127938
0.000493393354784
0.000112036759879
1.7162229855e-05
1.73280134137e-06
1.16676876501e-07
5.28786115893e-09
1.84165650985e-10
0.000620610730024
0.00291761880527
0.0108010810022
0.0270790473046
0.0633348190704
0.162474081894
0.491535717303
0.296307004772
0.0967194650551
0.0310364671147
0.0125235247481
0.00518334981833
0.0019452210184
0.000618482632079
0.000146690784695
2.40308101781e-05
2.63208579398e-06
1.91179402646e-07
9.1256834219e-09
3.18586643725e-10
0.000421420829801
0.00197097821586
0.00756571414216
0.0206466500822
0.0511754555147
0.13034852001
0.362740138241
0.518407951314
0.188546591769
0.0600229613524
0.0208702871257
0.00771549100224
0.00266962234037
0.000820860170823
0.000198277201385
3.41793857153e-05
4.02093346045e-06
3.11721227323e-07
1.55560110131e-08
5.3956237783e-10
0.000317671461703
0.00152727504933
0.00599534058188
0.0169686118198
0.0424631126291
0.104875274887
0.271698541146
0.790388260743
0.413221658666
0.144351091906
0.0474745403589
0.0150795547364
0.00454146060004
0.00128346224691
0.00030307647545
5.31140525913e-05
6.50690223315e-06
5.22796705654e-07
2.66749202581e-08
8.96335138709e-10
0.000268057390035
0.00129667245002
0.00494249419073
0.0138464085288
0.0339623371818
0.0804234794892
0.195510527074
0.522680505418
1.01126119171
0.400266749668
0.144476292233
0.0435145286057
0.0109302815814
0.0026241581288
0.000572296326749
9.69599679755e-05
1.17431847646e-05
9.36196718111e-07
4.704688443e-08
1.47122675043e-09
0.000242178633809
0.00112076068662
0.00395974858742
0.0106092557739
0.0250719957352
0.0568044142472
0.130556944591
0.324314157246
0.923934602717
1.17070487551
0.47956349457
0.158826903543
0.0384434155175
0.00747743723696
0.00141246057997
0.000220693534836
2.508998282e-05
1.8846681974e-06
8.87313307422e-08
2.50452286619e-09
0.000216837441607
0.000910710330499
0.00289860866772
0.00729480306564
0.0164768518307
0.0358664769236
0.0792974510035
0.189645598094
0.516954993672
1.65259015498
1.51073173413
0.551279126925
0.149369964934
0.0258909186438
0.00404974943044
0.000579601203831
6.17090749092e-05
4.29773694896e-06
1.83948648835e-07
4.58873496915e-09
0.000189065456492
0.000683968339788
0.00196617699089
0.00465947908079
0.0102431655556
0.0220976534758
0.0480935476938
0.109889683273
0.279889641094
0.828698226231
2.82500899375
1.53222376476
0.465487006706
0.0861383130507
0.0111711743628
0.00145882833852
0.000151375245272
1.010292273e-05
3.98657626595e-07
8.98736521477e-09
0.000286810250185
0.000870248331104
0.00229197249287
0.00583857529613
0.0163191507707
0.0432733140633
0.0952315103776
0.171402115199
0.262238044755
0.504943014738
1.57493989724
3.25254403073
1.03273604842
0.210579733872
0.0249141488213
0.00291964838444
0.000303431523444
2.0357596706e-05
7.7576815285e-07
1.66690504737e-08
0.00211000303337
0.00571269737342
0.0184708954694
0.0601265747177
0.168243768244
0.368255981858
0.630140883347
0.885868823451
0.910845786888
0.834660551797
1.28208569634
3.69671310035
1.31153730723
0.295129092476
0.0373446005437
0.00427614211153
0.000463896092795
3.22494749783e-05
1.22023586667e-06
2.56408864699e-08
0.0514321481549
0.135568477883
0.317264576604
0.686455644105
1.38482622078
2.20104237333
2.71839020286
2.79586699899
2.45978376716
1.94216779806
1.78945968315
2.29369539803
0.967875352086
0.245546993013
0.0357527473594
0.00452954872493
0.000522658946086
3.77498918389e-05
1.43986443838e-06
2.99415734816e-08
0.660933784099
1.18041799659
1.55846060936
1.77716861423
1.46708367469
0.770165811818
0.441171123012
0.388430224942
0.573021572514
0.998623402573
1.42962796657
1.25794254212
0.593851537654
0.153476801045
0.0248934283146
0.00366614451661
0.000453283029039
3.36431515207e-05
1.30135142277e-06
2.77889011165e-08
0.0772630374502
0.0656312555445
0.0482456281085
0.0331208126523
0.0240624884506
0.023265845702
0.0381715765586
0.0930895407791
0.23224551671
0.488601946111
0.756779923861
0.717543397782
0.328414647287
0.0877778438279
0.0164976379252
0.00271267220631
0.000345082039754
2.51036634681e-05
9.88838065921e-07
2.12897743659e-08
0.000862390003245
0.000889226498754
0.000854656463004
0.000960035697837
0.00168771437838
0.00462377871823
0.0150939123656
0.0481346139629
0.131122676763
0.283720975566
0.440529671676
0.42642799051
0.184521423325
0.0509839170218
0.010536000593
0.00184963710302
0.000233066329873
1.64807799258e-05
6.78315462252e-07
1.40127380833e-08
3.52236288563e-05
7.14550996487e-05
0.000158005777942
0.000391150735807
0.00110457128261
0.00343418411505
0.0107539692339
0.0313333270188
0.0798536337517
0.167968784938
0.26103882031
0.252397236343
0.104058055474
0.0297033471238
0.00645534191952
0.00116808024968
0.000143067290982
9.81846279397e-06
4.15308070389e-07
8.1594044652e-09
2.14444281088e-05
4.99208573086e-05
0.000113916024866
0.000269785189515
0.000707068694439
0.00205903725153
0.00620568874509
0.0177546547229
0.0450304154683
0.0957718739968
0.152026916937
0.142734529306
0.0565859050327
0.0162127294453
0.00364852905799
0.000667831121864
7.86022471285e-05
5.25980841602e-06
2.25830276815e-07
4.28040875125e-09
1.69084339634e-05
3.77421539087e-05
8.19613647055e-05
0.000179504967078
0.000420831168104
0.00110640567297
0.0031628306667
0.00897440533641
0.0231935494533
0.0510342612063
0.0842279416468
0.0747035749396
0.0283582074231
0.00804460537424
0.00187968310089
0.000341806661949
3.85529714633e-05
2.54024502933e-06
1.08845820436e-07
2.05850016748e-09
1.37267897125e-05
2.92311545361e-05
6.06923650174e-05
0.000124545857083
0.000261760063
0.000600726150248
0.00155184570162
0.00424079391885
0.0110670244721
0.0251622248844
0.0430145703279
0.0351119125809
0.0126593102509
1.76673377717e-17
2.38689575508e-17
3.82282978153e-16
1.46021789515e-16
3.1880413341e-15
9.48215630575e-16
1.7071175476e-14
4.41159786853e-15
6.23946688689e-14
1.43842631737e-14
1.73900972373e-13
3.67071721949e-14
3.906273865e-13
7.63535839274e-14
7.57252648554e-13
1.39569827577e-13
1.32937840191e-12
2.33459387137e-13
2.20500459909e-12
3.69415528699e-13
3.55388388848e-12
5.63866076467e-13
5.64438838562e-12
8.29439315564e-13
8.88355211202e-12
1.14637277766e-12
1.39457328112e-11
1.40853548074e-12
2.25144968541e-11
1.16841401771e-12
3.29915174008e-11
5.03647095487e-12
4.61580864627e-11
5.91912742634e-12
6.90944150337e-11
7.66906385719e-12
1.18856032944e-10
1.18783490438e-11
2.09552974421e-10
1.98002117761e-11
3.20094034799e-10
2.95022200661e-11
3.81653733574e-10
3.50397114907e-11
3.54972607917e-10
3.2671676612e-11
2.70265234996e-10
2.4985574213e-11
1.76882183547e-10
1.65005388265e-11
1.03764225683e-10
9.85824682616e-12
5.63237627519e-11
5.55237718233e-12
2.91927140708e-11
3.07613832e-12
)
;

boundaryField
{
    inletfuel
    {
        type            zeroGradient;
    }
    inletair
    {
        type            zeroGradient;
    }
    outlet
    {
        type            zeroGradient;
    }
    axis
    {
        type            empty;
    }
    leftside
    {
        type            zeroGradient;
    }
    burnerwall
    {
        type            zeroGradient;
    }
    front
    {
        type            wedge;
    }
    back
    {
        type            wedge;
    }
    procBoundary0to1
    {
        type            processor;
        value           nonuniform List<scalar> 
27
(
4.34781321383e-07
1.32514710067e-06
2.28904336203e-06
2.88199825421e-06
0.00363615331548
0.000881391637581
0.000156430270743
1.69458516827e-05
1.11072037533e-06
4.66583212503e-08
9.17861059725e-10
1.19009050008e-05
2.3844551092e-05
4.71854499514e-05
9.22719493202e-05
0.000178834494837
0.000359006767937
0.00079876316171
0.00197897798569
0.0049988382966
0.011424581803
0.0196554277527
0.0145060500865
0.00363615331548
0.0051220336599
1.52346566291e-11
1.84893274206e-12
)
;
    }
}


// ************************************************************************* //
