/*--------------------------------*- C++ -*----------------------------------*\
  =========                 |
  \\      /  F ield         | OpenFOAM: The Open Source CFD Toolbox
   \\    /   O peration     | Website:  https://openfoam.org
    \\  /    A nd           | Version:  7
     \\/     M anipulation  |
\*---------------------------------------------------------------------------*/
FoamFile
{
    version     2.0;
    format      ascii;
    class       volScalarField;
    location    "0.02";
    object      ed::R_O2;
}
// * * * * * * * * * * * * * * * * * * * * * * * * * * * * * * * * * * * * * //

dimensions      [1 -3 -1 0 0 0 0];

internalField   nonuniform List<scalar> 
814
(
-3.58902568265e-07
-4.40630391757e-07
-4.43826352144e-07
-3.76269720698e-05
-5.74502395103e-05
-0.000231675664542
-0.00191893502622
-0.00431104231868
-0.038920993661
-0.0634316792464
-0.28225750992
-8.006860414
-0.429493052172
-1.83914472049
-22.4645305375
-0.557273353316
-1.70659328147
-9.08902802403
-0.545929266437
-1.23511718134
-3.39788190772
-0.446270938082
-0.754372161575
-1.24929436852
-0.314245953122
-0.414891950087
-0.484831081895
-0.197370332802
-0.217813009556
-0.218044728172
-0.114904353156
-0.114407263237
-0.114623446346
-0.0644009346383
-0.0619797573637
-0.0669418577685
-0.0358267786066
-0.0350953592515
-0.0412740105158
-0.0202529308099
-0.0207236424405
-0.0260376989838
-0.0117764099547
-0.0126445607133
-0.0165672983252
-0.00707707702282
-0.0079060725754
-0.0106353844614
-0.00440934131954
-0.00508231612271
-0.00699925011117
-0.00288363067594
-0.0034200106183
-0.00486355147487
-0.00203890293091
-0.00249667184478
-0.00370602331991
-0.00162292109245
-0.00204603707906
-0.00314410011925
-0.00146425163263
-0.00186036636802
-0.00285969064444
-0.00151475840813
-0.00188028720008
-0.00275748178918
-0.00340428737672
-0.003941096251
-0.00514885102639
-0.0363346631817
-0.0395152045436
-0.0462366184687
-0.763085372401
-0.842384100369
-1.00745585583
-17.516925011
-17.9404409328
-18.7905427756
-5.68198946284
-5.36907965334
-4.74082687422
-0.046936644078
-0.045108537305
-0.0413712419539
-0.000981658128918
-0.000983864591971
-0.000992672457055
-0.000398287040026
-0.000414955032534
-0.000452153552072
-0.000321038539845
-0.00033242993858
-0.000357956428426
-0.000273534208282
-0.000280622877329
-0.000296623468812
-7.34811527599
-90.5199740781
-18.9968611817
-4.4024573918
-1.24382119112
-0.48147468835
-0.283244522378
-0.179433563651
-0.113098790905
-0.0703798662616
-0.0433609878885
-0.0266576429451
-0.0166342467691
-0.0108506190251
-0.00764904748712
-0.00599554476893
-0.00516895798246
-0.00461060359409
-0.004187833317
-0.00697083834564
-0.056017608681
-1.24872029038
-19.9451182113
-3.97491105635
-0.0366365484653
-0.00101034860647
-0.000505153209672
-0.000394023830048
-0.000319473571206
-0.00294078180622
-0.000588850117844
-0.000366442985442
-0.000195420935425
-5.47866185e-05
-1.40794196738e-05
-3.30753988963e-06
-7.17002836419e-07
-1.416757917e-07
-2.56503441833e-08
-4.25595348046e-09
-6.32083288777e-10
-7.97468284774e-11
-8.0474417228e-12
-6.17980018065e-13
-3.47449936626e-14
-1.40128841372e-15
-3.89918637782e-17
-7.52963564431e-19
-1.54146064929e-20
-0.0677940525449
-0.0183867713039
-0.00655246915773
-0.0028392562356
-0.000843482171759
-0.000183346841147
-4.01626085663e-05
-8.37181531288e-06
-1.66370196052e-06
-3.11426214749e-07
-5.5598545671e-08
-9.05757457895e-09
-1.25057643124e-09
-1.35851078039e-10
-1.09804003341e-11
-6.42804994604e-13
-2.63872642265e-14
-7.49055644375e-16
-1.47014846233e-17
-2.81990229604e-19
-0.489506284829
-0.0931991243802
-0.0378051867222
-0.0112957829879
-0.00232057202641
-0.000512662975382
-0.000120244485094
-2.75910046713e-05
-6.24038042063e-06
-1.35689601054e-06
-2.89104736582e-07
-5.53607414015e-08
-8.69854199446e-09
-1.03711783877e-09
-8.93397966584e-11
-5.4888044927e-12
-2.31591444192e-13
-6.78983843577e-15
-1.37787275231e-16
-3.36110308171e-18
-20.3279928582
-5.34667863115
-0.260594110309
-0.0272006608762
-0.00526755693192
-0.00133942552805
-0.000376222248994
-0.000100800381898
-2.67016674001e-05
-6.72400322571e-06
-1.64959179586e-06
-3.52949224263e-07
-6.0327096836e-08
-7.65691665729e-09
-6.91881901261e-10
-4.42165449554e-11
-1.91972559348e-12
-5.83690948866e-14
-1.2471070866e-15
-6.379457572e-17
-17.9293471992
-84.979953289
-9.72245192791
-0.656570477971
-0.0385894371898
-0.00471204819572
-0.00114611858582
-0.000352780811054
-0.000108327858721
-3.1783967833e-05
-8.97272648067e-06
-2.1409391428e-06
-3.99479961701e-07
-5.43919807204e-08
-5.21322365803e-09
-3.50309790375e-10
-1.58460566122e-11
-5.05037307846e-13
-1.19731045649e-14
-9.93300855415e-16
-5.10521073938
-45.1017645203
-8.57120572665
-0.646316572949
-0.0587337158554
-0.0107160224132
-0.00323312684169
-0.00108903288723
-0.000370534543555
-0.000128484020283
-4.21126337704e-05
-1.1412898616e-05
-2.36471860893e-06
-3.50309936705e-07
-3.60648746263e-08
-2.57360689239e-09
-1.2267942552e-10
-4.1319261837e-12
-1.1265093418e-13
-1.04051252385e-14
-1.91344554233
-14.6063044751
-5.79176618102
-0.417203788954
-0.0823264009055
-0.0271782538752
-0.00950360184169
-0.00337275165198
-0.00123016444715
-0.000442672269424
-0.000165401930562
-5.06267895265e-05
-1.17169513863e-05
-1.91132915438e-06
-2.13343065087e-07
-1.62720890234e-08
-8.2319863112e-10
-2.9487871173e-11
-8.9318197617e-13
-7.30730775274e-14
-1.0100103834
-8.36053663564
-6.66016643636
-0.434813020825
-0.159519828638
-0.0787613231565
-0.0302991327857
-0.0108268413505
-0.0037956235938
-0.00142806800633
-0.000536978956749
-0.000182701071756
-4.69531868925e-05
-8.38511103008e-06
-1.01288852242e-06
-8.24926226158e-08
-4.43581078561e-09
-1.69535225083e-10
-5.47704940086e-12
-3.53618904428e-13
-0.74987567496
-5.89255189541
-7.12221322118
-0.689571177794
-0.36880941665
-0.216623298462
-0.0890325807302
-0.0311906823338
-0.0106366730882
-0.00394225202427
-0.00151651335359
-0.000541263381354
-0.000146002120401
-2.88826041126e-05
-3.75632212877e-06
-3.25343333239e-07
-1.85515924974e-08
-7.52937899555e-10
-2.51277903674e-11
-1.2712064241e-12
-0.725778444138
-5.067651
-9.97156660754
-1.53617004215
-0.879262430984
-0.517237212589
-0.218261652597
-0.0745507386232
-0.024953453768
-0.00926550675476
-0.0035491027538
-0.0012870994199
-0.000378275269531
-7.8429967882e-05
-1.08820974456e-05
-9.98830574762e-07
-6.02017735181e-08
-2.56700693396e-09
-8.66495222273e-11
-3.55771004199e-12
-0.452683180039
-2.25411848848
-8.53473110171
-4.08052947892
-2.11581482523
-1.1197885714
-0.455562440762
-0.149295505598
-0.048023864062
-0.0179378975631
-0.0069359186662
-0.00253781065507
-0.00077401463678
-0.000169929371594
-2.50544415156e-05
-2.43421604342e-06
-1.54920135454e-07
-6.89054131294e-09
-2.33098090665e-10
-8.19236789333e-12
-0.264879615855
-1.08303943944
-3.42095218659
-5.28817479824
-4.84062250658
-2.25535464333
-0.855791707507
-0.26354771337
-0.0784114597977
-0.0288444259434
-0.0113878653934
-0.0041860361674
-0.00130956482609
-0.000302352344376
-4.72750812446e-05
-4.87185065098e-06
-3.28122042357e-07
-1.52250566577e-08
-5.17622312318e-10
-1.63945338856e-11
-0.152899891495
-0.543621232801
-1.54606464763
-2.3709222565
-3.18484244666
-4.16345597472
-1.45517262393
-0.425771990551
-0.115979052073
-0.0402367364976
-0.0161196550355
-0.00594110118664
-0.00189330944735
-0.000457514831012
-7.58869009535e-05
-8.33048073198e-06
-5.97144955032e-07
-2.91134713935e-08
-1.00715010272e-09
-3.00427345516e-11
-0.0882518177594
-0.282179988392
-0.741406979919
-1.16132187833
-1.6800290592
-3.08076689202
-2.27448989242
-0.649784394966
-0.165965754407
-0.0522092113515
-0.0206255243084
-0.00756466493233
-0.00243303072642
-0.000611886717115
-0.000107696974186
-1.26492826192e-05
-9.72819822957e-07
-5.03889307789e-08
-1.80357703494e-09
-5.23998913817e-11
-0.0516028087373
-0.154011736097
-0.386360587816
-0.638499670638
-1.01867904823
-1.96374626145
-3.33634077812
-0.982546644403
-0.246227457496
-0.0692397136359
-0.0256341156322
-0.0091617385943
-0.0029178705661
-0.000754777412481
-0.000140495330091
-1.76951476309e-05
-1.47290605436e-06
-8.19605022159e-08
-3.07618920866e-09
-8.88774301698e-11
-0.0313733900092
-0.0913234311285
-0.22917972098
-0.411261598979
-0.712628059575
-1.38729364186
-3.24401689369
-1.53866023369
-0.401686726354
-0.104062018746
-0.0340334275142
-0.0114448771091
-0.00349948285768
-0.000909374324788
-0.000176826024312
-2.38183419885e-05
-2.15076873125e-06
-1.2910091401e-07
-5.10344428777e-09
-1.47784399452e-10
-0.0205020477995
-0.0594456235508
-0.154617489102
-0.3018688746
-0.554174618669
-1.07096891859
-2.30265693491
-2.58312411653
-0.749874446815
-0.19280236071
-0.0544030543379
-0.0163573830351
-0.00461412822345
-0.00115995049295
-0.000229747936051
-3.25670033497e-05
-3.15865184496e-06
-2.02366131129e-07
-8.3632273316e-09
-2.40572092823e-10
-0.0148678732937
-0.0443625063759
-0.117994434132
-0.238839270508
-0.442587513887
-0.829253463377
-1.65938216004
-3.78266311456
-1.57354001142
-0.443613335767
-0.118568211278
-0.0306775221771
-0.00753906631656
-0.00174285585053
-0.000337567055097
-4.86526493865e-05
-4.91418416639e-06
-3.26294727599e-07
-1.37871833286e-08
-3.84116141906e-10
-0.0120651918673
-0.0362522328016
-0.0936594073064
-0.187633198414
-0.340763803452
-0.612107523403
-1.14914232599
-2.40583689124
-3.69066101323
-1.17542725791
-0.345018547511
-0.084845807493
-0.0174190739829
-0.00342377381488
-0.000612698058439
-8.53861629485e-05
-8.52686727842e-06
-5.61792744566e-07
-2.337875177e-08
-6.05965549789e-10
-0.0104793540907
-0.0301475269951
-0.0722399955497
-0.138428157354
-0.24222548111
-0.416284720269
-0.7387669953
-1.43653855398
-3.23969551006
-3.28763723235
-1.09277997239
-0.296198977391
-0.0587595766139
-0.00937079943461
-0.00145343306618
-0.000186850563046
-1.75167656688e-05
-1.08743019746e-06
-4.23940967295e-08
-9.91428616757e-10
-0.00901844312301
-0.0235669553511
-0.0509140590373
-0.0916716426492
-0.153335820729
-0.253191354605
-0.432188556858
-0.808852616545
-1.7441881434
-4.45252006329
-3.28683209102
-0.981019829018
-0.218620162445
-0.0311498941281
-0.00400493560159
-0.000471792395976
-4.14259955535e-05
-2.38444041469e-06
-8.45044730192e-08
-1.74581005678e-09
-0.00755814675175
-0.0170319409154
-0.033263040534
-0.0564198427651
-0.091865214434
-0.15033722614
-0.252581773047
-0.451493933711
-0.90925614959
-2.14768790166
-5.88874205707
-2.60179850686
-0.651307312067
-0.0994197812755
-0.0106156601891
-0.00114167876005
-9.77159464768e-05
-5.39004358906e-06
-1.76096761289e-07
-3.28635629325e-09
-0.0110221728649
-0.0208578877608
-0.0373577161116
-0.0681403121545
-0.141070397148
-0.283708866708
-0.481799750627
-0.678122355241
-0.820058803327
-1.25920281959
-3.15603042754
-5.28672481725
-1.38113484491
-0.233048693588
-0.0227473803883
-0.00219681776365
-0.000188352705765
-1.04444255427e-05
-3.29504684173e-07
-5.85864283539e-09
-0.0779475719678
-0.131762495846
-0.28991755087
-0.675740401842
-1.39976033707
-2.32191266433
-3.06404097659
-3.36755290271
-2.73715682523
-2.00070327856
-2.46980694552
-5.7678389944
-1.68006486681
-0.31337378323
-0.0327659689034
-0.00309360894487
-0.000276914799316
-1.59112370715e-05
-4.98377115061e-07
-8.66270855226e-09
-1.82216732863
-2.99913711131
-4.77473494245
-7.39288122179
-11.0358937971
-13.2955608105
-12.6738672385
-10.2022019677
-7.10089949502
-4.4737136708
-3.31338439082
-3.4404232679
-1.19140554536
-0.250596662335
-0.0301612899524
-0.00315120980422
-0.000300037317107
-1.79113169488e-05
-5.65486545807e-07
-9.72421071471e-09
-22.2913986391
-24.8854916753
-22.3929538172
-18.3286565625
-11.2383966873
-4.4855109433
-1.98487961123
-1.36657418457
-1.59262123878
-2.21244287978
-2.54540324115
-1.81529018871
-0.703869907207
-0.150803811788
-0.0202035681177
-0.00245307699876
-0.000250250232771
-1.53512185208e-05
-4.91448419586e-07
-8.67614559425e-09
-2.52088173852
-1.34047433612
-0.671862031363
-0.330687011242
-0.178019048014
-0.130533739427
-0.165212026774
-0.314922817719
-0.620702695756
-1.04110879159
-1.29629164141
-0.996982705154
-0.375504335105
-0.0830894406605
-0.0128832948714
-0.00174583649979
-0.000183224440479
-1.10158424329e-05
-3.59075084771e-07
-6.39019873158e-09
-0.0271123736706
-0.0174907769325
-0.0114579881762
-0.00922545927358
-0.0120152385099
-0.0249609826827
-0.062855211609
-0.156670092378
-0.337174617176
-0.581756916903
-0.726478478661
-0.571006651637
-0.203600443754
-0.0464927920929
-0.00791720570229
-0.00114501078458
-0.000119014459626
-6.95488339148e-06
-2.36844255176e-07
-4.04359310992e-09
-0.00106593347306
-0.00135288761053
-0.00203906201044
-0.00361843536667
-0.00757143983988
-0.0178536478445
-0.0431350593574
-0.0982484656431
-0.197828960701
-0.331827732231
-0.414870729558
-0.326083833063
-0.110835800306
-0.0260922722069
-0.00466772668015
-0.000695524278027
-7.02616511124e-05
-3.98458739603e-06
-1.39433996798e-07
-2.26371027795e-09
-0.000624716062384
-0.000910004120681
-0.00141568443863
-0.00240401288572
-0.0046700265277
-0.0103180867008
-0.0240028083224
-0.0537037177898
-0.107637742359
-0.182553105018
-0.233176711345
-0.178210821403
-0.0581890844059
-0.0137179603663
-0.00253854439749
-0.000382487314568
-3.71250947308e-05
-2.05273889936e-06
-7.29032986765e-08
-1.14179669641e-09
-0.0004742322407
-0.000662501491128
-0.000981027315889
-0.00154095948787
-0.00267853236889
-0.0053451618236
-0.0118005937152
-0.0262030738831
-0.0535515326366
-0.0940041537367
-0.124880915861
-0.0902525051457
-0.0281449847191
-0.00655523475606
-0.00125835141238
-0.000188291489058
-1.75122031764e-05
-9.53366477995e-07
-3.37868402703e-08
-5.27986575482e-10
-0.000370660081645
-0.000494079448787
-0.000699661968732
-0.00102999013409
-0.00160548957535
-0.00279774099523
-0.00558470604614
-0.011952143511
-0.0246881244293
-0.0448209598223
-0.0617126686538
-0.0410381419426
-0.0121176102025
-5.73077844474e-17
-7.57226623507e-17
-1.19464551478e-15
-4.46222343872e-16
-9.58812266991e-15
-2.78926345079e-15
-4.93884843875e-14
-1.24829046172e-14
-1.73593766173e-13
-3.91377514352e-14
-4.65184708999e-13
-9.60185803225e-14
-1.00449755041e-12
-1.9197879564e-13
-1.87165699679e-12
-3.37265974695e-13
-3.15774877586e-12
-5.42121626881e-13
-5.03308588561e-12
-8.24251752664e-13
-7.79443232785e-12
-1.20875751673e-12
-1.18938339022e-11
-1.70813793631e-12
-1.79839568109e-11
-2.26768560578e-12
-2.71206670128e-11
-2.67589712056e-12
-4.20576341208e-11
-2.13130803236e-12
-5.9183976943e-11
-8.82096103499e-12
-7.95041713613e-11
-9.95462987069e-12
-1.14268586357e-10
-1.23875914952e-11
-1.88775663234e-10
-1.84345087163e-11
-3.19751823558e-10
-2.95358050233e-11
-4.69400494498e-10
-4.23147448425e-11
-5.38034251704e-10
-4.83362604106e-11
-4.81183253622e-10
-4.33552661643e-11
-3.52342811523e-10
-3.18989553652e-11
-2.21817291676e-10
-2.02696888893e-11
-1.25189343803e-10
-1.16532754244e-11
-6.53866906077e-11
-6.31627473053e-12
-3.26160805673e-11
-3.36791605256e-12
)
;

boundaryField
{
    inletfuel
    {
        type            calculated;
        value           uniform 0;
    }
    inletair
    {
        type            calculated;
        value           uniform 0;
    }
    outlet
    {
        type            calculated;
        value           nonuniform 0();
    }
    axis
    {
        type            empty;
    }
    leftside
    {
        type            calculated;
        value           uniform 0;
    }
    burnerwall
    {
        type            calculated;
        value           uniform 0;
    }
    front
    {
        type            wedge;
    }
    back
    {
        type            wedge;
    }
    procBoundary0to1
    {
        type            processor;
        value           uniform 0;
    }
}


// ************************************************************************* //
