/*--------------------------------*- C++ -*----------------------------------*\
  =========                 |
  \\      /  F ield         | OpenFOAM: The Open Source CFD Toolbox
   \\    /   O peration     | Website:  https://openfoam.org
    \\  /    A nd           | Version:  7
     \\/     M anipulation  |
\*---------------------------------------------------------------------------*/
FoamFile
{
    version     2.0;
    format      ascii;
    class       volScalarField;
    location    "0.02";
    object      ed::R_H2;
}
// * * * * * * * * * * * * * * * * * * * * * * * * * * * * * * * * * * * * * //

dimensions      [1 -3 -1 0 0 0 0];

internalField   nonuniform List<scalar> 
814
(
-4.52245520061e-08
-5.55229018389e-08
-5.5925618034e-08
-4.74129500781e-06
-7.23918292661e-06
-2.91929594996e-05
-0.000241800935862
-0.0005432253062
-0.0049043519261
-0.00799289147131
-0.0355666706377
-1.00892751186
-0.0541195092811
-0.231746728536
-2.83070788404
-0.070220834224
-0.215044202621
-1.14528915896
-0.0687913898777
-0.155634498442
-0.428159898073
-0.0562336551273
-0.0950568373418
-0.157420935752
-0.0395974665726
-0.0522796553514
-0.0610925371289
-0.0248702173501
-0.0274461557239
-0.0274753540955
-0.0144788540248
-0.0144162167776
-0.014443457553
-0.0081150252891
-0.00780993787193
-0.00843520162778
-0.00451445644465
-0.00442229184181
-0.00520085059324
-0.00255202888939
-0.00261134226439
-0.00328095526734
-0.00148392046069
-0.00159331429791
-0.00208761015095
-0.000891767477222
-0.000996227449915
-0.00134014225645
-0.000555611754974
-0.000640411883689
-0.000881960673023
-0.000363360190207
-0.000430948289996
-0.000612845814041
-0.000256917837284
-0.000314600327974
-0.00046698814438
-0.000204500847408
-0.000257816796173
-0.000396181392747
-0.000184507245045
-0.000234420823367
-0.000360343557573
-0.000190871496786
-0.000236931005197
-0.000347464436333
-0.000428967037647
-0.000496609186237
-0.000648795805894
-0.00457845390361
-0.00497922718011
-0.00582617830414
-0.0961547705722
-0.106147035226
-0.126947377296
-2.20727059708
-2.26063694083
-2.36775647242
-0.715975450393
-0.676546348446
-0.597381547203
-0.00591438704761
-0.00568403118744
-0.00521310252069
-0.0001236966604
-0.000123974692134
-0.000125084552546
-5.01873058254e-05
-5.22876042369e-05
-5.69749108492e-05
-4.04533860301e-05
-4.1888792043e-05
-4.51053309302e-05
-3.44674658856e-05
-3.53606940492e-05
-3.7376894672e-05
-0.925920433094
-11.4062300949
-2.39375421752
-0.554744325828
-0.156731272267
-0.0606696050914
-0.0356910419858
-0.0226100430827
-0.0142513389521
-0.00886841779183
-0.00546382618904
-0.00335907309206
-0.00209604618248
-0.00136726350767
-0.000963840263253
-0.000755485889996
-0.000651329440815
-0.000580972387656
-0.000527700001016
-0.000878380566662
-0.00705866015198
-0.157348597382
-2.51324207619
-0.500870118196
-0.0046164938284
-0.000127311886673
-6.36532853814e-05
-4.96501077711e-05
-4.02561876484e-05
-0.000370561683013
-7.41997554016e-05
-4.61747039942e-05
-2.4624577918e-05
-6.90354568811e-06
-1.77411783464e-06
-4.16776091835e-07
-9.03480078756e-08
-1.78522662591e-08
-3.23214550986e-09
-5.36283678446e-10
-7.96474756469e-11
-1.00487288493e-11
-1.01404107658e-12
-7.78703523935e-14
-4.37814301649e-15
-1.76573383267e-16
-4.91328211937e-18
-9.4879343001e-20
-1.94236189605e-21
-0.00854258488549
-0.00231687808498
-0.000825662751941
-0.000357768661023
-0.000106285400875
-2.31031468867e-05
-5.06080518897e-06
-1.05491470522e-06
-2.09639558168e-07
-3.9242157316e-08
-7.00585491021e-09
-1.14132577701e-09
-1.57582485759e-10
-1.71183064349e-11
-1.38361697538e-12
-8.09984950758e-14
-3.32500324274e-15
-9.43869142767e-17
-1.85250292058e-18
-3.55329912115e-20
-0.0616816495424
-0.0117438241466
-0.00476375145847
-0.0014233576752
-0.000292410363068
-6.45995750431e-05
-1.5151752733e-05
-3.47668402511e-06
-7.86337111588e-07
-1.70979590623e-07
-3.64294751581e-08
-6.97588969819e-09
-1.09608484193e-09
-1.30685020903e-10
-1.12575184394e-11
-6.91632621721e-13
-2.91823470717e-14
-8.55573151611e-16
-1.73622825398e-17
-4.23525476153e-19
-2.56148729902
-0.673723643114
-0.0328369115638
-0.00342749763075
-0.000663753685477
-0.000168778172149
-4.74069682692e-05
-1.27016424971e-05
-3.36462052035e-06
-8.47277396316e-07
-2.07861566222e-07
-4.44743837454e-08
-7.6016896213e-09
-9.6483184071e-10
-8.71825720751e-11
-5.57163312187e-12
-2.41900553567e-13
-7.35496594525e-15
-1.57145320992e-16
-8.03861928686e-18
-2.25923904297
-10.7081438162
-1.22510556268
-0.0827330544616
-0.00486257319783
-0.000593755206916
-0.000144419974034
-4.44531623538e-05
-1.36501638987e-05
-4.00503042699e-06
-1.13063424796e-06
-2.697752041e-07
-5.03376233575e-08
-6.85381821784e-09
-6.56907264783e-10
-4.41417942749e-11
-1.99672801121e-12
-6.36386808379e-14
-1.50870553167e-15
-1.25163735692e-16
-0.643296785815
-5.6831777632
-1.08003946869
-0.0814409816209
-0.00740091106078
-0.00135030327386
-0.000407399461367
-0.000137226726137
-4.66902725608e-05
-1.61899991002e-05
-5.30652373226e-06
-1.43811516729e-06
-2.97973180372e-07
-4.41418127136e-08
-4.54445841951e-09
-3.24294750275e-10
-1.54585744157e-11
-5.20655261632e-13
-1.41949054753e-14
-1.31112777976e-15
-0.241109217631
-1.84050947182
-0.729808182001
-0.0525709652677
-0.0103737753041
-0.00342467417204
-0.00119752872712
-0.000424993287805
-0.000155010414902
-5.57801945164e-05
-2.08419467344e-05
-6.37937445506e-06
-1.47642821249e-06
-2.4084253607e-07
-2.68829074945e-08
-2.05041145246e-09
-1.03729514906e-10
-3.71570415296e-12
-1.125479679e-13
-9.20778363572e-15
-0.127269267901
-1.053493503
-0.839233457779
-0.0547898672565
-0.0201007555369
-0.00992454741236
-0.00381792950948
-0.00136426733329
-0.000478278485004
-0.000179947822979
-6.76635803224e-05
-2.30217748542e-05
-5.91647157261e-06
-1.05659007036e-06
-1.27631936099e-07
-1.03947205495e-08
-5.58947116297e-10
-2.13627744174e-11
-6.90151387511e-13
-4.45587687237e-14
-0.0944902445928
-0.742507976277
-0.89745499392
-0.0868914027081
-0.0464728929756
-0.0272962427502
-0.0112188068114
-0.00393027177859
-0.00134030463358
-0.000496754822778
-0.000191092633745
-6.82034515869e-05
-1.83974177699e-05
-3.63943573344e-06
-4.73326190687e-07
-4.09958239225e-08
-2.33764685428e-09
-9.48761090243e-11
-3.16629961096e-12
-1.60182027438e-13
-0.0914538036062
-0.638563962656
-1.25649597551
-0.193569531412
-0.110793995511
-0.0651759649794
-0.0275026882826
-0.0093939805788
-0.00314433182555
-0.00116752686981
-0.000447214916406
-0.000162184670156
-4.76656650362e-05
-9.88279403646e-06
-1.37123003673e-06
-1.25860523908e-07
-7.58589789562e-09
-3.234631035e-10
-1.09185226598e-11
-4.48299502549e-13
-0.0570416481469
-0.284036693588
-1.0754433785
-0.514178871788
-0.266609342088
-0.141102184718
-0.0574044576886
-0.018812410259
-0.00605138533365
-0.0022603164562
-0.000873980411861
-0.000319784142273
-9.75319440142e-05
-2.14124399839e-05
-3.1570570776e-06
-3.06730404807e-07
-1.95211579469e-08
-8.68262507745e-10
-2.93721964007e-11
-1.03230291618e-12
-0.0333769190355
-0.136471504482
-0.431066935021
-0.666351699116
-0.60995658334
-0.284192458841
-0.107836499387
-0.033209088826
-0.00988046187198
-0.00363462498324
-0.00143496078396
-0.000527473546003
-0.00016501548838
-3.80987781405e-05
-5.95703279772e-06
-6.13891575634e-07
-4.13459631696e-08
-1.91847712303e-09
-6.52244905801e-11
-2.06584047004e-12
-0.0192665912871
-0.0685005594508
-0.194816329678
-0.298754888855
-0.401315247078
-0.524628263777
-0.183363218399
-0.0536506261924
-0.0146142745578
-0.00507014589249
-0.0020312035687
-0.000748625569574
-0.000238571910977
-5.76504742463e-05
-9.56234756232e-06
-1.04970622228e-06
-7.52449702564e-08
-3.66852683022e-09
-1.26908849994e-10
-3.78562131138e-12
-0.0111204245241
-0.0355569023142
-0.0934231222785
-0.146335708703
-0.21169690127
-0.388200907006
-0.286603651026
-0.0818779545239
-0.0209129929822
-0.00657877207561
-0.00259897860651
-0.000953207396355
-0.000306581045523
-7.71025484544e-05
-1.35706674754e-05
-1.59390929527e-06
-1.22582964197e-07
-6.34940237837e-09
-2.27264919858e-10
-6.60279926211e-12
-0.00650236056735
-0.0194066924691
-0.0486844788581
-0.0804559903271
-0.128361587985
-0.247447504645
-0.420405230756
-0.123808620354
-0.0310266000901
-0.00872474957578
-0.00323010058453
-0.00115445126383
-0.000367674686201
-9.51079021496e-05
-1.77035187936e-05
-2.2297280517e-06
-1.85597770385e-07
-1.03276691856e-08
-3.87624082827e-10
-1.11992566181e-11
-0.00395329438555
-0.0115074720151
-0.0288784509409
-0.0518222025021
-0.089796751517
-0.174809931724
-0.408771693741
-0.19388331517
-0.0506156930946
-0.013112634444
-0.00428848007414
-0.00144214470943
-0.000440962418455
-0.000114588331433
-2.22814725767e-05
-3.00129879584e-06
-2.71013809708e-07
-1.62677325713e-08
-6.43074198991e-10
-1.8621998976e-11
-0.0025834195933
-0.00749061704074
-0.0194830221214
-0.0380378571387
-0.0698303692382
-0.134950523731
-0.290152920355
-0.325493995519
-0.094490089837
-0.0242946168677
-0.00685521358093
-0.00206115917012
-0.000581416518732
-0.000146162903338
-2.89500505178e-05
-4.10369907296e-06
-3.98015024864e-07
-2.54997273097e-08
-1.0538325519e-09
-3.0313979573e-11
-0.00187346920432
-0.00559002541112
-0.0148682285798
-0.0300956303055
-0.0557695146508
-0.104492471486
-0.209095229265
-0.476645362482
-0.198278442041
-0.0558987762919
-0.0149405290219
-0.00386560955477
-0.000949981769034
-0.000219613572097
-4.25361092081e-05
-6.1306172398e-06
-6.19225932194e-07
-4.11157071095e-08
-1.73729375211e-09
-4.84016609856e-11
-0.00152030925748
-0.00456806702611
-0.0118018234226
-0.0236432616817
-0.0429389246935
-0.0771303717867
-0.144800989125
-0.303154407984
-0.465052372673
-0.14811309769
-0.0434750559753
-0.0106912403888
-0.00219494059641
-0.000431422482421
-7.72047838551e-05
-1.07593294346e-05
-1.07445247479e-06
-7.07903131375e-08
-2.94590696404e-09
-7.63564347083e-11
-0.00132048120012
-0.00379882598511
-0.00910280874126
-0.0174430387379
-0.030522319527
-0.0524551553704
-0.0930904634115
-0.181015178736
-0.408227165348
-0.414268200171
-0.137698888397
-0.0373234054077
-0.00740416972015
-0.00118079457725
-0.000183144020413
-2.35446434577e-05
-2.20725051871e-06
-1.37024774595e-07
-5.34199028323e-09
-1.24927818866e-10
-0.00113639490518
-0.00296962209843
-0.00641557267731
-0.0115513494109
-0.0193215218061
-0.0319041060063
-0.054459164114
-0.101921804012
-0.219781451498
-0.561052616965
-0.414166746017
-0.123616229583
-0.0275478633487
-0.00392513214322
-0.000504653447511
-5.9449559949e-05
-5.22000190573e-06
-3.00458283319e-07
-1.06482295551e-08
-2.19985825366e-10
-0.000952386054235
-0.00214615877902
-0.00419140524344
-0.00710934481646
-0.0115757409812
-0.0189436752568
-0.031827293926
-0.0568917937374
-0.114573440427
-0.270625600901
-0.742027906622
-0.327847115867
-0.0820698540804
-0.0125276759385
-0.0013376568427
-0.000143860520999
-1.23129793265e-05
-6.79187969558e-07
-2.21895796887e-08
-4.1410679175e-10
-0.00138888064346
-0.00262825823269
-0.00470736663515
-0.00858621632507
-0.0177759817747
-0.0357495530308
-0.0607105655
-0.0854487608416
-0.10333387186
-0.158669478672
-0.39768470561
-0.666168990084
-0.174033874773
-0.0293659719798
-0.00286634919429
-0.000276816350689
-2.37339252783e-05
-1.31607992781e-06
-4.15201869346e-08
-7.38235167487e-10
-0.00982200834965
-0.0166031128578
-0.0365318961639
-0.085148615942
-0.176380833567
-0.292579294012
-0.386093309849
-0.424338204428
-0.344903330701
-0.252104380048
-0.311215138952
-0.726793167924
-0.211701413312
-0.039487566293
-0.00412877030072
-0.000389819106868
-3.48934469973e-05
-2.00494126276e-06
-6.279944406e-08
-1.09156954582e-09
-0.229607443368
-0.377914911336
-0.60165423102
-0.931561295051
-1.39060958904
-1.67534544049
-1.59700715105
-1.28555784846
-0.894769296457
-0.563723178532
-0.417512545043
-0.433520444712
-0.150126487829
-0.0315771543323
-0.00380056022619
-0.000397077269082
-3.78070664606e-05
-2.25696708933e-06
-7.12557612035e-08
-1.22532718368e-09
-2.80889190043
-3.13576806627
-2.82168865321
-2.30955516958
-1.41612654907
-0.565209727838
-0.250110473264
-0.172199116822
-0.200682827063
-0.278785238459
-0.320740867953
-0.228740869541
-0.0886931552983
-0.0190024687254
-0.00254580880117
-0.000309107033817
-3.15335014771e-05
-1.93437451202e-06
-6.19263738271e-08
-1.09326271901e-09
-0.317650965375
-0.168910330232
-0.0846599106973
-0.0416691694628
-0.0224318029651
-0.0164482798655
-0.0208180173605
-0.039682756846
-0.0782134312393
-0.131187912411
-0.163342962508
-0.125627677775
-0.0473165054616
-0.0104699243265
-0.00162339668323
-0.000219989157394
-2.30877234379e-05
-1.38808295914e-06
-4.52462904454e-08
-8.05215399441e-10
-0.00341637274708
-0.00220397573313
-0.00144379680721
-0.00116248057158
-0.00151401474078
-0.00314528052813
-0.00792025200602
-0.0197416663102
-0.0424866589374
-0.0733059561836
-0.0915420134728
-0.0719513380405
-0.0256552604277
-0.00585845819961
-0.00099763031164
-0.000144280382348
-1.49967598305e-05
-8.76370116702e-07
-2.98442426515e-08
-5.09524598208e-10
-0.000134316017911
-0.000170474500633
-0.000256937882558
-0.000455951372017
-0.000954061088098
-0.00224970032772
-0.00543535741365
-0.0123800809381
-0.0249280080797
-0.0418129092972
-0.0522769813976
-0.041089132736
-0.0139661843026
-0.00328783192353
-0.00058817034667
-8.76415402521e-05
-8.85352175141e-06
-5.02089413253e-07
-1.75697824346e-08
-2.85245334651e-10
-7.87191470625e-05
-0.000114667690679
-0.000178387395857
-0.000302924568913
-0.000588460145585
-0.00130016023809
-0.00302454300764
-0.0067670916646
-0.0135632037984
-0.0230031298791
-0.029382103226
-0.0224559679234
-0.00733228320607
-0.00172857111333
-0.0003198765996
-4.81964159047e-05
-4.67805450795e-06
-2.58661278346e-07
-9.18639016253e-09
-1.43875381909e-10
-5.97569996119e-05
-8.348040886e-05
-0.000123617172988
-0.000194173039317
-0.0003375161872
-0.000673532513409
-0.0014869678051
-0.00330179380793
-0.00674791513596
-0.0118452641897
-0.015735979548
-0.0113725269016
-0.00354648987689
-0.000826011239125
-0.000158562194654
-2.37262114907e-05
-2.20667560871e-06
-1.20131689426e-07
-4.25740813813e-09
-6.65304694164e-11
-4.67060913495e-05
-6.22579042409e-05
-8.81629218888e-05
-0.000129786873942
-0.000202304338881
-0.000352537413566
-0.000703716973227
-0.00150606427369
-0.00311089823788
-0.00564779415831
-0.00777628258963
-0.0051711292942
-0.00152691438081
-7.22123246604e-18
-9.54165220405e-18
-1.50534749509e-16
-5.62275318739e-17
-1.20817901756e-15
-3.51469176158e-16
-6.22333824883e-15
-1.57294435584e-15
-2.18741825789e-14
-4.93166511386e-15
-5.86169393166e-14
-1.20990978146e-14
-1.26574607499e-13
-2.41908411786e-14
-2.35843531569e-13
-4.24981707048e-14
-3.97901231041e-13
-6.83115972869e-14
-6.34208485845e-13
-1.03862216519e-13
-9.8215989892e-13
-1.52312972968e-13
-1.49871680345e-12
-2.15238841304e-13
-2.26612028441e-12
-2.85746257287e-13
-3.41741777355e-12
-3.37184125143e-13
-5.29959334297e-12
-2.68561608285e-13
-7.4576475062e-12
-1.11151060579e-12
-1.00181521403e-11
-1.25436181319e-12
-1.43987423978e-11
-1.56093415133e-12
-2.37872212526e-11
-2.32289337516e-12
-4.02912496377e-11
-3.72174419586e-12
-5.91481615129e-11
-5.33199132012e-12
-6.77965558032e-11
-6.09074973547e-12
-6.0632882019e-11
-5.4631052067e-12
-4.43979709611e-11
-4.01951976222e-12
-2.79507268275e-11
-2.55414053947e-12
-1.57748438992e-11
-1.46840453948e-12
-8.23923830969e-12
-7.95900392736e-13
-4.10988318914e-12
-4.2438396417e-13
)
;

boundaryField
{
    inletfuel
    {
        type            calculated;
        value           uniform 0;
    }
    inletair
    {
        type            calculated;
        value           uniform 0;
    }
    outlet
    {
        type            calculated;
        value           nonuniform 0();
    }
    axis
    {
        type            empty;
    }
    leftside
    {
        type            calculated;
        value           uniform 0;
    }
    burnerwall
    {
        type            calculated;
        value           uniform 0;
    }
    front
    {
        type            wedge;
    }
    back
    {
        type            wedge;
    }
    procBoundary0to1
    {
        type            processor;
        value           uniform 0;
    }
}


// ************************************************************************* //
