/*--------------------------------*- C++ -*----------------------------------*\
  =========                 |
  \\      /  F ield         | OpenFOAM: The Open Source CFD Toolbox
   \\    /   O peration     | Website:  https://openfoam.org
    \\  /    A nd           | Version:  7
     \\/     M anipulation  |
\*---------------------------------------------------------------------------*/
FoamFile
{
    version     2.0;
    format      ascii;
    class       volScalarField;
    location    "0.02";
    object      ed::R_H2O;
}
// * * * * * * * * * * * * * * * * * * * * * * * * * * * * * * * * * * * * * //

dimensions      [1 -3 -1 0 0 0 0];

internalField   nonuniform List<scalar> 
814
(
4.04127120271e-07
4.96153293596e-07
4.99751970178e-07
4.23682670776e-05
6.46894224369e-05
0.000260868624042
0.00216073596209
0.00485426762488
0.0438253455871
0.0714245707177
0.317824180558
9.01578792586
0.483612561453
2.07089144902
25.2952384216
0.62749418754
1.92163748409
10.234317183
0.614720656314
1.39075167978
3.82604180579
0.502504593209
0.849428998917
1.40671530427
0.353843419694
0.467171605438
0.545923619024
0.222240550152
0.24525916528
0.245520082267
0.129383207181
0.128823480015
0.129066903899
0.0725159599273
0.0697896952356
0.0753770593963
0.0403412350512
0.0395176510933
0.0464748611091
0.0228049596993
0.0233349847049
0.0293186542511
0.0132603304154
0.0142378750112
0.0186549084762
0.00796884450004
0.00890230002531
0.0119755267179
0.00496495307451
0.0057227280064
0.00788121078419
0.00324699086614
0.0038509589083
0.00547639728891
0.00229582076819
0.00281127217276
0.00417301146429
0.00182742193985
0.00230385387523
0.003540281512
0.00164875887768
0.00209478719139
0.00322003420201
0.00170562990491
0.00211721820528
0.00310494622551
0.00383325441437
0.00443770543724
0.00579764683229
0.0409131170853
0.0444944317237
0.0520627967728
0.859240142973
0.948531135595
1.13440323313
19.724195608
20.2010778736
21.158299248
6.39796491324
6.04562600179
5.33820842142
0.0528510311257
0.0507925684924
0.0465843444746
0.00110535478932
0.0011078392841
0.0011177570096
0.000448474345851
0.000467242636771
0.000509128462921
0.000361491925875
0.000374318730623
0.000403061759356
0.000308001674168
0.000315983571378
0.000334000363484
8.27403570909
101.926204173
21.3906153992
4.95720171762
1.40055246338
0.542144293441
0.318935564364
0.202043606733
0.127350129857
0.0792482840535
0.0488248140775
0.0300167160371
0.0187302929516
0.0122178825327
0.00861288775037
0.00675103065892
0.00582028742327
0.00519157598175
0.00471553331802
0.0078492189123
0.063076268833
1.40606888776
22.4583602875
4.47578117455
0.0412530422937
0.00113766049314
0.000568806495053
0.00044367393782
0.000359729758854
0.00331134348923
0.000663049873246
0.000412617689436
0.000220045513343
6.16901641881e-05
1.58535375085e-05
3.72431598147e-06
8.07350844294e-07
1.59528057959e-07
2.88824896932e-08
4.79223715891e-09
7.11730764424e-10
8.97955573266e-11
9.06148279938e-12
6.95850370458e-13
3.91231366791e-14
1.57786179698e-15
4.39051458976e-17
8.47842907432e-19
1.7356968389e-20
0.0763366374303
0.0207036493889
0.00737813190967
0.00319702489663
0.000949767572634
0.000206449988034
4.52234137552e-05
9.42673001809e-06
1.87334151869e-06
3.50668372065e-07
6.26044005813e-08
1.0198900356e-08
1.408158917e-09
1.52969384474e-10
1.23640173095e-11
7.2380348968e-13
2.97122674692e-14
8.43442558651e-16
1.65539875439e-17
3.17523220815e-19
0.551187934371
0.104942948527
0.0425689381807
0.0127191406631
0.00261298238948
0.000577262550425
0.000135396237827
3.10676886964e-05
7.02671753222e-06
1.52787560116e-06
3.25534211741e-07
6.23366310997e-08
9.79462683639e-09
1.16780285967e-09
1.00597315098e-10
6.18043711442e-12
2.60773791264e-13
7.64541158738e-15
1.55149557771e-16
3.78462855786e-18
22.8894801572
6.02040227426
0.293431021873
0.0306281585069
0.0059313106174
0.0015082037002
0.000423629217263
0.000113502024395
3.00662879205e-05
7.57128062202e-06
1.85745336208e-06
3.97423608009e-07
6.79287864573e-08
8.621748498e-09
7.79064473336e-10
4.97881780773e-11
2.16162614705e-12
6.57240608319e-14
1.40425240759e-15
7.18331950068e-17
20.1885862422
95.6880971052
10.9475574906
0.739303532432
0.0434520103876
0.00530580340264
0.00129053855986
0.000397233973408
0.00012197802262
3.578899826e-05
1.01033607286e-05
2.4107143469e-06
4.49817585058e-07
6.12457989382e-08
5.87013092282e-09
3.9445158465e-10
1.78427846234e-11
5.68675988684e-13
1.34818100966e-14
1.11846459111e-15
5.7485075252
50.7849422835
9.65124519534
0.727757554569
0.0661346269161
0.0120663256871
0.00364052630306
0.00122625961337
0.000417224816116
0.000144674019383
4.74191575027e-05
1.28510137833e-05
2.6626917893e-06
3.94451749418e-07
4.06093330458e-08
2.89790164267e-09
1.38137999936e-10
4.65258144533e-12
1.26845839656e-13
1.17162530183e-14
2.15455475996
16.4468139469
6.52157436302
0.469774754222
0.0927001762095
0.0306029280473
0.0107011305688
0.00379774493978
0.00138517486205
0.00049845246394
0.000186243877297
5.70061639816e-05
1.31933795988e-05
2.15217169045e-06
2.40225972582e-07
1.83225004759e-08
9.26928146026e-10
3.32035753259e-11
1.00572994407e-12
8.22808611631e-14
1.1372796513
9.41403013864
7.49939989414
0.489602888082
0.179620584175
0.0886858705688
0.0341170622952
0.0121911086837
0.00427390207881
0.00160801582931
0.000604642537072
0.00020572284661
5.28696584651e-05
9.44170110044e-06
1.14052045851e-06
9.28873431654e-08
4.9947579019e-09
1.90897999501e-10
6.16720078837e-12
3.98177673152e-13
0.844365919552
6.63505987169
8.0196682151
0.776462580502
0.415282309625
0.243919541212
0.100251387542
0.0351209541124
0.0119769777218
0.00443900684705
0.00170760598734
0.000609466832941
0.000164399538171
3.25220398461e-05
4.22964831946e-06
3.66339157162e-07
2.08892393517e-08
8.47814008579e-10
2.82940899783e-11
1.43138845154e-12
0.817232247744
5.70621496266
11.2280625831
1.72973957356
0.990056426494
0.582413177568
0.245764340879
0.083944719202
0.0280977855936
0.0104330336246
0.00399631767021
0.00144928409005
0.000425940934567
8.83127619184e-05
1.22533274823e-05
1.12469109867e-06
6.77876714137e-08
2.89047003746e-09
9.75680448871e-11
4.00600954454e-12
0.509724828186
2.53815518207
9.61017448021
4.59470835071
2.38242416731
1.26089075611
0.512966898451
0.168107915857
0.0540752493956
0.0201982140193
0.00780989907807
0.00285759479735
0.000871546580794
0.000191341811578
2.82114985932e-05
2.74094644823e-06
1.74441293401e-07
7.75880382069e-09
2.62470287065e-10
9.22467080952e-12
0.298256534891
1.21951094392
3.85201912161
5.95452649735
5.45057908992
2.53954710217
0.963628206894
0.296756802196
0.0882919216696
0.0324790509266
0.0128228261774
0.00471350971341
0.00147458031447
0.000340451122516
5.32321140423e-05
5.48574222661e-06
3.69468005527e-07
1.71435337807e-08
5.82846802898e-10
1.84603743556e-11
0.172166482782
0.612121792252
1.74088097731
2.66967714536
3.58615769374
4.68808423849
1.63853584232
0.479422616744
0.130593326631
0.0453068823901
0.0181508586042
0.00668972675621
0.00213188135833
0.000515165305258
8.54492485158e-05
9.38018695425e-06
6.72389925288e-07
3.27819982237e-08
1.13405895271e-09
3.38283558629e-11
0.0993722422835
0.317736890706
0.834830102198
1.30765758703
1.89172596047
3.46896779903
2.56109354345
0.73166234949
0.186878747389
0.0587879834271
0.023224502915
0.00851787232868
0.00273961177194
0.00068898926557
0.000121267641662
1.42431919145e-05
1.09540278715e-06
5.67383331572e-08
2.03084195479e-09
5.90026906438e-11
0.0581051693047
0.173418428566
0.435045066674
0.718955660966
1.14704063622
2.21119376609
3.75674600887
1.10635526476
0.277254057586
0.0779644632117
0.0288642162168
0.0103161898581
0.0032855452523
0.00084988531463
0.000158198848885
1.99248756826e-05
1.65850382474e-06
9.22881714015e-08
3.46381329149e-09
1.00076686788e-10
0.0353266843947
0.102830903144
0.258058171921
0.463083801481
0.802424811092
1.56210357358
3.65278858743
1.73254354886
0.452302419448
0.11717465319
0.0383219075883
0.0128870218185
0.00394044527614
0.00102396265622
0.000199107496888
2.68196407843e-05
2.42178254096e-06
1.45368646581e-07
5.74651848676e-09
1.66406398428e-10
0.0230854673928
0.0669362405915
0.174100511223
0.339906731738
0.624004987907
1.20591944232
2.59280985526
2.90861811205
0.844364536652
0.217096977578
0.0612582679189
0.0184185422053
0.00519554474218
0.00130611339629
0.000258697986569
3.66707024226e-05
3.55666686982e-06
2.27865858438e-07
9.4170598835e-09
2.70886072396e-10
0.0167413424981
0.049952531787
0.132862662712
0.268934900814
0.498357028538
0.933745934864
1.86847738931
4.25930847705
1.77181845346
0.499512112059
0.1335087403
0.0345431317319
0.00848904808559
0.00196246942263
0.000380103164305
5.47832666263e-05
5.53341009858e-06
3.67410434708e-07
1.55244770807e-08
4.32517802891e-10
0.0135855011248
0.0408202998277
0.105461230729
0.211276460095
0.383702728146
0.68923789519
1.29394331512
2.70899129922
4.1557133859
1.3235403556
0.388493603486
0.0955370478818
0.0196140145793
0.0038551962973
0.000689902842294
9.61454923831e-05
9.60131975321e-06
6.32583057704e-07
2.63246587341e-08
6.82321984497e-10
0.0117998352909
0.0339463529802
0.081342804291
0.155871196092
0.272747800637
0.46873987564
0.831857458711
1.61755373271
3.64792267541
3.70190543252
1.23047886079
0.333522382799
0.066163746334
0.0105515940119
0.00163657708659
0.000210395206504
1.97240161875e-05
1.22445497205e-06
4.77360870127e-08
1.11635643562e-09
0.0101548380282
0.0265365774496
0.0573296317146
0.10322299206
0.172657342535
0.285095460612
0.486647720972
0.910774420558
1.9639695949
5.01357268025
3.70099883703
1.1046360586
0.246168025793
0.0350750262713
0.0045095890491
0.000531241955925
4.66459974592e-05
2.684898698e-06
9.51527025743e-08
1.96579588214e-09
0.00851053280599
0.0191780996944
0.0374544457774
0.0635291875815
0.103440955415
0.169280901397
0.284409066973
0.508385727448
1.02382959002
2.41831350256
6.63076996369
2.92964562273
0.733377166148
0.111947457214
0.0119533170318
0.00128553928105
0.000110028925803
6.06923155862e-06
1.98286340977e-07
3.700463085e-09
0.0124110535084
0.0234861459935
0.0420650827468
0.0767265284795
0.158846378923
0.319458419739
0.542510316127
0.763571116083
0.923392675187
1.41787229826
3.55371513315
5.95289380733
1.55516871968
0.262414665568
0.0256137295826
0.00247363411434
0.000212086631044
1.17605054705e-05
3.71024871108e-07
6.59687800288e-09
0.0877695803174
0.148365608704
0.326449447034
0.760889017784
1.57614117064
2.61449195835
3.45013428643
3.79189110714
3.08206015593
2.2528076586
2.78102208447
6.49463216232
1.89176628013
0.352861349523
0.0368947392041
0.00348342805173
0.000311808246313
1.79161783343e-05
5.61176559121e-07
9.75427809809e-09
2.051774772
3.37705202265
5.37638917347
8.32444251684
12.4265033861
14.970906251
14.2708743896
11.4877598162
7.99566879148
5.03743684933
3.73089693586
3.87394371261
1.34153203319
0.282173816667
0.0339618501786
0.0035482870733
0.000337844383567
2.01682840381e-05
6.3674230701e-07
1.09495378984e-08
25.1002905395
28.0212597416
25.2146424705
20.6382117321
12.6545232364
5.05072067113
2.2349900845
1.53877330139
1.79330406585
2.49122811824
2.8661441091
2.04403105825
0.792563062506
0.169806280513
0.0227493769189
0.00276218403258
0.000281783734249
1.72855930328e-05
5.53374793413e-07
9.76940831326e-09
2.83853270389
1.50938466635
0.756521942061
0.372356180704
0.200450850979
0.146982019293
0.186030044135
0.354605574565
0.698916126995
1.17229670401
1.45963460392
1.12261038293
0.422820840566
0.093559364987
0.0145066915546
0.00196582565719
0.000206312163917
1.2403925392e-05
4.04321375216e-07
7.19541413102e-09
0.0305287464177
0.0196947526657
0.0129017849834
0.0103879398452
0.0135292532507
0.0281062632108
0.070775463615
0.176411758688
0.379661276113
0.655062873087
0.818020492134
0.642957989678
0.229255704181
0.0523512502925
0.00891483601393
0.00128929116693
0.000134011219456
7.83125350819e-06
2.66688497827e-07
4.55311770812e-09
0.00120024949097
0.00152336211116
0.00229599989299
0.00407438673868
0.00852550092798
0.0201033481723
0.0485704167711
0.110628546581
0.222756968781
0.373640641529
0.467147710956
0.367172965799
0.124801984608
0.0293801041304
0.00525589702682
0.000783165818279
7.91151728638e-05
4.48667680929e-06
1.57003779233e-07
2.5489556126e-09
0.000703435209446
0.00102467181136
0.00159407183449
0.00270693745463
0.00525848667328
0.0116182469389
0.0270273513301
0.0604708094544
0.121200946158
0.205556234897
0.262558814571
0.200666789326
0.065521367612
0.0154465314796
0.00285842099709
0.000430683730473
4.18031492387e-05
2.31140017771e-06
8.2089688839e-08
1.28567207832e-09
0.000533989240312
0.000745981899987
0.00110464448888
0.00173513252719
0.00301604855609
0.00601869433701
0.0132875615203
0.0295048676911
0.0602994477725
0.105849417926
0.140616895409
0.101625032047
0.031691474596
0.00738124599518
0.00141691360703
0.000212017700548
1.97188787851e-05
1.07349816742e-06
3.80442484084e-08
5.94517044898e-10
0.000417366172994
0.000556337353028
0.000787824890621
0.00115977700803
0.00180779391423
0.00315027840879
0.00628842301937
0.0134582077847
0.0277990226672
0.0504687539806
0.0694889512434
0.0462092712368
0.0136445245833
6.45290169135e-17
8.52643145548e-17
1.34518026429e-15
5.02449875746e-16
1.07963016875e-14
3.14073262695e-15
5.56118226363e-14
1.4055848973e-14
1.95467948752e-13
4.40694165491e-14
5.23801648315e-13
1.08117678137e-13
1.13107215791e-12
2.16169636818e-13
2.10750052836e-12
3.797641454e-13
3.5556500069e-12
6.10433224168e-13
5.66729437146e-12
9.28113969184e-13
8.77659222677e-12
1.3610704897e-12
1.33925507056e-11
1.92337677762e-12
2.02500770954e-11
2.55343186307e-12
3.05380847863e-11
3.0130812457e-12
4.73572274638e-11
2.39986964065e-12
6.66416244492e-11
9.93247164078e-12
8.95223235016e-11
1.12089916839e-11
1.28667328754e-10
1.39485256466e-11
2.12562884487e-10
2.07574020915e-11
3.60043073196e-10
3.32575492192e-11
5.28548656011e-10
4.76467361626e-11
6.05830807507e-10
5.4427010146e-11
5.41816135641e-10
4.8818371371e-11
3.96740782484e-10
3.59184751274e-11
2.49768018503e-10
2.28238294288e-11
1.40964187702e-10
1.31216799638e-11
7.36259289174e-11
7.11217512326e-12
3.67259637564e-11
3.79230001673e-12
)
;

boundaryField
{
    inletfuel
    {
        type            calculated;
        value           uniform 0;
    }
    inletair
    {
        type            calculated;
        value           uniform 0;
    }
    outlet
    {
        type            calculated;
        value           nonuniform 0();
    }
    axis
    {
        type            empty;
    }
    leftside
    {
        type            calculated;
        value           uniform 0;
    }
    burnerwall
    {
        type            calculated;
        value           uniform 0;
    }
    front
    {
        type            wedge;
    }
    back
    {
        type            wedge;
    }
    procBoundary0to1
    {
        type            processor;
        value           uniform 0;
    }
}


// ************************************************************************* //
