/*--------------------------------*- C++ -*----------------------------------*\
  =========                 |
  \\      /  F ield         | OpenFOAM: The Open Source CFD Toolbox
   \\    /   O peration     | Website:  https://openfoam.org
    \\  /    A nd           | Version:  7
     \\/     M anipulation  |
\*---------------------------------------------------------------------------*/
FoamFile
{
    version     2.0;
    format      ascii;
    class       volScalarField;
    location    "0.02";
    object      epsilon;
}
// * * * * * * * * * * * * * * * * * * * * * * * * * * * * * * * * * * * * * //

dimensions      [0 2 -3 0 0 0 0];

internalField   nonuniform List<scalar> 
814
(
17261.8157182
22070.7076864
57156.6634318
22177.3481922
26839.0636914
49038.7550596
24182.5720939
30688.5368896
45970.5951921
28169.7409575
47353.9303669
171559.697454
34513.4229765
69677.0049698
264635.998886
43657.4700072
97684.6105421
313146.179201
55443.6175364
127573.273948
332541.418776
69117.5503845
154117.288462
327973.64869
83289.5422225
172749.346175
306716.507618
95796.1137587
180431.564939
276150.368876
104623.746334
177720.394348
243544.696097
108896.979933
168001.982594
213592.500241
108834.798464
154628.422861
187295.142905
105217.969726
139767.370011
164083.473918
98930.5432531
124556.326864
143198.084785
90789.3000517
109533.824658
124006.147188
81476.3890647
94981.370892
106114.287846
71477.6251821
81027.6048245
89354.9676366
61288.6245706
67902.1142246
73904.0021546
51398.0778788
55847.3999605
59999.6228882
42235.3169453
45098.3276909
47785.6098095
34289.8178234
36016.1300878
37599.5840366
28193.426683
29173.3646672
30057.882842
26422.7683865
26972.7881681
27504.6290451
35943.8157117
36227.9540462
36360.8999583
14485.1929482
14055.4361684
13100.3916743
684.692399998
663.487071578
620.519717154
234.964100305
237.618734121
243.076782363
235.868209039
239.99230392
248.858116581
241.507332991
246.024694421
255.733882044
232.869397651
236.830321752
245.294863058
212.952344825
215.968214709
222.498715582
4146.5980657
138276.162932
247583.329932
284543.855436
278897.441369
256656.50635
229216.520881
203491.916609
181724.376632
163330.752026
147026.808432
131672.807986
116574.907695
101497.802041
86485.6702559
72098.9108098
58803.6137127
46910.2395609
36952.2726047
29661.4776731
27447.5254253
36121.494771
11871.7897818
568.92149132
250.445671075
260.290638798
267.86958988
255.284612828
229.947947974
0.803070988375
0.335409020015
0.322737059452
0.323204551877
0.29921111935
0.278735494769
0.250197847085
0.22478289492
0.199627731088
0.176134938786
0.154341980511
0.134255371529
0.116627132489
0.101586270979
0.0897660858968
0.0801629550853
0.0742006891349
0.0696744398583
0.0713911087192
0.225802568857
0.938447005004
0.870695014115
0.734526913518
0.659246289637
0.550919940184
0.473571075862
0.401848139242
0.341341446356
0.288406223254
0.242949175284
0.204167249385
0.171672409755
0.144820431608
0.123376194363
0.106752733955
0.0941508233732
0.0857592879871
0.0802148670448
0.0839484676448
0.240777535246
2.51726906563
1.47117617692
1.09727849462
1.03011444946
0.779635204104
0.646293743939
0.523790764495
0.428136065961
0.349636719912
0.286182677777
0.234836748413
0.194361008564
0.162207692995
0.137701579925
0.118826904868
0.105210405429
0.0955762084548
0.0900819194899
0.0946276387489
0.255133287576
370.590059801
18.918147551
2.83059663038
1.57844981464
1.17818419329
0.87166939475
0.687693915074
0.533906009048
0.42040298305
0.332634006478
0.266651172502
0.217851004347
0.181080631319
0.15444904269
0.134164624247
0.120264535403
0.109715648653
0.104890984731
0.107512258825
0.341145770071
19629.1173128
1126.58085188
95.4336811387
14.4181041201
3.33601506448
1.35425411528
0.940619665227
0.677785876447
0.512688136461
0.389262985521
0.304888758823
0.246253739864
0.205015182053
0.176709202711
0.1556561076
0.141933551629
0.130825533005
0.126753833678
0.127231601673
0.466638130953
28554.77032
1740.76529082
129.227455798
17.9133891894
4.28516468415
1.83712852224
1.2315867607
0.868224956882
0.639322664674
0.468225825122
0.359464539916
0.287445953769
0.240598524359
0.210167363816
0.188457089557
0.175029908895
0.163561749473
0.160050505042
0.159634232587
0.627770185391
31426.3225831
1689.07054222
96.2694625675
15.4489659486
4.78722469986
2.53104399048
1.6481327118
1.13759909641
0.809328327978
0.579043281645
0.438532484545
0.348897558598
0.29476015074
0.261280004158
0.238670480457
0.225481308718
0.213753491078
0.210791929367
0.211286733149
0.811791983163
35484.1801405
1839.10102287
82.2229296072
15.1689428467
6.45846568441
4.10834326756
2.50846331452
1.60649860858
1.0629213332
0.736626554832
0.549520776006
0.437944999859
0.374981346605
0.33755235252
0.313672715871
0.300582909468
0.288754293488
0.28661483075
0.291497505847
1.03752876013
38314.1724438
2019.98595164
90.8371764656
20.7529693858
11.5098026361
8.11347656857
4.56595771361
2.57315941169
1.50266803233
0.976516235926
0.704160745539
0.563254526794
0.49040635385
0.44885906551
0.423470400462
0.410302883623
0.398708048486
0.397909401438
0.413568424953
1.33867694381
40294.3244413
2526.80975582
153.225679571
39.4741415373
24.9585113891
17.9693699595
9.37996183274
4.61044028552
2.30782610018
1.35311831184
0.923834207503
0.736172524952
0.652586303279
0.608624767005
0.582144830586
0.568819993622
0.558068309278
0.559432802066
0.595932866537
1.75355177492
44017.4681003
3456.99348342
296.727349915
85.1850942201
56.2948797493
39.3453316083
19.538957675
8.68328733228
3.759209942
1.9428876629
1.23568415747
0.970402324505
0.875118134566
0.833265984812
0.807735821949
0.794575398804
0.785664453229
0.790312472982
0.861011324798
2.29564779855
49303.5789526
4867.44658325
543.723019836
174.621400065
113.903754484
76.4966746357
37.9805353207
15.9494208647
6.23695404018
2.84492524258
1.67115293987
1.28094664305
1.17086822945
1.13884675487
1.11894003366
1.10717400573
1.10152125247
1.11060975589
1.22960154914
2.95918919712
55638.1242531
6903.43592015
941.733720558
322.680607565
197.970469443
126.154688625
66.0097575975
27.3446365824
10.1521582983
4.1834754143
2.2700584419
1.68432308273
1.54931033997
1.53569553838
1.52895306943
1.52116933324
1.52043368918
1.53464843548
1.71197352568
3.7214334323
61972.0016001
9665.72378048
1549.63075056
530.349660841
300.14217039
182.749542112
100.971255208
43.407950047
15.9230700247
6.12636859043
3.0932015788
2.20419534765
2.01629859297
2.02404815489
2.03893095301
2.03902032322
2.04463868614
2.06364813663
2.30016936011
4.54833490774
66861.962818
13091.8708951
2405.63112855
801.411104345
419.630011691
245.48546985
139.858660939
65.6033618812
24.507474432
9.03908288662
4.26960733785
2.88668058181
2.57862301482
2.59351909578
2.63446861217
2.64643413542
2.65899384126
2.68104183404
2.96587972393
5.40505992176
68625.5121419
16941.0516563
3515.26765148
1147.21985688
568.301854143
322.979575501
187.757986419
97.5693321449
38.3994489733
13.816965046
6.09432255633
3.82824862947
3.25507479465
3.22764267608
3.28713248388
3.31285214534
3.33139898546
3.35332356821
3.66584573819
6.2720394447
66163.6963254
20602.4964851
4868.74863933
1595.86994604
764.564937569
430.687094402
259.473066133
148.104472563
64.2075814897
22.8998299992
9.2893075768
5.23908558506
4.09657254208
3.91390578958
3.96175510373
3.99770856478
4.01944865454
4.03692945861
4.35331520789
7.15554811854
60759.9700896
22777.6322511
6264.72595554
2150.74251019
1031.24963742
590.788420129
371.215084009
235.262531917
117.411066837
43.1507388031
15.9369734394
7.67185287332
5.24093500501
4.66195853747
4.62806239701
4.66073285429
4.68111926209
4.68904658804
4.99048568727
8.09194119183
53722.5889435
23124.0110222
7461.40512268
2806.54046086
1404.50999565
843.155297417
566.263754565
395.674228035
233.62805109
96.3559336506
33.8551433457
13.1780439054
7.15825010585
5.55444960064
5.27506840236
5.27253563507
5.28457345683
5.27729647408
5.55726776939
9.15438575839
45899.961675
22165.7800743
8404.76271174
3582.65830128
1945.56680155
1260.56427629
921.225726613
709.457534691
490.899951866
250.262734822
91.8375327263
29.5529802328
11.7487693544
6.96746331406
5.95193809127
5.82397817236
5.81337676325
5.78461353581
6.05122904048
10.4617833028
38087.1371961
20547.6969775
9195.79755235
4549.59913925
2773.9084843
1990.7450969
1591.31447207
1333.81863441
1051.07223885
669.723216837
288.920849949
86.0971650104
25.5076994005
10.1905076497
6.86300870964
6.33527617778
6.26543915273
6.20722192168
6.48276060429
12.1769818217
31182.1745204
19185.5754881
10280.2495178
6045.29238588
4249.32758011
3412.72124992
2913.47003551
2514.15468779
2104.85472006
1573.13759806
840.477757062
273.578537802
66.4216357234
18.4144149264
8.51836477517
6.8735860937
6.65132153171
6.55153289948
6.86857046255
14.5017032316
26203.2873091
18559.3532394
12367.4482234
8966.1122821
7419.42795495
6415.5955116
5300.6858664
4158.42455577
3321.62857413
2718.50060088
1849.17581872
743.339357529
169.111033545
35.9097160818
11.4415940644
7.50929757789
6.98007195838
6.826422825
7.2385538562
17.6672365687
25934.6549305
22166.4545666
18966.6585754
16356.4960929
13225.5492611
9587.28262108
6371.75156856
4164.45175178
3114.40953695
2808.54652223
2427.91223523
1279.16877764
313.576859831
57.8872321586
14.8884748307
8.17828644008
7.25436273454
7.04109789501
7.64808294796
22.0295781439
34340.3159458
29121.1926106
21914.2785944
14379.1700619
8010.17201992
4193.47596849
2321.7582545
1516.67725849
1365.8652888
1739.33484445
2097.20145079
1355.81165382
352.245666524
65.7710134598
16.3988578857
8.58725754313
7.43627759557
7.19918438252
8.18478798058
28.1259783604
9039.11093641
5740.07915831
3391.53893134
1954.00909636
1161.18960385
795.218115688
700.868714316
784.323118979
1008.65062552
1385.05203537
1642.762563
1105.75374661
299.831507252
56.1622282904
15.0728499325
8.50988354136
7.50684096248
7.31231592823
8.99491201718
36.7239828679
463.53202815
389.06061223
369.899823505
398.659103952
472.321445843
589.465539357
750.059851105
952.55420148
1177.31028962
1381.90367056
1368.6159033
819.006329444
212.684228482
42.5366313167
13.2607178817
8.30637041521
7.52856551354
7.42171138995
10.2742229941
48.8837349976
266.762484857
299.366998378
353.298662383
443.137311824
577.897715202
745.916068018
913.702258196
1077.78674487
1226.4789866
1284.55348152
1079.06810606
595.204576896
146.056823082
31.6222955986
11.6040851827
8.11411716068
7.53071191586
7.57455750727
12.2441106525
65.959712111
283.824630756
330.488178787
401.943590861
506.209717596
631.477023036
752.689268137
854.690800984
944.024213455
1013.02960922
1014.75452166
795.960368269
409.049883989
94.7119553197
23.6024470217
10.3115579564
7.95089766613
7.52824993614
7.81131115997
15.1295568026
89.603458766
291.434708415
334.971580909
394.27076208
471.142260966
559.512531128
638.330116589
689.525917785
709.974192794
710.977802878
682.374370325
523.233327957
244.509840137
57.936088592
17.5912881018
9.29561779266
7.80654460852
7.52786423182
8.17908329196
19.101715147
121.256796545
273.145978467
302.191817334
339.831140639
390.007092914
448.383426414
497.764579232
519.341676677
502.837445653
463.423826798
409.655053859
305.379061817
128.688109178
34.843996886
13.3635738944
8.55726957395
7.67730397328
7.54391279019
8.72743019675
24.1045915889
161.408956126
242.626639875
261.02495088
282.504340388
311.055201392
345.929911654
374.765750038
380.160014656
351.475269148
299.111929186
238.02672093
164.78841751
65.2876058375
21.7675617381
2.32287274688
6.31448063419
7.9565800773
6.92282262764
8.93439605203
7.36096360231
8.627395818
7.61627265696
8.33484275388
7.81440049734
8.17363582314
7.98059716614
8.22836749049
8.14998303589
8.4799321329
8.32975712117
8.91331497506
8.52370560117
9.50488467858
8.74170263377
10.2623820678
9.02315208862
11.265254886
9.43043541604
12.709708681
10.0185213378
14.9274279083
10.9701256705
18.7107473348
52.4105184972
22.7602704304
60.9903436845
27.8366627558
73.005735571
34.9154132229
88.6214389352
44.2243082467
107.809971317
55.8158019237
130.048018511
70.1880928097
155.118437573
88.1267380667
183.359766191
110.677914285
215.282825674
138.975174761
251.604191142
174.417588147
293.473118857
218.632291582
342.455266819
273.329111157
401.094904575
340.550596773
473.119877122
)
;

boundaryField
{
    inletfuel
    {
        type            turbulentMixingLengthDissipationRateInlet;
        mixingLength    0.005;
        phi             phi;
        k               k;
        value           uniform 1630.0935556;
    }
    inletair
    {
        type            turbulentMixingLengthDissipationRateInlet;
        mixingLength    0.005;
        phi             phi;
        k               k;
        value           uniform 0.0603738353925;
    }
    outlet
    {
        type            inletOutlet;
        inletValue      nonuniform 0();
        value           nonuniform 0();
    }
    axis
    {
        type            empty;
    }
    leftside
    {
        type            epsilonWallFunction;
        value           nonuniform List<scalar> 
33
(
2.32287274688
6.31448063419
0.225802568857
0.240777535246
0.255133287576
6.31448063419
6.92282262764
7.36096360231
7.61627265696
7.81440049734
7.98059716614
8.14998303589
8.32975712117
8.52370560117
8.74170263377
9.02315208862
9.43043541604
10.0185213378
10.9701256705
52.4105184972
60.9903436845
73.005735571
88.6214389352
107.809971317
130.048018511
155.118437573
183.359766191
215.282825674
251.604191142
293.473118857
342.455266819
401.094904575
473.119877122
)
;
    }
    burnerwall
    {
        type            epsilonWallFunction;
        value           nonuniform List<scalar> 7(57156.6634318 49038.7550596 45970.5951921 0.803070988375 0.938447005004 2.51726906563 4146.5980657);
    }
    front
    {
        type            wedge;
    }
    back
    {
        type            wedge;
    }
    procBoundary0to1
    {
        type            processor;
        value           nonuniform List<scalar> 
27
(
192.866888962
195.200748413
200.323668037
205.876648901
10.6724017898
8.0745078734
7.57531654586
7.59728565478
9.50121928497
29.9915636007
208.977266487
214.590728841
224.463371501
233.664763211
246.571035144
263.721114326
277.026141654
273.367106966
244.180911189
195.552178809
141.348962432
87.7992089411
35.2690761538
10.6724017898
14.9309500772
418.184973148
563.073225882
)
;
    }
}


// ************************************************************************* //
