/*--------------------------------*- C++ -*----------------------------------*\
  =========                 |
  \\      /  F ield         | OpenFOAM: The Open Source CFD Toolbox
   \\    /   O peration     | Website:  https://openfoam.org
    \\  /    A nd           | Version:  7
     \\/     M anipulation  |
\*---------------------------------------------------------------------------*/
FoamFile
{
    version     2.0;
    format      ascii;
    class       volScalarField;
    location    "0.02";
    object      H2;
}
// * * * * * * * * * * * * * * * * * * * * * * * * * * * * * * * * * * * * * //

dimensions      [0 0 0 0 0 0 0];

internalField   nonuniform List<scalar> 
814
(
0.999999976496
0.999999981622
0.999999992911
0.999997562554
0.99999745979
0.999998015041
0.999872821696
0.99978660217
0.999484837584
0.995918665856
0.987450398381
0.896346915264
0.988271856745
0.970106190224
0.851424385116
0.975299976232
0.944933285477
0.805118231713
0.955033405275
0.910443258851
0.756181477948
0.926032879705
0.867542945593
0.707814159184
0.88788460187
0.819050870299
0.662663169556
0.842135720075
0.7688195096
0.622632795579
0.791988038884
0.72017756131
0.588321066843
0.740710641297
0.674817647394
0.558821300125
0.690739706813
0.633194105516
0.5331542159
0.64355444061
0.595121822269
0.510432054704
0.599927509005
0.560199714054
0.489681189066
0.560337194258
0.52826167671
0.470242152097
0.52493549104
0.499218840022
0.451717440215
0.49313361309
0.472435136093
0.433363337565
0.463556928723
0.446659883789
0.414118117522
0.434405659831
0.420366879953
0.39292106401
0.404548532837
0.392839845614
0.369735565669
0.374368900824
0.364879215552
0.346071435546
0.344605933918
0.337400714425
0.323111696055
0.312619650983
0.307718104928
0.297966494015
0.256022810233
0.252148241928
0.244283650355
0.0846049092182
0.0818540932605
0.0762516149115
0.00232769095481
0.00223593349555
0.00204923242607
3.39788830793e-05
3.25876504031e-05
2.97927858761e-05
6.81796954657e-07
6.79932659992e-07
6.79175464213e-07
2.60007082952e-07
2.69194960514e-07
2.89805557814e-07
2.00638378786e-07
2.06387077294e-07
2.19339386899e-07
1.6623834645e-07
1.6943503834e-07
1.76783657744e-07
0.278025908305
0.420086965667
0.493230510656
0.508002388565
0.500011210208
0.483402988455
0.465358127185
0.450050233771
0.437866377547
0.428327769948
0.420690351041
0.413801204876
0.406650488481
0.398452558148
0.388461822307
0.375834569577
0.360032656011
0.341742142189
0.323175955122
0.305660871466
0.285910133056
0.234011187189
0.0691240906301
0.00181379367566
2.62969278643e-05
6.83874647744e-07
3.19571086177e-07
2.38193477552e-07
1.8781366356e-07
3.95793210084e-06
2.96168889681e-06
1.26582435851e-06
4.37639551927e-07
1.31478334886e-07
3.60275585452e-08
9.17954584019e-09
2.16089761999e-09
4.66378917053e-10
9.24026160634e-11
1.67995766309e-11
2.73127235525e-12
3.75834820893e-13
4.10635292763e-14
3.37632861796e-15
2.01021895099e-16
8.43416176424e-18
2.41370977937e-19
4.53154819034e-21
2.93575124298e-23
0.000183958287523
8.15115201422e-05
2.19035683692e-05
5.76653243571e-06
1.44740242611e-06
3.53536240673e-07
8.66030652544e-08
2.01535703956e-08
4.47311220907e-09
9.34061409811e-10
1.85630568412e-10
3.34882387355e-11
5.08912403582e-12
6.02183221866e-13
5.24394678672e-14
3.25974909629e-15
1.40025749805e-16
4.08769799673e-18
7.68196205185e-20
5.22941478021e-22
0.00161579656093
0.000212412552525
4.90083833619e-05
1.29372092437e-05
3.24220218723e-06
8.32733159952e-07
2.2424900723e-07
5.86083224406e-08
1.50164128204e-08
3.68122642525e-09
8.78997960388e-10
1.86987741028e-10
3.2351936427e-11
4.19236630851e-12
3.88148453897e-13
2.52114081458e-14
1.11204851861e-15
3.33708039903e-17
6.47649044822e-19
6.10595635876e-21
0.0246008335366
0.00065213318001
0.000110039112646
2.23895505222e-05
5.47824139885e-06
1.75115020628e-06
5.80839372313e-07
1.83831781959e-07
5.63410731783e-08
1.62506075536e-08
4.50017168055e-09
1.07147765215e-09
2.00977774658e-10
2.75366478024e-11
2.65394017458e-12
1.77702368463e-13
8.02659026479e-15
2.47832455476e-16
5.15178632251e-18
1.02122514495e-19
0.115110238283
0.0052382736252
0.000397092933829
6.9371361862e-05
1.59310605661e-05
4.21551477847e-06
1.35319470137e-06
5.22710747532e-07
1.9215637037e-07
6.62788636219e-08
2.13217754383e-08
5.66818792605e-09
1.15291392616e-09
1.67715371512e-10
1.69456626362e-11
1.17900991102e-12
5.50548368876e-14
1.76834468385e-15
4.14677594884e-17
1.33790731425e-18
0.14183109043
0.00780020736694
0.000451401526653
6.55140634283e-05
2.01352811785e-05
7.21063898567e-06
2.90143926459e-06
1.25348913832e-06
5.26688353771e-07
2.21463401927e-07
8.36811767454e-08
2.52956860239e-08
5.66291865455e-09
8.85462449951e-10
9.48039214589e-11
6.919033952e-12
3.37441615159e-13
1.13869481238e-14
3.10040639828e-16
1.21905578063e-17
0.152034551987
0.0114127779896
0.000425030021074
5.80199919959e-05
2.89881502769e-05
1.44128356026e-05
6.4239818031e-06
2.92378406199e-06
1.36171397703e-06
6.08155127144e-07
2.65324489306e-07
9.0619965551e-08
2.24358342462e-08
3.81644360789e-09
4.3740756938e-10
3.37667478955e-11
1.7331901954e-12
6.19550044731e-14
1.8811555656e-15
7.78161709137e-17
0.16989037378
0.0208862214336
0.000674145791669
8.90793273547e-05
5.95104314891e-05
3.42716556597e-05
1.53075766465e-05
6.90002536831e-06
3.18326147619e-06
1.52828016078e-06
6.81757302479e-07
2.59398493676e-07
7.06961545638e-08
1.30329889903e-08
1.60086386211e-09
1.31064780343e-10
7.10402251612e-12
2.70391433316e-13
8.75203922426e-15
3.49127771353e-16
0.18381783274
0.0314550802851
0.00106362033041
0.000211321705318
0.000157584281068
9.15472483859e-05
3.70050651187e-05
1.49183588145e-05
6.66146156083e-06
3.23004558953e-06
1.52385755569e-06
6.13658168229e-07
1.74675778407e-07
3.54578005984e-08
4.66290729099e-09
4.04825353027e-10
2.31751223584e-11
9.36603123937e-13
3.12788521777e-14
1.17438282987e-15
0.194401527878
0.0418527655067
0.00227492439776
0.000701656100854
0.000495646840314
0.000268640288022
9.36387128068e-05
3.05814889549e-05
1.21365456065e-05
5.88268594799e-06
2.86815961125e-06
1.20019868668e-06
3.74142204521e-07
7.93235479808e-08
1.11058301128e-08
1.02187115593e-09
6.17422372524e-11
2.62497862682e-12
8.87975623351e-14
3.10889068011e-15
0.20805475744
0.0559405367496
0.00800111220942
0.00271574489745
0.00169358744797
0.000814480507461
0.000244440393783
6.36664549726e-05
2.03021152115e-05
9.30136328956e-06
4.6854284401e-06
2.04241413502e-06
6.67878809747e-07
1.50002577821e-07
2.23207582078e-08
2.17710730619e-09
1.38946579879e-10
6.17372875064e-12
2.10219600047e-13
6.88288924464e-15
0.224700065657
0.074876798398
0.0214747156758
0.00952731634276
0.00520686972085
0.00227991554051
0.000615870781831
0.000133359466563
3.30620915271e-05
1.32967404891e-05
6.79506763977e-06
3.06810959546e-06
1.04255873097e-06
2.46642690845e-07
3.89477413539e-08
4.03543255008e-09
2.72879403377e-10
1.26717111778e-11
4.35761345296e-13
1.3466483443e-14
0.242883501987
0.0969514073078
0.0386252671332
0.0219985439772
0.0131633710907
0.00535320917288
0.00138154408942
0.000267059468311
5.37634303292e-05
1.79781013068e-05
8.98397249323e-06
4.15423253709e-06
1.4551214495e-06
3.60733207658e-07
6.04330330792e-08
6.67578088859e-09
4.81063462842e-10
2.35052125382e-11
8.25202898462e-13
2.44618936245e-14
0.261295567445
0.120587742412
0.057544019294
0.0358213763932
0.0227114285352
0.0105823290044
0.00270123467921
0.000502265812321
8.82455498872e-05
2.40492742359e-05
1.11876047582e-05
5.19931048855e-06
1.85985986569e-06
4.80429540299e-07
8.5332553105e-08
1.0085611344e-08
7.80464964164e-10
4.05526480836e-11
1.47493966452e-12
4.27092181768e-14
0.278254071081
0.144139065599
0.0764351740511
0.0490478308494
0.0317587395885
0.0164286072022
0.00467184316869
0.00091832360322
0.000151657383415
3.39621353318e-05
1.37974666027e-05
6.25312955908e-06
2.25170966108e-06
6.0040497381e-07
1.12618624399e-07
1.42597054727e-08
1.19465921532e-09
6.67262971366e-11
2.54428482322e-12
7.29080636688e-14
0.291873494178
0.166613579321
0.0942649281597
0.0610807751898
0.040137818904
0.0224760561858
0.00806885002968
0.00171160863055
0.000289115295017
5.54422326681e-05
1.82516878999e-05
7.70138745176e-06
2.73176864492e-06
7.3887033598e-07
1.44613278732e-07
1.95442280852e-08
1.77545108927e-09
1.07004214702e-10
4.29283129609e-12
1.22139163848e-13
0.300554907998
0.187053088287
0.110880421627
0.0723890164591
0.0483141444949
0.0290697747762
0.0134033220278
0.00339498582056
0.000645900724734
0.000114753021714
2.92369481475e-05
1.06525296765e-05
3.6098348298e-06
9.63865215065e-07
1.92324425609e-07
2.72750990072e-08
2.6577471702e-09
1.70975855268e-10
7.16132496008e-12
1.99781468435e-13
0.304304363909
0.201590256587
0.124999475693
0.0831595348055
0.0570944732581
0.0369772508344
0.0203628845946
0.00750753928975
0.0016699183262
0.0003106874657
6.57307460604e-05
1.89004206738e-05
5.78153696231e-06
1.47281497499e-06
2.89153538028e-07
4.15669944977e-08
4.20876299848e-09
2.80561450611e-10
1.19977372349e-11
3.18695955264e-13
0.30280686412
0.209470992818
0.136547370524
0.0940783233332
0.0673986459084
0.0472035031316
0.0302546204433
0.015732424965
0.00479691341999
0.00102271802445
0.00021133896403
4.86828997635e-05
1.25118074914e-05
2.89202795194e-06
5.3500564036e-07
7.42564605015e-08
7.41272381402e-09
4.90127477268e-10
2.06102590179e-11
4.97955140715e-13
0.29653848391
0.212798104733
0.146525117679
0.106047698654
0.0801457147788
0.0606057919852
0.0438059662
0.0280878130756
0.0132501498839
0.00356235138447
0.000809314188321
0.000166212487661
3.65613410414e-05
7.53370343829e-06
1.27900341403e-06
1.64802698228e-07
1.54061831312e-08
9.59342706659e-10
3.77165435485e-11
7.9690812538e-13
0.28740033991
0.214793977805
0.15728317024
0.120633316639
0.0965080584501
0.0779686225249
0.0612739081221
0.0445030705145
0.0273320743419
0.0114901821522
0.0030128214513
0.000608953144257
0.000115976217273
2.15698696856e-05
3.44202305385e-06
4.1922920272e-07
3.672428222e-08
2.11987317019e-09
7.55436728818e-11
1.35225617206e-12
0.278663532911
0.219970065801
0.1719712801
0.13978934378
0.117392755589
0.0991417685808
0.0814043312252
0.0627091356193
0.0436311076627
0.0251274869261
0.00855854601018
0.00191939354514
0.000331523897332
5.48435630182e-05
8.36549859767e-06
1.00907633967e-06
8.69447457564e-08
4.81295539474e-09
1.57424568201e-10
2.41678431904e-12
0.271591204971
0.22711449594
0.189725272833
0.161437439478
0.138703355266
0.117248122221
0.0948679652428
0.0722432344915
0.0518883359635
0.0339011861028
0.0169148170975
0.00445292940954
0.000750619660812
0.00010818285526
1.55428415746e-05
1.89904161854e-06
1.67531390733e-07
9.33998999696e-09
2.92818947279e-10
4.04486775206e-12
0.261905226467
0.229652803754
0.198483009816
0.168211965727
0.136980022377
0.105374319988
0.0760302072304
0.0513900214694
0.0352063121556
0.0244804147951
0.0151245217179
0.00523541660861
0.00100494344274
0.00013806745833
1.98994004259e-05
2.59514214507e-06
2.45448506494e-07
1.42195916092e-08
4.36635822202e-10
5.56866165284e-12
0.21198549716
0.177977189059
0.140489268701
0.10211950606
0.0646859629797
0.0368523629631
0.0198090081907
0.0107955677121
0.00738615940614
0.00710477026706
0.00660255979344
0.0032839219646
0.000754785480825
0.000111843488784
1.78085730016e-05
2.60582506073e-06
2.65230065733e-07
1.59803745407e-08
4.82415034e-10
5.78575971195e-12
0.0540243683079
0.0357128459342
0.0211865631023
0.0113448880693
0.00567285471644
0.00284089103566
0.00156021989301
0.00124472140484
0.00161887463112
0.00241644149857
0.0028276014811
0.00179995655413
0.000445450932113
6.89089295863e-05
1.25766927466e-05
2.05225179336e-06
2.21203305302e-07
1.36597220955e-08
4.00540062157e-10
4.75813209689e-12
0.00133033439442
0.000833084948012
0.000468926106743
0.000246025570509
0.000136981296987
0.00010366110266
0.00013815254146
0.000286281976533
0.000628962298802
0.00115801518791
0.00147580577098
0.000969386314094
0.000221678164565
3.93945131947e-05
8.58568146247e-06
1.48365596311e-06
1.62040817448e-07
9.75062385264e-09
2.73188776151e-10
3.22292374345e-12
1.93767419712e-05
1.24609720052e-05
8.11509949173e-06
6.45341284488e-06
8.34247302458e-06
1.76843219098e-05
4.76092978444e-05
0.000132110487103
0.000322376271692
0.000617614015953
0.000786623208081
0.000507309557628
0.000111478656436
2.33285432161e-05
5.66058237909e-06
9.86385505227e-07
1.05300204264e-07
6.09788946918e-09
1.64278710294e-10
1.87796013176e-12
7.09131205553e-07
8.81199600254e-07
1.29987357834e-06
2.2606460303e-06
4.7171866999e-06
1.1477733072e-05
2.97513322905e-05
7.50924309291e-05
0.000170259401554
0.000314046300947
0.000398155337472
0.000253318525315
5.68624604476e-05
1.41165050953e-05
3.55339124628e-06
6.05455211642e-07
6.21684099857e-08
3.43186024137e-09
8.66964773471e-11
9.72410377715e-13
3.87435773554e-07
5.50679559251e-07
8.3722380704e-07
1.39419350192e-06
2.68852954259e-06
6.05059764223e-06
1.48280516989e-05
3.61597578707e-05
8.03152628495e-05
0.00014798891889
0.000190351787048
0.000117321456957
2.88581841489e-05
8.1911539248e-06
2.04263842135e-06
3.35548706352e-07
3.28045346734e-08
1.7161504943e-09
4.04531809807e-11
4.57422312835e-13
2.81025986374e-07
3.83942745975e-07
5.57087911167e-07
8.56194364972e-07
1.46263789615e-06
2.91768080336e-06
6.6074543217e-06
1.55281712886e-05
3.41747638261e-05
6.39989267739e-05
8.48104749226e-05
5.04638307488e-05
1.4312072283e-05
4.38892325931e-06
1.05734310575e-06
1.66087543975e-07
1.54149634539e-08
7.62736934694e-10
1.69022180197e-11
1.99529652133e-13
2.13510399357e-07
2.78293025556e-07
3.86429327552e-07
5.5596563298e-07
8.4493826263e-07
1.44706270182e-06
2.89056167587e-06
6.34562168122e-06
1.36737337429e-05
2.58620319319e-05
3.52352939014e-05
2.07916577653e-05
6.76625199074e-06
7.75986925018e-20
5.7271491826e-20
6.0997150214e-19
3.08767425016e-19
4.40862618681e-18
1.82265933004e-18
2.3210411967e-17
8.04716129397e-18
8.58054385898e-17
2.54484961496e-17
2.43600415538e-16
6.38075874747e-17
5.56654752439e-16
1.31712298147e-16
1.09379752891e-15
2.40640210823e-16
1.93686047235e-15
4.04413045551e-16
3.22170670421e-15
6.45360384252e-16
5.1597234046e-15
9.96252710578e-16
8.00022809331e-15
1.48633278865e-15
1.19169716795e-14
2.09173349315e-15
1.69846803647e-14
2.63150013427e-15
2.34784967905e-14
2.25687787846e-15
3.0919857202e-14
2.25256652719e-15
3.95741003402e-14
2.56015963526e-15
5.38767913051e-14
3.16114816015e-15
8.42556371278e-14
4.594149419e-15
1.35484901329e-13
7.08722117391e-15
1.88511526561e-13
9.66647424352e-15
2.03773785953e-13
1.04258668963e-14
1.71025992199e-13
8.78121351483e-15
1.17324010919e-13
6.04287947173e-15
6.92724645319e-14
3.57843750148e-15
3.67662200408e-14
1.90982875763e-15
1.81233899331e-14
9.56255552888e-16
8.53534263352e-15
4.67792472522e-16
)
;

boundaryField
{
    inletfuel
    {
        type            fixedValue;
        value           uniform 1;
    }
    inletair
    {
        type            fixedValue;
        value           uniform 0;
    }
    outlet
    {
        type            zeroGradient;
    }
    axis
    {
        type            empty;
    }
    leftside
    {
        type            zeroGradient;
    }
    burnerwall
    {
        type            zeroGradient;
    }
    front
    {
        type            wedge;
    }
    back
    {
        type            wedge;
    }
    procBoundary0to1
    {
        type            processor;
        value           nonuniform List<scalar> 
27
(
1.49732401026e-07
1.51124245237e-07
1.54520233219e-07
1.60063306186e-07
2.12821072239e-06
4.90698743265e-07
7.33201093326e-08
6.46496233589e-09
3.02629686658e-10
6.39342961276e-12
8.16982814228e-14
1.73890927195e-07
2.13299435146e-07
2.8277603229e-07
3.87911210799e-07
5.41316699358e-07
8.01510010272e-07
1.35316211593e-06
2.62544425112e-06
5.33395468037e-06
9.95200168611e-06
1.37845864445e-05
8.34635008141e-06
2.12821072239e-06
3.00193860463e-06
4.05732379145e-15
2.46036298307e-16
)
;
    }
}


// ************************************************************************* //
