/*--------------------------------*- C++ -*----------------------------------*\
  =========                 |
  \\      /  F ield         | OpenFOAM: The Open Source CFD Toolbox
   \\    /   O peration     | Website:  https://openfoam.org
    \\  /    A nd           | Version:  7
     \\/     M anipulation  |
\*---------------------------------------------------------------------------*/
FoamFile
{
    version     2.0;
    format      ascii;
    class       volScalarField;
    location    "0.02";
    object      H2O;
}
// * * * * * * * * * * * * * * * * * * * * * * * * * * * * * * * * * * * * * //

dimensions      [0 0 0 0 0 0 0];

internalField   nonuniform List<scalar> 
814
(
3.09163755766e-09
2.62712039701e-09
1.51545777616e-09
2.66789212646e-07
2.94186135728e-07
3.55667763449e-07
1.18615885912e-05
1.95273705819e-05
5.14044785235e-05
0.00034933997997
0.000971111719104
0.00688761546626
0.00196808563985
0.00525606890398
0.0279073964661
0.00524384530045
0.0121931840222
0.045125913242
0.0105672764834
0.0215872622349
0.0600978067302
0.0181710129599
0.0329630860775
0.0734371082269
0.0280711733459
0.0455742695401
0.0853154876106
0.0398415544927
0.0584937272964
0.0956429074277
0.0526743152513
0.0709366415149
0.104441679723
0.0657614580821
0.0825185320464
0.1120109878
0.0785092895074
0.0931550197791
0.118630582733
0.0905656545175
0.102915778224
0.124543562785
0.101756074378
0.111921232049
0.130009010048
0.111979410029
0.120230254209
0.135204645554
0.121216063162
0.127881191524
0.140242635566
0.129633869089
0.13505127481
0.145323531728
0.137599866366
0.142074203719
0.150729987624
0.14558763106
0.149352120375
0.156741164165
0.153887285629
0.157065356641
0.163356600382
0.16237265815
0.164975678308
0.170146363741
0.170793724992
0.172783696294
0.176734292485
0.179569516802
0.180906960219
0.183563054278
0.191336877245
0.192048496247
0.193464409907
0.18077538312
0.180284489358
0.179135778215
0.0784486562137
0.0779090139796
0.0768559072678
0.0615166330769
0.0616636533063
0.0619928795377
0.0579873288721
0.0581350521641
0.0584673995278
0.0547587289895
0.0548745530136
0.0551370254617
0.0515370327035
0.0516046658326
0.0517634673644
0.0484072286557
0.0484357310896
0.0485097953798
0.0251633564937
0.105138817393
0.118835347204
0.122386900199
0.126137030938
0.130805979037
0.135526062232
0.139530449965
0.142764988819
0.145367712155
0.147536232467
0.149566692719
0.15171983797
0.154204946152
0.157219529431
0.160988551341
0.165652807063
0.171018425699
0.176463717803
0.181567023628
0.186834756079
0.195193270147
0.177474784042
0.0756718934532
0.0624619432217
0.0589341732793
0.0555050205285
0.0519895286323
0.0486204793116
2.59274727581e-05
1.92718288596e-05
1.39837437144e-05
9.92346533567e-06
7.4420471297e-06
6.14972483241e-06
5.52862775007e-06
5.21865863991e-06
5.05929173372e-06
4.96600297079e-06
4.90625798166e-06
4.86132078371e-06
4.8262524318e-06
4.79670038361e-06
4.77123576061e-06
4.74988407185e-06
4.7271810589e-06
4.68908966409e-06
4.39103017266e-06
2.1641287331e-06
0.000589763019575
0.000316926862201
0.00015059476612
7.54217461121e-05
4.12744969352e-05
2.50842125477e-05
1.85405013874e-05
1.55660876106e-05
1.43842792504e-05
1.38080946222e-05
1.35651411461e-05
1.3408257357e-05
1.33220150976e-05
1.32549984001e-05
1.31949273535e-05
1.31678007467e-05
1.30797670387e-05
1.30207195244e-05
1.20764045142e-05
6.46692631586e-06
0.00396824372455
0.00119616746524
0.000649159044344
0.000302116703722
0.000146067212698
7.36872742194e-05
4.43885127162e-05
3.11034849524e-05
2.60128340092e-05
2.387297074e-05
2.31635598754e-05
2.28205305483e-05
2.26978909533e-05
2.26110248212e-05
2.25265252656e-05
2.25133254627e-05
2.23314406418e-05
2.22796379621e-05
2.05409920297e-05
1.53885791866e-05
0.0280997284408
0.00757610666247
0.00310394730945
0.00131406746759
0.000629237018805
0.000295442831147
0.000148852950485
8.09140623719e-05
5.4521123385e-05
4.41837381615e-05
4.09638215594e-05
3.98035085874e-05
3.95180954154e-05
3.93800598419e-05
3.92611543981e-05
3.92942093217e-05
3.89376948361e-05
3.89460098588e-05
3.61497093923e-05
0.000117495381829
0.2121518677
0.148015786316
0.0362704857871
0.00995764514177
0.00329166639525
0.00128114147964
0.000551220958339
0.000261956500485
0.000139472604093
9.1291249629e-05
7.57089333118e-05
7.07519502928e-05
6.96693230617e-05
6.9358871099e-05
6.91986103252e-05
6.93449376946e-05
6.8695969532e-05
6.88528991005e-05
6.40508868453e-05
0.000202452766168
0.213960577553
0.218140453038
0.0598487795209
0.0183517317337
0.00718328942644
0.00342593832896
0.00169239448381
0.000803494302248
0.000380543222518
0.000211040502116
0.000148475259762
0.000128011818855
0.000123242053199
0.000122209350968
0.000121997683665
0.00012239466826
0.000121358330681
0.000121805652409
0.00011349442858
0.000313054505427
0.213611275865
0.236308458374
0.0741547305745
0.0273102348182
0.0131713566449
0.00767996388763
0.00412809388816
0.00207684718688
0.00101968644153
0.000502571949419
0.000308249412163
0.0002359684992
0.000216967041724
0.000212978452326
0.000212558872706
0.000213432678055
0.000212092967491
0.000213070202895
0.000199557955071
0.000444775425394
0.209747586383
0.237716568673
0.0929656494841
0.0405422277856
0.0236277578517
0.0155310922416
0.00882412976618
0.00469903885128
0.00234756703999
0.00118636979186
0.000642018377783
0.000439165804606
0.000376763817723
0.000362646595801
0.000361175508524
0.000362799979193
0.000361683327681
0.000363552484772
0.000344092019541
0.00061888155049
0.206400029712
0.236443936742
0.125216884682
0.0643714746981
0.0426904391734
0.0296861226415
0.0172809755291
0.00944187524725
0.00482612160038
0.00246595531939
0.00130561071745
0.000807690806199
0.000636631353444
0.000596798583821
0.000591596802407
0.000594146914951
0.00059448683715
0.000597708239547
0.000573582897761
0.000872106228553
0.203715036864
0.234370057528
0.180091102961
0.105957824777
0.0764988773887
0.0546720769074
0.03178599411
0.0173061212523
0.00892407645978
0.00462716641486
0.00242268290915
0.00141372086115
0.00104236904462
0.000942028251266
0.000926847161493
0.00093008889128
0.000933899644499
0.000938941512265
0.000913831762701
0.00123926303252
0.200688489507
0.235963249598
0.229637746301
0.16611728558
0.12921729221
0.0945551703518
0.054858454561
0.0294229767077
0.015100886124
0.00786028252984
0.00410532051625
0.00232725147543
0.00162598029118
0.00142022908468
0.00138374652361
0.00138640345435
0.00139614608998
0.00140330814216
0.0013822626318
0.00174131967265
0.196921373902
0.233854511193
0.239178851976
0.215959921187
0.188884664549
0.14560599408
0.0872258534034
0.0464024928475
0.023634327359
0.0122499430613
0.00638856064643
0.00357488072135
0.00241142794156
0.00204356872289
0.00196781030082
0.0019663735164
0.0019840356591
0.00199323805237
0.00198097020755
0.00238363334206
0.192764359355
0.230049713488
0.241529705492
0.233971111728
0.221369754713
0.19275209384
0.125486966401
0.067761491535
0.0344613295185
0.0177322940945
0.00923253175536
0.00514863388314
0.00340495618926
0.00281242776705
0.00267067652447
0.00265720907384
0.00268275079709
0.00269336622053
0.00269312827949
0.00315754670635
0.188557831128
0.225420150855
0.240836208484
0.241161467091
0.235255475222
0.218158102431
0.162866574076
0.0920676260269
0.0471975218354
0.02413775247
0.0125675308283
0.00703247590535
0.00460735645685
0.0037195536886
0.00347180516623
0.00343037291036
0.00345965455783
0.00347040660424
0.00348448113799
0.00404423433474
0.184728440057
0.220530676434
0.238584800514
0.24324863711
0.241300835263
0.230300343686
0.194533604289
0.118311773419
0.0618123287077
0.0314892212936
0.0164215924762
0.00925334026802
0.00603366088037
0.00475908133923
0.00434457683585
0.004246525033
0.00426905700745
0.00427788463419
0.00430954317541
0.00502135356714
0.18176286778
0.215677644123
0.235607129289
0.242956964983
0.243543884282
0.236785844658
0.214616959272
0.146456449308
0.079629689182
0.0405012759412
0.0211043545721
0.0119466862231
0.00773880068894
0.00593833064369
0.00526513275582
0.00506418697762
0.0050610675001
0.00506487856725
0.00512081486586
0.00606943137948
0.180089751861
0.211138546591
0.232336444883
0.241594659292
0.243951069122
0.240011267485
0.225306818841
0.178295456707
0.104001029661
0.0532142347516
0.0275061545226
0.0154368179188
0.00983816210675
0.00728551715695
0.00622046593512
0.00584892396738
0.0057918982041
0.00578614275537
0.00587834002936
0.00717705488859
0.179709775686
0.208019541882
0.229359945113
0.23976976308
0.243476918634
0.241899202446
0.232822188453
0.20907866157
0.139006101079
0.0736909292816
0.0375194077041
0.0204246543819
0.0125611751885
0.00886657948021
0.00721517497525
0.0065805952373
0.00643211577511
0.00641030529784
0.00655648510671
0.00834191619693
0.18071342318
0.206576554384
0.226870620555
0.237657668467
0.242348474797
0.242800555676
0.238277713883
0.224644150435
0.185198904024
0.108108587607
0.0553290702798
0.0285102638716
0.0163870952024
0.0108083833178
0.00827549023965
0.00725546497539
0.00696966472606
0.00692345380595
0.00714686306755
0.00956422617536
0.182972554161
0.206268300723
0.224685996859
0.235142999511
0.240408512143
0.242450980882
0.241487038317
0.235634991098
0.217974814205
0.160474582924
0.0882124075172
0.0430476914596
0.0224311069505
0.0133964065026
0.00946654721286
0.00788694048364
0.00740829053485
0.00732760778612
0.00765543508713
0.010833222535
0.185967942181
0.206221604433
0.222189611908
0.231801730108
0.237233266893
0.240326114409
0.241777975424
0.240917747197
0.234169106462
0.210674829254
0.141990765431
0.0698714680825
0.0326685481946
0.0171120664802
0.0108809067938
0.00849590534411
0.00776124474255
0.00763556843481
0.00809514971897
0.0121245552148
0.188787889582
0.205174335795
0.218468774374
0.226977527976
0.232296471396
0.235958860388
0.238860494142
0.240996190716
0.240703962437
0.232790551115
0.203231402585
0.113207766267
0.0491732505555
0.022495360389
0.0126217973723
0.00910657207026
0.00804571585613
0.007865137701
0.00847914269353
0.0133954670778
0.19101295073
0.20334709624
0.213529681065
0.22078062599
0.22581509259
0.229658997623
0.233128167527
0.236576967979
0.239873491411
0.240075942141
0.227264576018
0.162086222385
0.0714270794874
0.0292614937633
0.0145704454656
0.00969352488666
0.00827028230478
0.00803396248143
0.00882098532553
0.0145840248564
0.193313110818
0.201776313779
0.209086402732
0.21451758676
0.217963693538
0.219988024102
0.221868201274
0.224365581693
0.230092193198
0.236369532168
0.23387453489
0.19187092508
0.0908926706584
0.0350283976118
0.0161828141067
0.0101585395768
0.00843352070888
0.00815778979407
0.00913723777673
0.0156658499962
0.198571764785
0.202315471406
0.204098004496
0.202137152251
0.195008711191
0.188226963726
0.186137722141
0.188924732949
0.199922027922
0.2173004136
0.226918167844
0.19337638768
0.0953024380771
0.0365896200822
0.0166836393229
0.0103468880714
0.00851757982676
0.00825017235999
0.00944878265061
0.0166631137905
0.173151641923
0.166740380634
0.157206028773
0.141464109554
0.123896784879
0.113329143538
0.117030239628
0.134369272394
0.16388825966
0.198484655742
0.216558531285
0.181603384793
0.088419903437
0.0338459935755
0.015950770583
0.0102066868055
0.00852335773524
0.00832620902207
0.00978108063714
0.0176093392721
0.073623176103
0.0733498261949
0.0752383784943
0.0792417934381
0.0857025188283
0.0954281884527
0.109976681778
0.131307262269
0.159855461341
0.189721944399
0.201120446778
0.161172686152
0.0740221524381
0.0297001344164
0.0149327375177
0.00994621892403
0.00849215325082
0.00840342132153
0.0101448072529
0.0185265248762
0.0635413773797
0.0658961480777
0.0694907010432
0.0746426015948
0.0818226893758
0.0918159511429
0.105971018139
0.125925431607
0.151024893908
0.174440389855
0.176792265236
0.13530910348
0.060456527701
0.0256880682705
0.0137772225153
0.00962727726516
0.00844619558393
0.00849570562136
0.0105395039314
0.0194101411274
0.0599773636054
0.0622518438024
0.0655884795521
0.0701387074824
0.076157598392
0.0843452593612
0.0956945082793
0.111162232292
0.130098103136
0.14672329718
0.145056526566
0.107747002365
0.0478625764053
0.0219984560062
0.0126289755594
0.00930768528382
0.00840663533673
0.00860606207016
0.0109577842981
0.0202401240723
0.0563105187563
0.0580228735026
0.0604510240732
0.0636897948033
0.0679409003655
0.0735683780351
0.0811740690299
0.0913937502453
0.10378263755
0.114574498909
0.11164069226
0.07983353196
0.0366958243714
0.0185634849208
0.0115254161755
0.00901309253894
0.00838206989407
0.00873476323908
0.0113840681928
0.0209728784292
0.0524866143366
0.0535838914424
0.0552118265151
0.0573917403736
0.0601390583202
0.0635598337183
0.0678666510114
0.0733238671419
0.0796271626682
0.0848439954952
0.0810865994634
0.0555686149479
0.0277278267787
0.0155973431603
0.0105650276212
0.00876845677602
0.00837768430664
0.00887982564192
0.0117957070224
0.0215697718937
0.048872820786
0.0494774339619
0.050422965462
0.0517159220153
0.0532956432656
0.0550706006088
0.0569978078212
0.0590684902381
0.0609910949844
0.0617792532797
0.0569199285461
0.0381190881008
0.0211766167777
0.00804624506592
0.0111413952952
0.00546566797809
0.00882511573632
0.00442258551328
0.00742650511584
0.00411209346251
0.00711644358651
0.00428735633488
0.00736388722539
0.00480432650068
0.00796689608349
0.00561208912149
0.00886552515918
0.00666750227063
0.0100099064827
0.00793874332798
0.0113680078797
0.00939456449419
0.0129153740103
0.0110084920083
0.0146402858789
0.0127656686873
0.016558878511
0.0146747750023
0.0187371728031
0.0167703810043
0.0212861649912
0.0190896338658
0.024406853873
0.0219353532942
0.0278956005437
0.0252992999693
0.0316824571614
0.0289292809523
0.0355758805686
0.0324221984998
0.0392501035972
0.035461951689
0.0424253802592
0.0379585026627
0.0449985479874
0.0399754444758
0.0470514944707
0.0416333496432
0.0487283938541
0.0429910558699
0.0501128064973
0.0440197163249
0.051180417897
0.044617181196
0.0518098489345
0.0446340626136
0.0518213560197
0.0438587127315
0.0509779494186
)
;

boundaryField
{
    inletfuel
    {
        type            fixedValue;
        value           uniform 0;
    }
    inletair
    {
        type            fixedValue;
        value           uniform 0;
    }
    outlet
    {
        type            zeroGradient;
    }
    axis
    {
        type            empty;
    }
    leftside
    {
        type            zeroGradient;
    }
    burnerwall
    {
        type            zeroGradient;
    }
    front
    {
        type            wedge;
    }
    back
    {
        type            wedge;
    }
    procBoundary0to1
    {
        type            processor;
        value           nonuniform List<scalar> 
27
(
0.0455526990941
0.0455441411558
0.0455388105285
0.0455417031398
0.0132627522649
0.00980912922826
0.00858633801301
0.00839409191527
0.00903729179308
0.0121827435866
0.0220820705443
0.0455678814746
0.0457319734252
0.0461032881081
0.0466781615357
0.0473425269601
0.0479204282296
0.048250092425
0.0481909388689
0.0474748130954
0.0455262810485
0.0399472088396
0.0269991004221
0.0132627522649
0.0167291483875
0.0419206873823
0.049090167264
)
;
    }
}


// ************************************************************************* //
