/*--------------------------------*- C++ -*----------------------------------*\
  =========                 |
  \\      /  F ield         | OpenFOAM: The Open Source CFD Toolbox
   \\    /   O peration     | Website:  https://openfoam.org
    \\  /    A nd           | Version:  7
     \\/     M anipulation  |
\*---------------------------------------------------------------------------*/
FoamFile
{
    version     2.0;
    format      ascii;
    class       volScalarField;
    location    "0.02";
    object      HE;
}
// * * * * * * * * * * * * * * * * * * * * * * * * * * * * * * * * * * * * * //

dimensions      [0 0 0 0 0 0 0];

internalField   nonuniform List<scalar> 
814
(
6.85026323988e-14
5.35060717529e-14
2.07902722299e-14
6.87314082025e-12
7.10941403128e-12
5.48139984328e-12
3.51884968893e-10
5.8480561111e-10
1.3953625253e-09
1.11829813948e-08
3.4039830573e-08
2.78440139686e-07
3.26359473678e-08
8.2313982901e-08
4.05325001376e-07
7.19238736631e-08
1.60259798258e-07
5.74010817524e-07
1.48488827618e-07
3.08928176523e-07
9.30366119884e-07
3.33048474228e-07
6.90706383172e-07
1.99997663824e-06
8.99689108667e-07
1.89800493406e-06
5.4296280963e-06
2.71800304081e-06
5.56492675361e-06
1.49660801874e-05
7.99614627432e-06
1.52255496562e-05
3.71872277682e-05
2.12686183395e-05
3.70294825784e-05
8.12428619796e-05
5.01863654011e-05
7.98219347523e-05
0.000157543434678
0.000105523375613
0.000154362825612
0.000275615774324
0.000200429670263
0.000272460948677
0.000443271756876
0.000349286434598
0.000446377538671
0.000668012139493
0.000566729191248
0.00068849907935
0.000958538918346
0.000867559448399
0.00101156944123
0.00132406613118
0.00126643739656
0.00142865051668
0.00177481083183
0.00177637089016
0.00195101840573
0.00231777006251
0.00239788539553
0.00257545027271
0.0029427698824
0.00310421456344
0.00327017830205
0.00360873392699
0.00384404537164
0.00398091151595
0.00425577066306
0.00448626369255
0.00457269769155
0.00474294372588
0.00447269454431
0.0044823365753
0.00449719959727
0.00212395634899
0.00209270946741
0.00202778288103
0.000702582204855
0.000702653417942
0.000703075003024
0.000596979966458
0.000599390390861
0.000604759678995
0.000554296274415
0.000556670610792
0.000561998699428
0.000513615352748
0.000515525734475
0.000519830683403
0.000473043586488
0.00047423731072
0.000476987974887
0.000434148360972
0.000434750437743
0.000436212647928
1.92708109359e-06
1.58744190352e-06
1.58594706629e-06
2.37651497304e-06
5.32846095323e-06
1.4403192341e-05
3.74308079707e-05
8.5558663678e-05
0.000170524987584
0.000301948340012
0.000484492882172
0.000718510027509
0.00100553378739
0.00135217403551
0.00176380122075
0.00224802785902
0.00280662800896
0.00342103845474
0.00403972692558
0.00459813140674
0.00494911721039
0.00450217721701
0.00194299679479
0.000704540509789
0.000612405753556
0.000569522277304
0.000525896465926
0.000480903390025
0.000438355753228
2.613469442e-08
3.08331431567e-08
3.28544960524e-08
3.01688682063e-08
2.40401407219e-08
1.64036439117e-08
9.75227650516e-09
4.99012505599e-09
2.18606782051e-09
8.05011098985e-10
2.4491908697e-10
6.0195752958e-11
1.17041729822e-11
1.76410080939e-12
2.01994555569e-13
1.71932286066e-14
1.06119751618e-15
4.57623648223e-17
1.32437726e-18
1.60559072415e-20
4.84208917015e-07
3.54801973676e-07
3.0129516004e-07
2.45060328728e-07
1.89168570903e-07
1.235310056e-07
7.30346190168e-08
3.65556237337e-08
1.58480219815e-08
5.72447653706e-09
1.71250530428e-09
4.09766796127e-10
7.69862728278e-11
1.1137053314e-11
1.22074720806e-12
1.00209073019e-13
5.98157524444e-15
2.52674132348e-16
7.04944003618e-18
8.43593630202e-20
1.47603233921e-06
8.53247481396e-07
9.63023261614e-07
8.21434641804e-07
6.7755574901e-07
4.6157328834e-07
2.94942530352e-07
1.56718061887e-07
7.24653450669e-08
2.72769574645e-08
8.42509615937e-09
2.02875098576e-09
3.75388256647e-10
5.21715448297e-11
5.38159719333e-12
4.1274042402e-13
2.30087379351e-14
9.29710543215e-16
2.52268876738e-17
3.87933502876e-19
2.53553862933e-06
2.00158593664e-06
3.24489584326e-06
3.005960114e-06
2.72130681905e-06
1.97431363278e-06
1.36149773246e-06
7.71379519833e-07
3.80780230293e-07
1.50686356844e-07
4.84306099101e-08
1.19286295097e-08
2.22751211518e-09
3.07286528643e-10
3.09578571726e-11
2.29042887448e-12
1.22446157996e-13
4.82584862901e-15
1.34362507735e-16
4.98145219213e-18
2.56107639768e-06
3.02842545269e-06
5.21487525394e-06
8.44030062258e-06
9.69997287642e-06
7.81148403327e-06
5.56429832876e-06
3.45460693836e-06
1.85151873718e-06
7.91169895049e-07
2.71560601716e-07
7.03791452166e-08
1.36605129926e-08
1.93261264002e-09
1.97330790305e-10
1.46336150426e-11
7.78712864283e-13
3.08682257583e-14
9.43088447679e-16
4.41897631177e-17
3.3744460603e-06
5.77167179312e-06
1.08742724687e-05
2.35646948292e-05
2.95404500001e-05
2.60468014058e-05
1.94180427716e-05
1.29675508682e-05
7.39234872544e-06
3.50049924615e-06
1.31623221497e-06
3.70374222985e-07
7.67924592887e-08
1.1429425137e-08
1.21409818243e-09
9.27652400586e-11
5.06269969229e-12
2.07347840723e-13
7.21386199223e-15
3.99176359535e-16
6.89891659014e-06
1.78213567072e-05
3.07863395306e-05
6.49299307726e-05
8.05143147514e-05
7.61071141342e-05
5.73233576511e-05
3.9826678702e-05
2.46436469512e-05
1.23484696648e-05
5.20056202269e-06
1.6103222201e-06
3.62616388196e-07
5.80459957004e-08
6.54956630564e-09
5.26492864161e-10
3.01480430141e-11
1.30687010181e-12
5.06217726213e-14
2.97245441824e-15
1.8068564289e-05
5.53288155425e-05
8.89241891989e-05
0.000164135449602
0.000196357284555
0.000189661852358
0.000143663599931
0.000102167434618
6.48397312898e-05
3.64063875907e-05
1.61481795405e-05
5.60570126034e-06
1.38727557991e-06
2.40022356931e-07
2.90444615827e-08
2.48915705723e-09
1.52267588263e-10
7.14192464156e-12
3.0081522162e-13
1.74695954417e-14
4.90100390338e-05
0.000149447321216
0.000228624086411
0.000374158495935
0.000434661698964
0.000416354493012
0.000312881625037
0.000222653834497
0.000144370040892
8.54640672251e-05
4.19657483276e-05
1.58691992609e-05
4.14080024487e-06
7.96867666131e-07
1.04209672424e-07
9.61865248093e-09
6.37766001432e-10
3.28159629294e-11
1.48382910896e-12
8.37393781976e-14
0.000121477212572
0.000347911652514
0.000529917461868
0.000796000487066
0.000893472912145
0.00083541438452
0.000612604151511
0.000428914333603
0.000280815179351
0.000172832963732
8.99379885193e-05
3.63744203016e-05
1.06492272158e-05
2.16870788288e-06
3.07333147049e-07
3.08663506718e-08
2.2486447893e-09
1.27709280379e-10
6.18011389173e-12
3.37069243883e-13
0.000255153508259
0.000698852721387
0.0011067399547
0.00156038671362
0.00169836273808
0.0015382837413
0.00109764162155
0.000752051326106
0.00049268210379
0.000309142385461
0.000166983704425
7.14824437795e-05
2.24443778284e-05
4.95228259465e-06
7.66220676049e-07
8.47261324716e-08
6.87805935789e-09
4.33345494347e-10
2.24604439239e-11
1.18488980061e-12
0.00045966789443
0.00121523877827
0.00199503633681
0.00268661974884
0.0028607408099
0.00253517219278
0.00179954190798
0.00121242685781
0.000794025482815
0.000501382257336
0.000276278942135
0.000123003754029
4.09913647999e-05
9.7977192803e-06
1.66747671888e-06
2.05632906552e-07
1.88273464035e-08
1.32045989062e-09
7.32713776938e-11
3.7412935299e-12
0.000733656996359
0.00186045377335
0.00308565508212
0.00398359833759
0.00416668167912
0.00367589893047
0.00267120222206
0.00179930084572
0.00118473745021
0.000748483966511
0.000415905097195
0.000190177255885
6.68044380998e-05
1.73045579359e-05
3.26524426648e-06
4.5399885748e-07
4.71969860639e-08
3.68300171816e-09
2.18113811471e-10
1.0805321463e-11
0.00106432350614
0.00256734454844
0.00419956463865
0.00521493912276
0.00534967954703
0.00473176670494
0.00357824482691
0.00246118850102
0.00163975557554
0.00103684063196
0.000578639521016
0.000270367409067
9.9863831779e-05
2.80767305139e-05
5.90775034171e-06
9.30433789045e-07
1.09730807616e-07
9.47228653224e-09
5.95504446433e-10
2.86978659746e-11
0.00143302156686
0.00325530297848
0.00516835939724
0.00620254139274
0.00626057239973
0.00556848709574
0.0043842297419
0.00312314342443
0.00211659280014
0.00134421956604
0.000755278873898
0.000361044207942
0.000140366904985
4.28869685823e-05
1.0070173141e-05
1.78977520241e-06
2.37661777466e-07
2.24740884097e-08
1.48750397237e-09
6.98098608903e-11
0.00183391139095
0.00385378965253
0.00590284909249
0.00689572455091
0.00688424668915
0.00617728384646
0.00503321061212
0.00372824389163
0.0025847138413
0.00165515443924
0.000941459011807
0.000462618703152
0.000189777202503
6.29155200735e-05
1.63799127492e-05
3.25183985435e-06
4.78933430991e-07
4.89911809484e-08
3.37603487575e-09
1.54176767412e-10
0.00227800573035
0.00433232640726
0.0064019019315
0.0073387508462
0.00728284996625
0.00659975114248
0.005555956132
0.00429046598476
0.00305265887738
0.00197946755452
0.00114679197099
0.000580827786898
0.000251211591327
8.97218026234e-05
2.55922772103e-05
5.58263647001e-06
8.95930659172e-07
9.76703768765e-08
6.92456284204e-09
3.0537891338e-10
0.00276113810573
0.00477498006547
0.0067474307375
0.00760559831912
0.00753758188737
0.00691325263526
0.00597047557506
0.00484860906755
0.00355867013286
0.00235328556433
0.00139457922816
0.000728998129493
0.000330559895359
0.00012564774393
3.85762333407e-05
9.07075946953e-06
1.55672193201e-06
1.77878756301e-07
1.28181265844e-08
5.38102112776e-10
0.00328834397744
0.00521618199202
0.00699551424672
0.00775847695575
0.0077008509847
0.0071617609147
0.0063472418603
0.00534755732643
0.00414995847551
0.00282488511273
0.00172495623363
0.000928745318518
0.00043673498735
0.000173700022629
5.62231200328e-05
1.39577662553e-05
2.51011607336e-06
2.96176391455e-07
2.14143719052e-08
8.40235415327e-10
0.00385040205227
0.00563831729921
0.0071712612886
0.00782226293165
0.00777884533839
0.00732833537546
0.00664546250036
0.00579054746183
0.00473033526632
0.00342671820733
0.00218713787769
0.0012081009673
0.000583624628708
0.000238571096815
7.97017437832e-05
2.04527778502e-05
3.78032687587e-06
4.53464265316e-07
3.24355980114e-08
1.18346660374e-09
0.00441443315426
0.00599063339178
0.00724943437449
0.00777719228476
0.00773187504475
0.00733896608144
0.00674619601821
0.00602318951886
0.00516007463308
0.00407894502821
0.0028116667799
0.00160696506584
0.000784145025121
0.000323399778092
0.000109298059968
2.84572156951e-05
5.32025468626e-06
6.39967955066e-07
4.47393144259e-08
1.51269945089e-09
0.00491267226056
0.00618030701392
0.00715674191956
0.00755151040033
0.00746498663348
0.00705561267395
0.00646490429558
0.0058191182666
0.0051841733255
0.00446347672702
0.00344084706493
0.00212767195534
0.00104210031826
0.000427604678643
0.000144179239645
3.76051825801e-05
7.02145181255e-06
8.35955144048e-07
5.64016530997e-08
1.77201952297e-09
0.00527617250985
0.006170623879
0.00679799323888
0.00699124588345
0.00675874916559
0.00621536803629
0.00553229007762
0.00490597627829
0.00448692159758
0.00418430574914
0.00368696685131
0.00262437680889
0.00133346168322
0.000537150902256
0.000178462031696
4.62165343286e-05
8.54246057795e-06
9.99537229121e-07
6.45627663959e-08
1.89415942484e-09
0.00534601131279
0.00578513925031
0.00595159459273
0.00574123104125
0.00520483844609
0.00448441834145
0.00377838197874
0.00325752070439
0.00311291953419
0.00324335968248
0.0033275628842
0.00280477178308
0.00155119041188
0.000613924122455
0.000200609959023
5.15582715382e-05
9.44688089841e-06
1.08135820726e-06
6.63170218868e-08
1.81378273746e-09
0.00447736820389
0.00426941771018
0.00386193335103
0.00329206922839
0.00261807110267
0.00210039363409
0.00183810917205
0.00181495664825
0.00203572468391
0.00247392924762
0.00289727128991
0.00272417935366
0.00157698970718
0.000614958187708
0.000197382659334
5.05636281271e-05
9.15594625501e-06
1.02392060114e-06
5.94660256689e-08
1.5210668747e-09
0.00175731546856
0.00151518859714
0.00131365850946
0.00117443322594
0.00111472727347
0.00115037595277
0.00129479658576
0.00155432381107
0.00193905823261
0.00242136103722
0.00280680323184
0.00260597252869
0.00146073762536
0.000540217632651
0.000168867102187
4.296969323e-05
7.69144117459e-06
8.38881887192e-07
4.60435451518e-08
1.13505658609e-09
0.000710164867517
0.000733040234902
0.000778585524849
0.000853809765919
0.000967468470375
0.00113039937844
0.00135826400979
0.00166613702637
0.00205462408295
0.0024763787594
0.00273818664433
0.00240219499788
0.00122716795416
0.000438927849776
0.000136360851622
3.39972651597e-05
5.9207978479e-06
6.14793141863e-07
3.18515511879e-08
7.6630544663e-10
0.000630023424347
0.000668654073214
0.000729014203702
0.000818128404424
0.000944869792955
0.0011199353141
0.00135680114997
0.00166833208362
0.0020387972179
0.0023938951216
0.0025172440896
0.00207553290236
0.000977744829141
0.000339802864959
0.000104037679794
2.51760468836e-05
4.20195397071e-06
4.13877346735e-07
2.04676410734e-08
4.81379380932e-10
0.000586468284009
0.000624355871006
0.000682095886211
0.000764227653251
0.000876090463088
0.0010275637314
0.00123011936513
0.00149204316402
0.00179950307729
0.00207765007219
0.0021233898672
0.00166688820407
0.000728045690149
0.000250757310578
7.53580281516e-05
1.75863957759e-05
2.79605883859e-06
2.60935159141e-07
1.22504125075e-08
2.89219183938e-10
0.00053928486774
0.000568520027405
0.000611793259963
0.000672346646156
0.000754972410565
0.000866090026293
0.00101390431809
0.00120494482369
0.00142868406315
0.00163040633697
0.00163897801679
0.00120901987402
0.000500815231461
0.000173152401738
5.09373326222e-05
1.14669760666e-05
1.73417025494e-06
1.53766668512e-07
6.91101864444e-09
1.69829497863e-10
0.000489549242598
0.000508928237048
0.000538616242737
0.000580457511369
0.000636434328154
0.000709515290055
0.000803260077949
0.000920420566934
0.00105355965021
0.00117150396771
0.00115321494876
0.000784923129113
0.000319440939425
0.000111271632714
3.20204760984e-05
6.95877344096e-06
1.00515535961e-06
8.52141580887e-08
3.73046671454e-09
9.92282979032e-11
0.00044319551071
0.000454642796924
0.00047284892624
0.000499017231603
0.000533664139832
0.000576738403146
0.000628279627099
0.000687697964496
0.000748666653187
0.000793339060692
0.000747812064417
0.000469284886673
0.000191373497762
1.44326602363e-16
2.81017771045e-16
1.71697777591e-16
4.34019875413e-16
4.98539415016e-16
9.30927917089e-16
2.07823532919e-15
2.42782297193e-15
8.64732048561e-15
6.90536812462e-15
3.2533513959e-14
1.97984735936e-14
1.08587943233e-13
5.4333942961e-14
3.29211215057e-13
1.42311857294e-13
9.16442798023e-13
3.52524386339e-13
2.35888280068e-12
8.20637164729e-13
5.60903637838e-12
1.78325794588e-12
1.22118014837e-11
3.5693808711e-12
2.40202717925e-11
6.42627010149e-12
4.22640393678e-11
1.00866382851e-11
6.65573096321e-11
1.2761766716e-11
9.07581945084e-11
1.52429457484e-11
1.08701250079e-10
1.7051778522e-11
1.20126724833e-10
1.81281468975e-11
1.29227713943e-10
1.89282354422e-11
1.34228106916e-10
1.91755293229e-11
1.29029990051e-10
1.81821589632e-11
1.11142078608e-10
1.56946533837e-11
8.52413585184e-11
1.22520003856e-11
5.95172023451e-11
8.81271372095e-12
3.90855390011e-11
6.02083465662e-12
2.49344976554e-11
4.03140442197e-12
1.58633940499e-11
2.71774085995e-12
1.02749560183e-11
1.90017719589e-12
)
;

boundaryField
{
    inletfuel
    {
        type            fixedValue;
        value           uniform 0;
    }
    inletair
    {
        type            fixedValue;
        value           uniform 0;
    }
    outlet
    {
        type            zeroGradient;
    }
    axis
    {
        type            empty;
    }
    leftside
    {
        type            zeroGradient;
    }
    burnerwall
    {
        type            zeroGradient;
    }
    front
    {
        type            wedge;
    }
    back
    {
        type            wedge;
    }
    procBoundary0to1
    {
        type            processor;
        value           nonuniform List<scalar> 
27
(
0.000399343923358
0.0003994131353
0.00039972594409
0.000400294438459
6.68374692833e-05
1.88374607981e-05
3.9531305799e-06
5.48801445557e-07
4.48550702694e-08
1.9508114594e-09
5.80881328947e-11
0.000401790895553
0.000406479862562
0.000415384467161
0.000429205250901
0.000447343162529
0.000468224936964
0.000490020106935
0.000510426436244
0.000524124995514
0.000519922546485
0.000456752581389
0.000267768093337
6.68374692833e-05
0.000109856560968
7.15615047625e-12
1.46988760938e-12
)
;
    }
}


// ************************************************************************* //
