/*--------------------------------*- C++ -*----------------------------------*\
  =========                 |
  \\      /  F ield         | OpenFOAM: The Open Source CFD Toolbox
   \\    /   O peration     | Website:  https://openfoam.org
    \\  /    A nd           | Version:  7
     \\/     M anipulation  |
\*---------------------------------------------------------------------------*/
FoamFile
{
    version     2.0;
    format      ascii;
    class       volScalarField;
    location    "0.02";
    object      k;
}
// * * * * * * * * * * * * * * * * * * * * * * * * * * * * * * * * * * * * * //

dimensions      [0 2 -2 0 0 0 0];

internalField   nonuniform List<scalar> 
814
(
21.0919473163
18.6466483828
10.5479012412
21.9250344682
19.1198716034
9.04827960607
21.6982503155
19.704884693
8.48542982567
21.7437343173
22.6344755705
22.2170086303
22.3885386815
25.9685494095
35.6453627837
23.5935743286
30.4021633208
46.2808898022
25.487139515
35.707050841
54.6792300311
28.1537399404
41.2887909627
60.2416497374
31.48334208
46.3511022882
62.9629910406
35.0733582941
50.0738718442
63.2913523166
38.3938718959
52.1519338086
62.1486937302
41.0602788878
52.8660450031
60.4458102674
42.9064441317
52.6332133352
58.5917159328
43.9192388889
51.7590604139
56.6618292846
44.1471494589
50.4076436714
54.6004865985
43.648319815
48.6235088897
52.2764882161
42.4643806461
46.3889772626
49.5453547367
40.612202636
43.6725553424
46.3313915865
38.1752116024
40.5356320499
42.721535942
35.3259686427
37.1233800401
38.8881973621
32.2983483081
33.6365300416
35.0187066445
29.4724749187
30.4378237379
31.4857627971
27.5846850187
28.2804954014
29.1031967334
29.3905341021
29.9118101698
30.6136193467
40.2399169458
40.4808206362
40.6724577874
18.2536304442
17.8002465019
16.8091893944
2.32621863121
2.30329820294
2.26025850791
1.66457084313
1.67735659601
1.7042132774
1.66225230798
1.68059499241
1.72044205988
1.66555063964
1.6847257764
1.72639183972
1.59707431221
1.61311006019
1.64791182823
1.47569839068
1.4874447986
1.51343600355
4.91225749935
23.3505272253
40.765276236
50.4255467031
54.4733655025
55.5803551726
55.0714208632
54.0775053751
53.2082264855
52.5596882362
51.9787516401
51.2150833639
49.988778852
48.0755711733
45.4196387709
42.2014978102
38.6377832778
34.9441442722
31.5516994144
29.3354172588
31.0657242108
40.6056992799
15.521290033
2.21419349264
1.7410956179
1.77258899883
1.77915911992
1.68959760652
1.54350677963
0.0143867866436
0.0222820776143
0.0250199812503
0.0262513948032
0.0260336163692
0.0258536388166
0.0251663003407
0.024548071818
0.0238088607405
0.0229846369624
0.0220663914509
0.0210075273958
0.0198974536387
0.0187562356711
0.0177360660412
0.0167626294869
0.016132309518
0.0155736380052
0.0155110951138
0.0155147145038
0.0161972919849
0.0301791611879
0.0341926478272
0.0355953556711
0.0343257641742
0.0331794685734
0.0315012261837
0.0298780894764
0.0281982556321
0.0264990471714
0.0247900298737
0.0230797968195
0.0214234453302
0.0198716798614
0.018515098358
0.0173297459601
0.0165083618699
0.0158724750751
0.0159006268746
0.0161925556948
0.0346516301566
0.0364699608604
0.0374207301747
0.0423557902486
0.0393478352871
0.0380547513119
0.0354786749672
0.033057693244
0.0305958042831
0.0282398918828
0.0259732019637
0.0238781064406
0.0219368699072
0.0202314754384
0.0187543144029
0.017545740941
0.0166531617648
0.0160582979031
0.0161283262617
0.0168295495255
0.408802341816
0.0396147244815
0.0376639095112
0.0445708938578
0.0434598155285
0.0409597028452
0.0384105397399
0.0353268780752
0.0322214643356
0.0292136540701
0.0264390179892
0.0240335903123
0.0219155246969
0.020169027732
0.0186772252813
0.0175314055622
0.0166297070803
0.0161374710975
0.0160914228179
0.0197767620169
4.47553577725
0.346091995434
0.0535519020858
0.0377685774493
0.043353134889
0.041601356099
0.039527166771
0.0361621430137
0.0329128704124
0.0294334141426
0.0262861267888
0.02365288137
0.0214587636163
0.0197517306214
0.0183313298925
0.0172971495306
0.0164492841315
0.0160536161325
0.0159438817168
0.0226655764361
6.826787082
0.566322545541
0.0680834679977
0.036072676167
0.0405767243582
0.0392187718171
0.0375410832434
0.0351743587812
0.0325786855488
0.0291175117053
0.0258326351731
0.0230533762412
0.0208441718215
0.0192089271489
0.0179032494376
0.0169952899518
0.0162397863996
0.0159135800252
0.0158651617207
0.0263872881053
8.30079233287
0.629543170433
0.0620106881117
0.0355022378308
0.0391057169305
0.0367990739724
0.0344840136452
0.0329719585344
0.0312393709747
0.0283613071928
0.0252687962271
0.0224921412476
0.0203340582713
0.0187882619874
0.0176119605314
0.0168294303085
0.0161780802329
0.0159128758725
0.0160101479442
0.0308464149552
10.4050035476
0.800094874885
0.0641623498648
0.040843226161
0.0431938580934
0.0387957114977
0.0333579626147
0.0309329216518
0.0294337033852
0.0272795219631
0.0247161836831
0.0221989380397
0.0201989431487
0.0187692894447
0.0177248744151
0.0170619600077
0.0165120679275
0.0163145726227
0.0166515370868
0.0363040028371
12.5580229134
1.03860359527
0.0836621330856
0.0608926721688
0.0619307120122
0.0536068691317
0.0391387164145
0.0315653831623
0.0282060622415
0.0262630568228
0.0243582583362
0.0224348625505
0.0207698448642
0.0195128312027
0.0186041683774
0.01805368704
0.017601261179
0.0174837178068
0.0182172051864
0.0434071053234
14.7045783277
1.4379041924
0.153507148379
0.117709254603
0.115966070086
0.0974118389046
0.0603549693533
0.0387197593941
0.029151407465
0.0259162274186
0.0245466132198
0.0235169348131
0.02244148845
0.0214738495142
0.0207224795091
0.0202798203985
0.0199288950914
0.0199091235236
0.0212922604153
0.0530296500423
17.4953148928
2.11540637202
0.322673436379
0.252181726799
0.242210173816
0.19582225783
0.110116617485
0.0580031717923
0.034393340449
0.0271129016344
0.0257080816191
0.0257802958842
0.0256245404723
0.0251467721834
0.0246163951106
0.024287841879
0.0240564045182
0.0241594063333
0.0265362638599
0.0654721146688
20.9426628569
3.17336835392
0.651726881295
0.508634451974
0.470588111841
0.36821027917
0.203298368494
0.0958772938634
0.046466300336
0.030843102348
0.0283024857507
0.0295317421956
0.030646606328
0.0309550862784
0.0307772064765
0.0305935901626
0.0305151898527
0.0307692759569
0.0345014387592
0.0805121705572
24.9222073609
4.7463475505
1.20988685206
0.907278972063
0.793822066706
0.601552634986
0.347232548784
0.157821831332
0.0679858603275
0.0381251719521
0.0327664985484
0.0349866965002
0.0376711832114
0.0391229741283
0.0395073306425
0.0395358859339
0.0396545810083
0.0400810724555
0.0454157044467
0.0974763660642
29.1112731972
6.95061815804
2.06781668502
1.43435529252
1.17296645814
0.868880200527
0.531330268845
0.247639777063
0.101694821326
0.0501014616844
0.0394999619827
0.0422309824648
0.0466428550923
0.0495779792675
0.0507872286051
0.0511320848665
0.0514894110693
0.0520895377541
0.0590246948022
0.115392083854
33.0019264313
9.79676436434
3.26482845386
2.07998423709
1.59556500465
1.16112158876
0.742553565567
0.373468575715
0.153267649737
0.0689341695577
0.0490813551931
0.0512467458275
0.0572832081259
0.0619218608617
0.0642086241528
0.0649914221422
0.0656091424998
0.0663523966522
0.0745722700655
0.133192335152
35.8616561462
13.1222215622
4.80043279233
2.86020646815
2.0879519621
1.50503296547
0.999794325066
0.553612617896
0.236774199814
0.0997815272586
0.0628520916606
0.062022067042
0.0691400925962
0.0754799336268
0.0790091405267
0.0803390377142
0.081203556685
0.082025144267
0.0909519579425
0.150031367507
37.0568168473
16.5256413938
6.67786074389
3.83373768715
2.70067807614
1.94996579165
1.35968792065
0.831256250243
0.387502974728
0.156655758765
0.0845903656643
0.0749597987905
0.0817220863082
0.0894323864872
0.0942152120794
0.0961623498481
0.0972244442323
0.0980304404286
0.106986203793
0.165535044473
36.9033378585
19.2530198448
8.74017500434
5.02775773404
3.49674550875
2.56684415716
1.8774125432
1.28335289042
0.681540317772
0.277732064752
0.126289028123
0.0923296803752
0.0947765429994
0.10296991396
0.108850961863
0.111437776021
0.112632850984
0.113311907096
0.121712431545
0.179870854477
35.7736149335
21.016125847
10.7757715983
6.45926843914
4.55836459776
3.45521486864
2.68383824825
2.02168031422
1.26814966656
0.569907628895
0.231264998148
0.125206665787
0.109676487392
0.115615608716
0.122129192074
0.125350597532
0.126624281164
0.127060907399
0.134566788935
0.193741641151
33.9143022872
21.9969569721
12.7289112194
8.16911908432
5.99042099032
4.74669876
3.92859491466
3.23897887914
2.36644080097
1.29836306038
0.536533653703
0.215455636847
0.135543753834
0.128282865711
0.133728438683
0.137437375176
0.138746633304
0.138832667852
0.145377687196
0.208234703356
31.6347524499
22.5017489435
14.6629107025
10.2324215959
7.93992330673
6.62960561184
5.80301160811
5.14289567211
4.26146655371
2.90930433282
1.40586729176
0.496233058559
0.205145693723
0.146698491918
0.144294607885
0.147630234273
0.148877372804
0.148512685845
0.154266327195
0.224822677672
29.4447259767
23.1054603745
16.9475912593
13.0117137291
10.8216394797
9.51856958468
8.59503519705
7.81698150025
6.96171938734
5.61427689269
3.36289774991
1.28525880384
0.396308682042
0.186158201071
0.156186500081
0.156309789484
0.157157389642
0.156240070112
0.161503408633
0.245343709449
28.3001373219
24.3838997393
20.2585366783
17.3593192127
15.6353406722
14.1519058751
12.3230704607
10.4326738941
9.14990985893
8.24038426539
6.25460793942
2.94353189385
0.826307463153
0.265751917509
0.172415032735
0.164100424928
0.163775822946
0.162246661826
0.167542597438
0.272078368425
31.1001134679
29.6287943077
27.8576713426
25.6447941641
22.0473663232
17.2871907421
12.7005014617
9.40642218607
8.09411421227
8.24202020694
7.83606177614
4.7242252405
1.40567666707
0.366535892576
0.191367421161
0.171231060402
0.168966138566
0.166789652533
0.173088428783
0.307790266899
39.5130016235
35.3627828171
28.7068657729
20.8093912116
13.2327321959
8.2146136576
5.62059919945
4.63132042341
4.90297046443
6.36432833833
7.5217669475
5.25009167756
1.61910551856
0.41228469494
0.202798897579
0.176538064335
0.172541658377
0.170021446411
0.179030542647
0.355553895133
12.5858289994
8.94829536021
6.16962497507
4.38134781335
3.44198772152
3.18639083828
3.40638811634
3.97244579073
4.85430736547
6.06318771845
6.7064266586
4.68434296321
1.46591653975
0.379186294997
0.200768396559
0.178083328519
0.174433833418
0.172151007577
0.186565532968
0.419089858114
2.13091151573
2.1111443129
2.20839678907
2.43430035706
2.807255703
3.33729311145
4.02584382263
4.84457964915
5.67748522539
6.29764527558
6.02082216998
3.76056774985
1.11714751058
0.322295470357
0.19452771479
0.178200271342
0.175449588009
0.17373628328
0.197062700728
0.503373759273
1.82335908246
1.98661656907
2.24259323095
2.63961548247
3.20019891888
3.87455381377
4.55441626719
5.21915822572
5.78520886808
5.92081892007
4.99631858287
2.89170821864
0.825920788611
0.274511701078
0.188495847546
0.178308925257
0.175994882321
0.175266277977
0.211839613986
0.614766162182
1.88139682646
2.09609594433
2.40736716407
2.83068069992
3.31645066141
3.78594531555
4.19641010438
4.5653616193
4.83893237374
4.79271318461
3.84254387646
2.09181329564
0.587966920942
0.238838331304
0.184092339245
0.178313939973
0.176223053176
0.177041155273
0.232082786617
0.760970891909
1.88337262315
2.07419822951
2.32121737102
2.62214929847
2.95332433397
3.24540466309
3.44109778432
3.52984096088
3.53404023198
3.38061446508
2.65960980839
1.33933478795
0.410120498311
0.212442033737
0.180969823605
0.178066854967
0.17617615973
0.179334464768
0.258678128556
0.948949092968
1.76596091711
1.89065609311
2.04532615048
2.23807946586
2.45011344701
2.62062088783
2.68447337846
2.60517619521
2.4277649435
2.16893315115
1.66409234131
0.779677087831
0.296079333129
0.194614619183
0.178878133501
0.177441787377
0.17597996645
0.182436303866
0.291364035102
1.18145718082
1.5959536307
1.67281317657
1.75849365083
1.86343923427
1.98237396302
2.06891850869
2.05875630885
1.91164426284
1.66134422208
1.36064488266
0.985077843766
0.459409057211
0.232422209843
0.0803917733851
0.108473027531
0.116254389727
0.119110451739
0.123385759608
0.126771983323
0.123833738626
0.13120672569
0.125264687986
0.134611891378
0.127724093736
0.137437235881
0.13203482476
0.140292362493
0.138027968735
0.143302002481
0.145493494287
0.146534517961
0.153970613728
0.150159787982
0.162990447259
0.154854093994
0.172049694455
0.161677897469
0.180742182748
0.171556633148
0.189318192703
0.187586866388
0.199071840714
0.211973550251
0.211442579849
0.234532026179
0.228499372949
0.264414250824
0.252348320562
0.300903039429
0.284581546252
0.342917542238
0.326045544753
0.388599918029
0.377389722232
0.437079550999
0.439461016742
0.488661347728
0.514188458832
0.543882221663
0.605238706772
0.603502662148
0.717965621884
0.668789870359
0.858916756775
0.741362938844
1.03564039423
0.823848959958
1.25555106455
0.919844536225
)
;

boundaryField
{
    inletfuel
    {
        type            turbulentIntensityKineticEnergyInlet;
        intensity       0.05;
        value           uniform 13.5;
    }
    inletair
    {
        type            turbulentIntensityKineticEnergyInlet;
        intensity       0.05;
        value           uniform 0.015;
    }
    outlet
    {
        type            inletOutlet;
        inletValue      nonuniform 0();
        value           nonuniform 0();
    }
    axis
    {
        type            empty;
    }
    leftside
    {
        type            kqRWallFunction;
        value           nonuniform List<scalar> 
33
(
0.0803917733851
0.108473027531
0.0155147145038
0.0161925556948
0.0168295495255
0.108473027531
0.119110451739
0.126771983323
0.13120672569
0.134611891378
0.137437235881
0.140292362493
0.143302002481
0.146534517961
0.150159787982
0.154854093994
0.161677897469
0.171556633148
0.187586866388
0.211973550251
0.234532026179
0.264414250824
0.300903039429
0.342917542238
0.388599918029
0.437079550999
0.488661347728
0.543882221663
0.603502662148
0.668789870359
0.741362938844
0.823848959958
0.919844536225
)
;
    }
    burnerwall
    {
        type            kqRWallFunction;
        value           nonuniform List<scalar> 7(10.5479012412 9.04827960607 8.48542982567 0.0143867866436 0.0161972919849 0.0346516301566 4.91225749935);
    }
    front
    {
        type            wedge;
    }
    back
    {
        type            wedge;
    }
    procBoundary0to1
    {
        type            processor;
        value           nonuniform List<scalar> 
27
(
1.35610351705
1.36474197677
1.38431395201
1.40562015129
0.184132656963
0.177580466745
0.176633235528
0.175836423407
0.186664829776
0.329717343305
1.45142311676
1.43944251112
1.47696379427
1.50824998153
1.5472340586
1.59415155785
1.61730090381
1.56581572807
1.40567409966
1.15853186038
0.87950520664
0.59312229615
0.304770270836
0.184132656963
0.201262187215
1.52219939531
1.03307958321
)
;
    }
}


// ************************************************************************* //
