/*--------------------------------*- C++ -*----------------------------------*\
  =========                 |
  \\      /  F ield         | OpenFOAM: The Open Source CFD Toolbox
   \\    /   O peration     | Website:  https://openfoam.org
    \\  /    A nd           | Version:  7
     \\/     M anipulation  |
\*---------------------------------------------------------------------------*/
FoamFile
{
    version     2.0;
    format      ascii;
    class       volScalarField;
    location    "0.02";
    object      N2;
}
// * * * * * * * * * * * * * * * * * * * * * * * * * * * * * * * * * * * * * //

dimensions      [0 0 0 0 0 0 0];

internalField   nonuniform List<scalar> 
814
(
1.7785357298e-08
1.3888516337e-08
5.31397703618e-09
1.84901318423e-06
1.92558080059e-06
1.49386762893e-06
9.66526516543e-05
0.000162209842076
0.000391223386884
0.00310441359734
0.00955454886608
0.0790129287852
0.00883798997462
0.0225065168197
0.111706597042
0.0185187737026
0.0412429259304
0.145789517438
0.0336258238483
0.0669235854654
0.182085449235
0.0552443635248
0.0988925614424
0.218082918292
0.0836902371958
0.135048156006
0.251730995713
0.117810058523
0.172507987122
0.281567301655
0.15520973578
0.208775853685
0.307117275199
0.193438838181
0.24257238542
0.329032966317
0.230661907266
0.273537966462
0.348021228325
0.26575129327
0.301786858963
0.364723410914
0.298101691982
0.327592499932
0.379848719991
0.327324857036
0.351052023866
0.393872545454
0.353275451144
0.372204618411
0.407072158102
0.376360475208
0.391496916015
0.419981931165
0.39757327218
0.409833114621
0.433371004414
0.418227245933
0.428326174804
0.448014191899
0.439163164566
0.447515432786
0.463959053283
0.460150546882
0.466870404453
0.48016679843
0.480746796147
0.485823712123
0.495883757289
0.50320703159
0.506674340599
0.513575979135
0.545617550696
0.548507503795
0.55438547854
0.682794503503
0.685009862912
0.689537166387
0.757599221474
0.757715141402
0.757946506074
0.761037691054
0.761020499355
0.760981827527
0.761462323148
0.761444032405
0.761402919763
0.761832258749
0.761817714347
0.761784826775
0.762201884161
0.762193098636
0.762172629515
0.762560643523
0.762556567237
0.76254631296
0.552308650613
0.436333224252
0.378981970607
0.367330328057
0.373139216314
0.385474592206
0.39888061383
0.410195238233
0.419101943753
0.42593682344
0.431244448357
0.435883537319
0.440603474182
0.445975433381
0.452543204156
0.460918658986
0.471498017875
0.483808351234
0.49631010261
0.508153676985
0.522117644331
0.562102768636
0.695318312148
0.758223760391
0.760926364058
0.761345074722
0.76173864551
0.762143507917
0.762531146901
0.767994539292
0.767995864653
0.767997616517
0.767998607508
0.767999069914
0.767999272492
0.767999362803
0.767999407149
0.767999429918
0.767999442712
0.767999450354
0.767999455701
0.76799945971
0.767999463036
0.767999465889
0.767999468279
0.767999470821
0.767999475085
0.76799950845
0.767999757742
0.767806514253
0.76790896007
0.767969171651
0.767988164593
0.767994539518
0.767996924142
0.76799780574
0.767998200951
0.767998364778
0.767998444945
0.767998478595
0.767998498323
0.767998508543
0.767998516159
0.767998522901
0.76799852594
0.767998535795
0.767998542404
0.767998648113
0.76799927608
0.766413950865
0.76773153595
0.767903829299
0.767961703786
0.767982865889
0.767991414564
0.767994756722
0.767996333551
0.767996988555
0.767997286306
0.767997393416
0.767997441974
0.767997458454
0.767997468731
0.767997478272
0.767997479759
0.76799750012
0.767997505919
0.76799770055
0.767998277474
0.746685034988
0.766842786288
0.767640865351
0.767862601145
0.767935002509
0.767968119229
0.767982872501
0.767990255035
0.767993429074
0.767994837566
0.767995338432
0.767995524531
0.767995572374
0.76799559109
0.767995604881
0.767995601233
0.767995641145
0.767995640214
0.767995953258
0.767986849768
0.661355851391
0.751248405549
0.764565630391
0.767072184253
0.767683464046
0.767869039146
0.767938469102
0.767968261219
0.767982277278
0.767988680774
0.767991106115
0.76799196465
0.767992177789
0.767992232344
0.767992253287
0.76799223723
0.7679923099
0.767992292335
0.767992829928
0.767977341119
0.640677081529
0.743248049645
0.762485661032
0.766322716712
0.767305115725
0.767644812277
0.767810295499
0.7679008782
0.767948914423
0.767971523346
0.767981357213
0.767985066999
0.767986074399
0.767986299804
0.767986341081
0.767986298606
0.767986414767
0.767986364706
0.76798729515
0.767964962314
0.632863434651
0.738887266592
0.76123574217
0.765474539902
0.766680167204
0.767171855642
0.767520773506
0.767734670234
0.767856928301
0.767926401862
0.767957499351
0.767970969951
0.767975103169
0.767976059264
0.767976194432
0.767976107092
0.767976257924
0.767976148594
0.767977661258
0.767950219601
0.619459440905
0.731414630478
0.759309869925
0.764112540442
0.765523429778
0.766251822017
0.766935234236
0.767379216764
0.767658458849
0.767815869317
0.767903229743
0.767941752804
0.767955502935
0.767958995551
0.767959519951
0.767959384028
0.767959513088
0.767959304136
0.767961482649
0.767930732604
0.608988116147
0.723216710194
0.755956071288
0.7615453195
0.763327099208
0.764532274818
0.76584931134
0.766721257416
0.76728046339
0.767602552767
0.767789199332
0.767883898683
0.767921816414
0.767931839785
0.767933598974
0.767933476372
0.767933453897
0.767933094403
0.76793579515
0.767902390237
0.600943833729
0.715007768931
0.749699359955
0.756739461914
0.759231305691
0.761399250265
0.763952435475
0.765616048205
0.766646980018
0.767235035368
0.767589936717
0.76778285565
0.767865566677
0.767890872299
0.767895726522
0.767895838164
0.767895461099
0.767894900495
0.767897711675
0.767861296762
0.590447415391
0.703340172836
0.739873520669
0.748469958778
0.752144588329
0.756124032401
0.760869942788
0.763895234532
0.765680373251
0.766675513855
0.767281724419
0.767623595144
0.767780585346
0.76783263331
0.767843802807
0.767844672761
0.767843716578
0.767842926178
0.767845283142
0.767805106345
0.577572614547
0.687929649117
0.726899779559
0.736661490565
0.741948643795
0.748578634295
0.756374948636
0.761448691447
0.764326086552
0.765902229972
0.76685487293
0.767399956119
0.767661713709
0.767754658538
0.76777689302
0.767779554845
0.767777899746
0.767776900117
0.767778276377
0.76773322035
0.563408005532
0.66998948796
0.711301099469
0.72288320208
0.730371010062
0.739829173701
0.750716868266
0.758315358577
0.762585272918
0.764921561373
0.76631605971
0.767113855153
0.767507355661
0.767655888367
0.767695500448
0.767701813466
0.767699654573
0.767698541669
0.767698575692
0.767646608522
0.54895522804
0.650790125531
0.694547427001
0.709114844119
0.719402620953
0.731448569943
0.744622386968
0.754688688688
0.760533569016
0.763772823555
0.765684630734
0.766771491618
0.767317490773
0.76753612333
0.767601332686
0.767614471117
0.767612604153
0.767611573691
0.767610015495
0.767547378269
0.535506694631
0.631710380717
0.678231819436
0.696723657803
0.71002950511
0.72416196437
0.738705282862
0.750740002957
0.758242739566
0.762493751888
0.76497466049
0.766374823797
0.767090328583
0.767394763342
0.767496568139
0.767521666857
0.767521808691
0.767521191218
0.767517686023
0.767438030129
0.524479839469
0.613630059051
0.66326030011
0.686040482893
0.702067013776
0.717653843521
0.732986693682
0.746431478218
0.755620048498
0.761044308753
0.764165061647
0.765910080564
0.766817847538
0.767229132203
0.767382835213
0.767427670224
0.767432769395
0.767433081864
0.767426901754
0.767320743034
0.517042485041
0.597324514926
0.64971896614
0.676506959446
0.694865842743
0.711371333505
0.726823396276
0.741181907304
0.752242694791
0.759205078848
0.763153899025
0.765335694777
0.766483101414
0.767033739572
0.767260369805
0.76733589027
0.767350280006
0.767352293348
0.767342132028
0.767196793684
0.513197355297
0.585496431883
0.638376344472
0.667780061451
0.687562748779
0.704404896806
0.719887534524
0.734136598398
0.747332241747
0.75647277672
0.761714220602
0.764560077255
0.766053078076
0.766797894118
0.767127324513
0.767248112995
0.767277519922
0.767282319314
0.767266243
0.767066440031
0.513167036108
0.578632305984
0.629161718716
0.659195661104
0.679330548021
0.695868932186
0.710940180715
0.725341268361
0.739636487474
0.751920243293
0.759336911147
0.76338778285
0.765465164603
0.766503754609
0.766979557893
0.76716439884
0.767215760977
0.767224704696
0.767200171408
0.766929658623
0.516615113057
0.575201307239
0.621274928508
0.650026707504
0.669473899049
0.685174859737
0.699536723493
0.713872965673
0.729002962553
0.744122521484
0.755026049038
0.761420719046
0.764584668273
0.766114935191
0.766808507196
0.767083009697
0.76716455715
0.767179222194
0.767143249777
0.76678765437
0.522194601962
0.572913158575
0.613024602125
0.639159436533
0.657225638285
0.671937488036
0.685807466949
0.700229709415
0.715787750849
0.732247051932
0.747327225292
0.757889400501
0.763185647483
0.765578722979
0.766604705199
0.767001999413
0.767122533092
0.767144457636
0.767094030714
0.766643152976
0.527614318557
0.568611686877
0.602233207243
0.625311427038
0.642147375051
0.656619593981
0.671150896079
0.686613964095
0.702580819999
0.718971015509
0.736397456871
0.752006449571
0.761019896032
0.764842931277
0.766360078189
0.766919639353
0.767087993394
0.767118455673
0.767051047622
0.766500940075
0.532083760892
0.563283549119
0.589758375778
0.610384610406
0.627817326137
0.645018391291
0.663256398706
0.681571284974
0.697736383623
0.712129912699
0.727319212747
0.744750985925
0.758130754331
0.763962213051
0.766098496204
0.766841789791
0.767060581925
0.767099314796
0.767012786798
0.766367945504
0.539153305132
0.562244685176
0.585154393168
0.608306395347
0.633036920924
0.658556741833
0.682324730639
0.702046652093
0.714224710547
0.721606253991
0.728818568028
0.741149843644
0.755763218101
0.763257545089
0.765896581056
0.766783515022
0.767041150102
0.767085353386
0.766977399861
0.766246895144
0.578750200261
0.604926192931
0.634345633791
0.665094056344
0.695779608813
0.718748483377
0.732509578434
0.739195691289
0.740369369834
0.738145637893
0.736811902195
0.742641485587
0.755489966197
0.763124154908
0.765854166867
0.766765830457
0.767032492862
0.767075138258
0.766942553076
0.766135304465
0.70764687422
0.722730474539
0.735092590178
0.744262733864
0.750222932504
0.753200249583
0.753530041717
0.751704370093
0.748042860763
0.743425888903
0.740752525631
0.745011000113
0.756543055147
0.763543312735
0.765980400364
0.766794108817
0.767034351403
0.767066949289
0.766905393351
0.766029418339
0.758754247682
0.759102989184
0.759112270994
0.758763823955
0.758030020446
0.756848173207
0.755059106162
0.752431463995
0.748870822506
0.744998276565
0.743237023731
0.747816895746
0.75843690661
0.764137170288
0.766142576505
0.766837516881
0.767040743093
0.767058680416
0.766864716234
0.765926772423
0.760797805049
0.760510552178
0.76006401289
0.759414874436
0.758502938898
0.757236309483
0.75546320759
0.752993587355
0.749884273415
0.74688799974
0.74631482315
0.751077944927
0.760215758755
0.764711446572
0.76631874179
0.766886826605
0.767048617208
0.767048678589
0.766820567218
0.765827873407
0.761215460697
0.760930456717
0.76050707485
0.759921892794
0.759141440224
0.758083729744
0.75663568903
0.75468859955
0.752315233957
0.750179550762
0.750178746888
0.75451102094
0.761881744518
0.76523735558
0.766488123892
0.766934033612
0.767055227584
0.767036572039
0.766773771906
0.765734967165
0.761637283584
0.76141987192
0.761107107597
0.760683401389
0.760121018672
0.759374991839
0.758375299504
0.757050446901
0.755457270865
0.754041385145
0.754256679609
0.758005732817
0.763368664219
0.765719214016
0.766645511758
0.766975973404
0.767059585456
0.767022336197
0.766726072395
0.765652928715
0.76207940874
0.761937325359
0.761724411458
0.76143448491
0.76106200013
0.760591924532
0.759998885492
0.759254156029
0.758399548395
0.757670865167
0.758028836235
0.761078471443
0.764565877734
0.766127780364
0.766778549874
0.76700977283
0.767061152719
0.767006206007
0.766680000564
0.765586072951
0.762496775388
0.762415236864
0.762287423026
0.762109844499
0.761886670216
0.761626560572
0.761334180328
0.761012595125
0.760701647278
0.760526847094
0.761047730421
0.763313654691
0.765437990103
0.767099502113
0.766753112975
0.76738830591
0.767012332194
0.767505040796
0.767168852441
0.767539786607
0.767203548538
0.76752016793
0.767175850936
0.767462306691
0.767108360432
0.767371901545
0.767007786343
0.767253781808
0.766879710641
0.767111509873
0.766727718919
0.766948583387
0.766554548334
0.766767965296
0.766361510203
0.766571318188
0.766146798174
0.766357670425
0.765903022716
0.766123152012
0.765617763697
0.765863605064
0.765268531126
0.76554514453
0.764878116264
0.765168697799
0.764454349893
0.764762490942
0.76401866749
0.764371628856
0.763607517147
0.764031472847
0.763252185478
0.763752076835
0.762964189604
0.763526300624
0.762734340462
0.763340639748
0.762546499283
0.763188529771
0.762391352098
0.763073254693
0.762271696764
0.763006304047
0.762201182384
0.763004403927
0.762199917236
0.763091208041
0.762294378251
)
;

boundaryField
{
    inletfuel
    {
        type            fixedValue;
        value           uniform 0;
    }
    inletair
    {
        type            fixedValue;
        value           uniform 0.768;
    }
    outlet
    {
        type            zeroGradient;
    }
    axis
    {
        type            empty;
    }
    leftside
    {
        type            zeroGradient;
    }
    burnerwall
    {
        type            zeroGradient;
    }
    front
    {
        type            wedge;
    }
    back
    {
        type            wedge;
    }
    procBoundary0to1
    {
        type            processor;
        value           nonuniform List<scalar> 
27
(
0.762887136955
0.762887463524
0.762886658674
0.762884357242
0.766442198553
0.766880143764
0.767034217406
0.767059964025
0.76698867418
0.766636736511
0.765528702692
0.762877079467
0.762848940246
0.762791952295
0.762704647959
0.762598248176
0.762491955722
0.762404753831
0.762355026337
0.762378924379
0.762552467886
0.763179133555
0.764743345928
0.766442198553
0.76602297792
0.763308241512
0.762505856698
)
;
    }
}


// ************************************************************************* //
