/*--------------------------------*- C++ -*----------------------------------*\
  =========                 |
  \\      /  F ield         | OpenFOAM: The Open Source CFD Toolbox
   \\    /   O peration     | Website:  https://openfoam.org
    \\  /    A nd           | Version:  7
     \\/     M anipulation  |
\*---------------------------------------------------------------------------*/
FoamFile
{
    version     2.0;
    format      ascii;
    class       volScalarField;
    location    "0.02";
    object      nut;
}
// * * * * * * * * * * * * * * * * * * * * * * * * * * * * * * * * * * * * * //

dimensions      [0 2 -1 0 0 0 0];

internalField   nonuniform List<scalar> 
814
(
0.00231947336232
0.00141784192318
0.000175189369923
0.00195080322065
0.00122587190411
0.000150257133072
0.00175222328887
0.00113871258818
0.000140964603836
0.00151052501512
0.000973704890689
0.000258939559712
0.00130709144142
0.000871060693346
0.000432115322177
0.00114754949051
0.000851579769331
0.000615600257272
0.00105446736445
0.000899478469332
0.000809173301486
0.00103211089137
0.000995532589858
0.000995857667172
0.00107105972955
0.00111929929566
0.00116325803408
0.00115571119994
0.00125069766927
0.00130552632065
0.00126804908611
0.00137735558655
0.00142734133604
0.00139338285878
0.00149720664245
0.00153953269768
0.00152236846727
0.00161240060867
0.00164963715045
0.00164991739971
0.00172508096936
0.00176099794763
0.00177303557338
0.00183598661267
0.00187369253378
0.00188861268831
0.00194261549956
0.00198340820513
0.00199186694443
0.00203907721286
0.00208197030129
0.00207675604621
0.00211849145096
0.00216209362815
0.00214005798301
0.00217787580844
0.0022226356111
0.0021851627548
0.00222092847996
0.00226845209878
0.00222293814985
0.00225789866289
0.00230964685383
0.00227987242183
0.00231511547875
0.0023729462862
0.0024290178364
0.00246734576675
0.0025360949675
0.00294224713305
0.00298539677787
0.0030666631394
0.00405445497471
0.00407096451972
0.004094573957
0.00207022110803
0.00202885128971
0.00194111725518
0.000711292225265
0.000719631859467
0.000740974306412
0.00106131808194
0.00106564520029
0.00107534277028
0.00105430675545
0.00105918378803
0.00107046088344
0.00103377939252
0.00103829855516
0.00104889734767
0.000985780762095
0.000988856343369
0.000996373109405
0.000920354818279
0.00092200735589
0.000926495093582
0.000523736470761
0.000354885758415
0.000604090336916
0.000804256405668
0.000957560880137
0.00108326039832
0.00119082832503
0.00129338745867
0.00140212550258
0.00152222941112
0.00165385590954
0.00179284267092
0.00192922323892
0.00204943796559
0.00214677092977
0.00222315393905
0.00228487737765
0.00234273776325
0.00242463778055
0.00261116470227
0.00316447943926
0.0041081924821
0.00182634130021
0.000775570550223
0.00108936702475
0.00108642577235
0.00106352738954
0.00100643201182
0.000932459663059
2.31961644278e-05
0.000133222977877
0.000174569203966
0.000191897716972
0.000203860827252
0.000215820943994
0.000227823065704
0.000241275941915
0.000255563524168
0.000269943139015
0.000283936403464
0.000295842603563
0.000305518782439
0.000311672764286
0.000315387745749
0.000315466380093
0.000315665894853
0.000313291906026
0.000303307608402
9.59403299159e-05
2.51604021985e-05
9.41435956009e-05
0.000143251857696
0.000172974262995
0.000192483916479
0.000209216624881
0.000222246774031
0.000235374349133
0.000248131767251
0.000260128296445
0.000270900952376
0.000279258221976
0.000285227439423
0.000288058240326
0.000289011783638
0.000287079895698
0.000286002153494
0.000282668197133
0.000271055503322
9.80070560546e-05
4.29299330775e-05
8.13670218036e-05
0.000114855066267
0.000156740998214
0.000178728066699
0.000201664908548
0.000216281541501
0.000229723691263
0.000240962366874
0.0002507986681
0.000258539816416
0.000264017754517
0.000267005606946
0.000267521504673
0.000266397478083
0.000263346312108
0.000261147644506
0.000257634428425
0.000247401943343
9.99126244683e-05
4.05859291768e-05
7.46581425248e-06
4.51040271157e-05
0.000113269874327
0.000144279648197
0.000173222501621
0.000193084827086
0.000210372137427
0.000222263048838
0.000230912597858
0.000235933522852
0.000238627367602
0.000238712002115
0.000237043043656
0.000234007191948
0.000230005597212
0.000226852272102
0.000223447397964
0.000216757141948
0.000103184126895
9.18399852465e-05
9.56892727166e-06
2.70452272668e-06
8.90421436543e-06
5.0705552629e-05
0.000115015751385
0.0001494926455
0.000173643412987
0.00019016069723
0.000200299877019
0.000203964363199
0.00020446914539
0.000202146337747
0.000198698070559
0.000194296192246
0.000189717118048
0.000186141839441
0.00018298991447
0.000179819026697
9.90822414614e-05
0.00014689146229
1.65817358923e-05
3.22827894999e-06
6.53764710228e-06
3.45803163448e-05
7.5351334422e-05
0.000102989060816
0.000128251549933
0.000149413391651
0.000162965496172
0.000167079772633
0.00016640079091
0.000162524500129
0.000158009591957
0.000153071294404
0.000148520840884
0.000145118034528
0.000142403690782
0.000141907545211
9.98231663085e-05
0.000197327695132
2.11176581546e-05
3.5949020632e-06
7.3426791519e-06
2.87500895252e-05
4.81522512167e-05
6.49360618662e-05
8.60087747717e-05
0.000108523134387
0.000125021288402
0.000131041798896
0.000130498699372
0.000126247232629
0.000121593273347
0.000116965884449
0.000113050058787
0.000110200423316
0.00010811498209
0.000109184495419
0.000105488992475
0.000274594730825
3.13270788702e-05
4.50619607433e-06
9.89754016537e-06
2.5999030131e-05
3.29718433765e-05
3.99239764451e-05
5.36048442947e-05
7.33552503946e-05
9.09219308327e-05
0.000100050950988
0.000101271521589
9.79242240227e-05
9.39284236251e-05
9.01430189562e-05
8.71637818126e-05
8.4980051917e-05
8.3578631032e-05
8.56083889611e-05
0.000114327679905
0.000370446590624
4.80611107467e-05
6.9348448579e-06
1.608023271e-05
2.9990712182e-05
3.18769242067e-05
3.01942176601e-05
3.48496120642e-05
4.76501620485e-05
6.35702014437e-05
7.5833860044e-05
8.04238102575e-05
7.9168592957e-05
7.63436788343e-05
7.35597039545e-05
7.14940269425e-05
6.9931860328e-05
6.91394444357e-05
7.22201914611e-05
0.000126674260071
0.000482951790643
7.36427273789e-05
1.3841022081e-05
3.15901024612e-05
4.84937434021e-05
4.75262056608e-05
3.49516357479e-05
2.92661374451e-05
3.31404563547e-05
4.46735332721e-05
5.86991252435e-05
6.76120860032e-05
6.94556966933e-05
6.81887452107e-05
6.63888127147e-05
6.50722562509e-05
6.40503622342e-05
6.37674226846e-05
6.84681683366e-05
0.000144331604088
0.000625836629794
0.000116501512838
3.15799443217e-05
6.71902303123e-05
9.37903974663e-05
8.77149069144e-05
5.58530433573e-05
3.48707929187e-05
2.83200911081e-05
3.40523286119e-05
4.81364846256e-05
6.1640545904e-05
6.75286391211e-05
6.83004162529e-05
6.75183893788e-05
6.68167347777e-05
6.62928730413e-05
6.64685476816e-05
7.36059969741e-05
0.000168054438565
0.000800622638704
0.000186201119697
7.03065938128e-05
0.000133338814759
0.000174979178526
0.000159511415756
9.79375452583e-05
5.18715381637e-05
3.11563200194e-05
3.0094543554e-05
4.31395363345e-05
6.12758869903e-05
7.21936944073e-05
7.57253446232e-05
7.61893192663e-05
7.60829805234e-05
7.60819756032e-05
7.67212339079e-05
8.71269517801e-05
0.000197148213866
0.00100471535529
0.000293694818025
0.000139895550785
0.000229589136274
0.000286476123347
0.000258158471113
0.000164389936566
8.19793575713e-05
4.09752228226e-05
3.12700741174e-05
4.25662646642e-05
6.54068123919e-05
8.24370823033e-05
8.97017904756e-05
9.18763489301e-05
9.24800164042e-05
9.3081153458e-05
9.42133128889e-05
0.000108432026635
0.00022978988883
0.00123074870062
0.000449836809829
0.000248335240971
0.000349135246305
0.000412559581051
0.00037179711354
0.000251636635207
0.000127149319896
5.84538848451e-05
3.68756920723e-05
4.53970509584e-05
7.28206913994e-05
9.71086497247e-05
0.0001092947527
0.000113854190453
0.000115400570839
0.000116697562421
0.000118333542708
0.000136317055223
0.000263476633924
0.00146602700855
0.000659790594494
0.0003987807705
0.000485855631743
0.000546015502188
0.000494278952736
0.000354820512817
0.000191348272013
8.6267049952e-05
4.73137353977e-05
5.07794116244e-05
8.18797229248e-05
0.000114527378485
0.000133058020392
0.000140843305435
0.000143645987859
0.000145698104354
0.000147792415509
0.000168749969059
0.000295393178984
0.00168662135591
0.000914780451649
0.000589990337877
0.000641786567084
0.000690405816526
0.000631189077911
0.000479143305885
0.000282709978188
0.000131397248859
6.48530110196e-05
5.8338672603e-05
9.0434646629e-05
0.000132172605399
0.000158862019649
0.00017091492009
0.000175345129451
0.000178141852188
0.000180576426332
0.000203091818912
0.000322996535514
0.00186792300915
0.00119299688417
0.000824327659454
0.000828876452076
0.000858566165055
0.00079457452388
0.00064125195813
0.000419898364612
0.000210477792101
9.64501661344e-05
6.93267707379e-05
9.6525895772e-05
0.000146723862198
0.000183916960819
0.000201649404349
0.000208181202822
0.000211654234992
0.000214246263509
0.000236634439038
0.000344650967966
0.00201723389393
0.00146464255876
0.00109743975529
0.00105779808327
0.00106710401035
0.00100371297615
0.000854547729408
0.000630060029164
0.000356054582873
0.000160881578712
9.00674573901e-05
0.000100005735473
0.000154253654832
0.000204689140545
0.000230413460187
0.000239802204534
0.000243906266202
0.000246438785452
0.000267158854443
0.000359841614899
0.00214393311179
0.00171903477591
0.00140061458219
0.00133794379292
0.00133148351264
0.00127433924006
0.00114481792561
0.000929671912647
0.000619524587205
0.000303370248048
0.000142179724185
0.000107064738463
0.000151238620304
0.000216588014041
0.000254479839446
0.000268210516728
0.000273065325708
0.000275330879013
0.000293262791938
0.000369027939786
0.00225525658822
0.00196464777224
0.00173500035337
0.00167643830088
0.00166001132685
0.0016086473802
0.00150782504243
0.0013308598894
0.001026693492
0.000606231676477
0.00028210854289
0.000141369898992
0.000140737278811
0.000212571542954
0.000270415544224
0.00029189891141
0.000298029288887
0.000299882759483
0.000314336221845
0.000373029352493
0.0023647926114
0.0022177465215
0.00210423135285
0.00207121998356
0.00204542234274
0.00198702001443
0.00190455437209
0.00178468329133
0.00155499183266
0.00113743205243
0.000615676078123
0.000257409780612
0.000148489597173
0.000190063178831
0.000273041187489
0.000309618979722
0.000318381911205
0.000319795495015
0.000330388410788
0.000373579540661
0.0025023678145
0.00250436099508
0.00251451838884
0.00252054350768
0.00248032402632
0.00238937915737
0.00228206112382
0.00218740239274
0.00207230374285
0.00180328119804
0.00121099851402
0.000543427560332
0.00021281396156
0.000169374853167
0.000257734918688
0.000319912705828
0.00033419825671
0.000335339284636
0.000341774406016
0.000373571168325
0.002750830408
0.00288327455674
0.00298661025979
0.00302484910564
0.00296542390436
0.00280954114986
0.00257838820234
0.00235561845137
0.00226842838392
0.0022480605499
0.00190398922979
0.00104904199275
0.000363374055741
0.000177004110389
0.000233833231726
0.000322747291129
0.000345845548692
0.000347057045154
0.000349012665547
0.000377104673102
0.00335649483009
0.00356429985022
0.00368248769067
0.00361868408481
0.00330782273745
0.00280540668309
0.0022783760804
0.00191220129935
0.00189323901348
0.0021768486617
0.00227617279331
0.00157027548373
0.000567112702154
0.000208878020218
0.000221374863903
0.000322660115113
0.000354195141932
0.000355582463787
0.000352554279867
0.000387031304008
0.00409183645773
0.00386479284266
0.00338444053751
0.00271036286975
0.0019674319208
0.00144824699714
0.00122459010406
0.00127279656036
0.00158399277111
0.00209587060218
0.00242796323606
0.00182968750052
0.000669803105171
0.000232596085519
0.000225714826187
0.00032663652164
0.000360308785459
0.000361382090432
0.000352443358935
0.000404525359623
0.00157717704147
0.00125546684777
0.00101009735678
0.000884161073128
0.000918243798621
0.00114909076347
0.0014900268461
0.00181077067099
0.00210259821013
0.00238879261813
0.00246405314963
0.00178600001653
0.0006450356699
0.000230411124382
0.000240678798726
0.000335401825042
0.00036479320867
0.000364759574542
0.000348263865425
0.000430434462474
0.000881644687081
0.00103100574893
0.00118662255596
0.00133779370712
0.00150165023974
0.00170048494972
0.00194473502539
0.00221750707166
0.00246412988079
0.00258298050551
0.00238381488654
0.00155403961649
0.000528114713714
0.000219779823408
0.000256825678241
0.000344070895073
0.000367989122092
0.000366032375659
0.000340174991692
0.000466508190062
0.00112166240723
0.00118649713312
0.00128115457019
0.00141509476599
0.00159494415117
0.00181132316483
0.00204316412857
0.00227462913636
0.0024559554474
0.00245614429215
0.00208206315405
0.00126440203448
0.000420336839594
0.000214472116405
0.000275572055739
0.000352652851531
0.000370174547297
0.000364990844016
0.000329859971006
0.00051568401356
0.00112241443185
0.00119648950882
0.00129766343213
0.00142460281811
0.00156758838873
0.00171386045812
0.00185433983488
0.00198705433358
0.0020802688958
0.00203725031638
0.00166950888864
0.000962746777732
0.000328506141658
0.000217517165076
0.00029579420065
0.00035991250638
0.000371256377786
0.00036113288815
0.000320407124227
0.000581639409546
0.00109540253844
0.001155939395
0.00122992763896
0.00131342500171
0.00140299130452
0.00148502883353
0.00154556025963
0.00157946578932
0.00158099117576
0.00150733954742
0.00121669847073
0.000660274411002
0.000261286090415
0.00023090097606
0.000317085641939
0.000365552568838
0.000371077831257
0.000353887644801
0.000315275022742
0.000668378157788
0.00102756635131
0.00106459613783
0.00110790998982
0.00115590198432
0.00120493978917
0.00124172926557
0.00124884211666
0.00121475613244
0.00114466241312
0.00103351438554
0.000816127659026
0.000425141630144
0.000226428313071
0.00025507671278
0.000336528465433
0.000369101304512
0.000369464156171
0.000343224795801
0.000316967415
0.000778306850654
0.000944810179705
0.000964840151428
0.000985142360708
0.00100469794038
0.00102241111774
0.00102794383309
0.00100342740905
0.00093575443213
0.000830477797589
0.000700013444091
0.000529976885296
0.000290944982936
0.000223351038809
0.000250403450341
0.000167705921439
0.000152874409602
0.000184441671107
0.000153358335884
0.000196496314363
0.000159970814263
0.000203428699018
0.000169434724418
0.000208695794077
0.000179627524718
0.000213017824005
0.000190680295608
0.000217347106104
0.000202201478374
0.000221878228317
0.000213742263627
0.000226722148359
0.000224476736165
0.000232142027522
0.000232979995776
0.000239182617915
0.000236488103425
0.000249466405729
0.000231326804571
0.000264395409724
0.000216093760276
0.000288692674525
0.000190621129934
7.71591439373e-05
0.000176786863051
8.1168167258e-05
0.000168808910416
8.61896752943e-05
0.000164144433965
9.19510856547e-05
0.000164814315272
9.8166426912e-05
0.000171412260024
0.000104506710843
0.000182624569312
0.000110840905311
0.000197231158812
0.000117207240144
0.00021499392685
0.000123663874768
0.000237224024741
0.000130281580529
0.000265986461409
0.000137168236462
0.000303689903608
0.000144444298076
0.000353162500495
0.000152296723537
0.000416609937428
0.000160953409604
)
;

boundaryField
{
    inletfuel
    {
        type            calculated;
        value           uniform 0.0100623058987;
    }
    inletair
    {
        type            calculated;
        value           uniform 0.000335410196625;
    }
    outlet
    {
        type            calculated;
        value           nonuniform 0();
    }
    axis
    {
        type            empty;
    }
    leftside
    {
        type            nutkWallFunction;
        Cmu             0.09;
        kappa           0.41;
        E               9.8;
        value           nonuniform List<scalar> 
33
(
0
0
3.23488153389e-06
3.56891942954e-06
3.8756040507e-06
0
0
0
0
0
0
0
0
0
0
0
0
0
0
0
6.37266577116e-07
1.4365144949e-06
2.34828027092e-06
3.32712445763e-06
4.32131876691e-06
5.31096664565e-06
6.30188927333e-06
7.30205286145e-06
8.32168191011e-06
9.37736543085e-06
1.04878689722e-05
1.16820494265e-05
1.29947239031e-05
)
;
    }
    burnerwall
    {
        type            nutkWallFunction;
        Cmu             0.09;
        kappa           0.41;
        E               9.8;
        value           nonuniform List<scalar> 7(0 0 0 0 0 0 8.28120875939e-07);
    }
    front
    {
        type            wedge;
    }
    back
    {
        type            wedge;
    }
    procBoundary0to1
    {
        type            processor;
        value           nonuniform List<scalar> 
27
(
0.00085816444853
0.000858740865741
0.000860952988157
0.000863716802382
0.000285918319282
0.000351493123758
0.000370669261593
0.000366270327081
0.00033005640505
0.0003262323203
0.000907259526042
0.000869000855079
0.00087465488534
0.000876185257015
0.000873800893778
0.000867274990969
0.000849773952042
0.000807193312075
0.000728282853213
0.000617725904013
0.000492523224562
0.000360612192513
0.000237024712024
0.000285918319282
0.000244162769373
0.000498674517993
0.000170586708544
)
;
    }
}


// ************************************************************************* //
