/*--------------------------------*- C++ -*----------------------------------*\
  =========                 |
  \\      /  F ield         | OpenFOAM: The Open Source CFD Toolbox
   \\    /   O peration     | Website:  https://openfoam.org
    \\  /    A nd           | Version:  7
     \\/     M anipulation  |
\*---------------------------------------------------------------------------*/
FoamFile
{
    version     2.0;
    format      ascii;
    class       volScalarField;
    location    "0.02";
    object      O2;
}
// * * * * * * * * * * * * * * * * * * * * * * * * * * * * * * * * * * * * * //

dimensions      [0 0 0 0 0 0 0];

internalField   nonuniform List<scalar> 
814
(
2.6271344191e-09
1.86246841944e-09
2.59437299738e-10
3.21636721006e-07
3.20436131261e-07
1.35418023733e-07
1.86637122602e-05
3.16600324585e-05
7.25331556706e-05
0.00062756938373
0.00202390699366
0.0177522620444
0.000922035005033
0.00213114173814
0.00896121605102
0.000937332841027
0.00163044431096
0.00396576359552
0.000773345904673
0.00104558452037
0.00163433572097
0.00055141076185
0.000600716180333
0.000663814319928
0.000353087898986
0.000324806149667
0.000284917492069
0.000209948906181
0.000173211055726
0.000142029258096
0.000119913938255
9.47179410159e-05
8.2791006869e-05
6.77938217713e-05
5.44056561132e-05
5.35028957315e-05
3.89100485533e-05
3.30863080951e-05
3.6429607233e-05
2.30882264384e-05
2.11777180496e-05
2.53558228026e-05
1.42949643508e-05
1.40930155808e-05
1.78091384143e-05
9.25224169974e-06
9.66767656382e-06
1.2644754762e-05
6.26546281021e-06
6.85096347587e-06
9.22719857164e-06
4.48316436217e-06
5.10363967246e-06
7.13341060558e-06
3.49533335436e-06
4.14735454602e-06
6.07960735912e-06
3.092284829e-06
3.80646242672e-06
5.80986352508e-06
3.13157245122e-06
3.91468530715e-06
6.01078349553e-06
3.67958069279e-06
4.52338483677e-06
6.66835593042e-06
9.49957166943e-06
1.09656415223e-05
1.44835078943e-05
0.000117536931813
0.000127896563486
0.000151528846106
0.00255006728073
0.00281342145466
0.00336926160037
0.0497012478095
0.0507588450025
0.0530476576053
0.160921849153
0.161437257704
0.162445279229
0.17681471702
0.176683869297
0.176390740471
0.179995369908
0.179863564888
0.179567002834
0.182895136902
0.18279193771
0.182558027275
0.185787838911
0.185727791834
0.185586695806
0.188597813222
0.188572781801
0.188507502229
0.144500157508
0.0384394052453
0.00895058558557
0.00227800666412
0.000707214078667
0.000302037110556
0.000197765945006
0.000138519367717
9.61648937571e-05
6.57461178753e-05
4.44752530457e-05
3.00550584774e-05
2.06655793475e-05
1.48882833461e-05
1.1642884855e-05
1.01922377621e-05
9.89104134574e-06
1.00424221534e-05
1.04975392686e-05
2.0296513499e-05
0.000188349323403
0.00419059681055
0.0561398163856
0.163586011971
0.175972990039
0.179150545846
0.182230117925
0.185385821868
0.18840983022
0.231975549168
0.231981870996
0.231987101061
0.231991001218
0.23199333252
0.231994525352
0.231995089637
0.231995367042
0.231995508137
0.231995590387
0.231995643126
0.231995682915
0.231995714025
0.231995740262
0.231995762875
0.231995781837
0.231995801998
0.231995835826
0.23199610052
0.231998078129
0.231419280231
0.231692246746
0.231858028719
0.231930402068
0.231962549414
0.231977514578
0.231983494121
0.231986176252
0.231987230622
0.231987740302
0.231987954366
0.231988092977
0.23198816936
0.231988228831
0.23198828217
0.231988306259
0.231988384438
0.231988436876
0.231989275482
0.231994256993
0.228000532817
0.230859030784
0.23139704025
0.231722420866
0.231867147141
0.231933603855
0.231960335574
0.231972347637
0.231976911129
0.231978809765
0.23197943372
0.231979735279
0.231979843248
0.231979920187
0.231979995197
0.231980006915
0.231980168439
0.231980214443
0.231981758458
0.231986333947
0.200611867496
0.224926972284
0.229141903331
0.230797935877
0.231427560924
0.231732712476
0.231866332212
0.231927875691
0.231951612682
0.231960811759
0.231963644816
0.231964658961
0.231964907102
0.231965028515
0.231965133931
0.231965104556
0.23196542116
0.231965413776
0.231967897033
0.23189565485
0.0113794815502
0.0954945060845
0.198761576013
0.222892358943
0.228999238526
0.230837792376
0.231503392446
0.231765804963
0.231876206443
0.231919170527
0.23193289207
0.231937207352
0.231938138074
0.231938406685
0.231938547889
0.231938417817
0.231938994129
0.231938854765
0.231943119186
0.231820206115
0.0035278760423
0.0308055182786
0.177203283648
0.215236472797
0.225461919117
0.228895991953
0.230474990535
0.231281406457
0.231662623317
0.231813714189
0.231868767614
0.231886525512
0.231890601092
0.23189147853
0.231891659927
0.231891306626
0.231892226897
0.231891829642
0.231899210422
0.231721983181
0.00148383858015
0.013373675687
0.164153710895
0.207092275357
0.220038973687
0.22505766052
0.228287385267
0.230145732116
0.231097379897
0.231558069564
0.23172878535
0.231791360607
0.231807544737
0.231810900421
0.231811239708
0.231810459669
0.231811649077
0.231810781201
0.231822780787
0.231605004973
0.000884530367289
0.00992725060027
0.146961410611
0.195092016995
0.210592944654
0.217993152234
0.224081664821
0.227812676924
0.229925951119
0.230959826224
0.231437921943
0.231613216292
0.231666275276
0.231678104798
0.231679273895
0.231677813373
0.231678803425
0.231677143371
0.231694425331
0.231450385846
0.000745011361515
0.00873482545792
0.117534799613
0.1734977256
0.193390215639
0.205273700799
0.216519826441
0.223599295143
0.227742383507
0.229842797801
0.230861700345
0.231291927654
0.231437236756
0.231470529305
0.231474695351
0.231472366689
0.231472058605
0.231469197324
0.23149062195
0.231225503534
0.00081812431649
0.00842149638223
0.0674046952246
0.135805056722
0.162880697168
0.182824618155
0.20355532755
0.21661833472
0.224135991797
0.227959082568
0.229894574226
0.23076584887
0.231081040909
0.231164851418
0.231177107877
0.231174041056
0.231170636946
0.231166157863
0.231188456556
0.230899440205
0.000554184153373
0.00405718809464
0.0213808808666
0.0811366240317
0.115246169274
0.146968032998
0.182929520636
0.205866070979
0.218705756406
0.225145759867
0.228441285932
0.229975628522
0.230570322106
0.23074203532
0.230771662128
0.230768836882
0.230760130315
0.230753765241
0.230772454203
0.230453573981
0.00034627800007
0.00212380251378
0.0104516164528
0.0351646521565
0.0610990811254
0.101000283892
0.153983785271
0.190803029381
0.211212498515
0.221333147969
0.226473492414
0.228899091296
0.229884824426
0.230191728378
0.230253590254
0.23025386197
0.230238045495
0.230229860498
0.230240753342
0.229883146305
0.000210476129339
0.00114893747019
0.00545827282379
0.0171635438768
0.0309291824555
0.0583896243553
0.119743419022
0.171856789574
0.201714896683
0.216579682465
0.224026519465
0.227543179476
0.22901942859
0.229514018575
0.229630497351
0.229640516786
0.229617546951
0.229608088404
0.229608295809
0.229195844761
0.000127049880037
0.000634636653375
0.00287278058214
0.00868737327408
0.0172807957424
0.0350792319162
0.0862315594508
0.150280230971
0.190540908023
0.211028534069
0.221158011311
0.225920465757
0.227973429079
0.228715765821
0.228920869065
0.228954215453
0.228927630778
0.228918010192
0.22890550277
0.228408387367
7.77726639062e-05
0.000364574271622
0.00157984660187
0.00477733284496
0.0106503476386
0.0235405976459
0.0577050399385
0.126906756597
0.177676681542
0.204638845117
0.217834670693
0.224004538598
0.226733391922
0.227802667945
0.228148672234
0.228230004075
0.228208895445
0.228200901607
0.228172769311
0.227540616234
4.98871825721e-05
0.000224927853115
0.000964793349144
0.00302605238365
0.00736703634842
0.0169069717877
0.0392942864035
0.101672219952
0.161876433184
0.196743818634
0.213770873081
0.221672913122
0.225250842802
0.226768882763
0.227335507505
0.227504871414
0.227505682396
0.227501990471
0.22745228
0.226609825433
3.48493693213e-05
0.000151523788712
0.000662265418546
0.00217061395697
0.00558609367345
0.0129478730909
0.0289105067225
0.0728371841846
0.140057715947
0.185486465824
0.208163917533
0.218636006988
0.223423915053
0.225590057603
0.226493379658
0.226809575851
0.226856923201
0.226861466055
0.226779521011
0.225626151122
2.73670019262e-05
0.00011878958258
0.000516803983978
0.00168504234419
0.00432827744147
0.00980539727828
0.020956916853
0.0444285916749
0.108433068714
0.167172320969
0.19930606172
0.214267369813
0.221049405304
0.224208405843
0.225618635125
0.226162179441
0.226288803373
0.226307197229
0.226177259063
0.224591643234
2.43326147099e-05
0.000103964822131
0.000424775959422
0.00130987014071
0.00322148028963
0.00696524809137
0.014180243098
0.0289345989129
0.0662177366066
0.136123565963
0.183397723375
0.20712452506
0.217698493399
0.222511270023
0.224688193741
0.225566104162
0.225812056768
0.225851544832
0.22565294409
0.223506114361
2.34468187055e-05
9.39700063114e-05
0.000342695665301
0.00096033139953
0.00219302869018
0.00444003202119
0.00852480948984
0.0166136826913
0.035041738091
0.0884138260004
0.153765091379
0.194157276039
0.212364038807
0.220242553506
0.223643964844
0.225009432238
0.225423356583
0.225492715596
0.225201282663
0.222379121911
2.26827924679e-05
8.06257946318e-05
0.000253181352914
0.000628324435274
0.00130116132736
0.0024288089483
0.00439445348623
0.00832628335526
0.0175509937134
0.041508991634
0.104857521046
0.170023213206
0.20324568308
0.216964240893
0.222401647924
0.224473218798
0.225110865186
0.225219331841
0.224810774753
0.221232290295
2.15866902154e-05
6.36045129123e-05
0.000169996364252
0.0003701908054
0.000698411331309
0.00122416437613
0.00211937425871
0.00386159130308
0.00789993657597
0.0186474697229
0.0483717474687
0.130738718662
0.188433229197
0.212179260092
0.2208655797
0.223935174317
0.224859182354
0.225015565858
0.224469753126
0.220103591072
3.59108961964e-05
8.42348222866e-05
0.00018867708485
0.000406078242246
0.000905476841213
0.00185912082819
0.00321517844725
0.00470253627729
0.0060148674045
0.00970865330859
0.0248144272864
0.0860854854712
0.168358084837
0.206130959428
0.219137053458
0.223416569747
0.224660425778
0.224865713846
0.224166163021
0.219048027741
0.000282346270247
0.000541058039818
0.00132459969145
0.00322282112389
0.00681452471398
0.011596495735
0.0159984788778
0.0189402240405
0.017363864565
0.0143004393638
0.0188548124803
0.0589390428841
0.150787977386
0.200962065719
0.217700095478
0.223003791987
0.224515636859
0.224755761242
0.223885295609
0.218087253041
0.00621516959087
0.0105117288936
0.0172051596601
0.0273572161169
0.0419076459137
0.0540717962994
0.0597055820624
0.0592690514024
0.0502867181541
0.0349752489915
0.0267700988775
0.0579740254152
0.146875820538
0.199559423333
0.217247002577
0.222834112018
0.224440506135
0.224673649481
0.223608604325
0.217201580217
0.0634198000803
0.0733011102954
0.0852011594377
0.101753835287
0.119092700627
0.129479339891
0.126584702176
0.111127312298
0.0845109467127
0.0532516528187
0.0370545383712
0.0689796860109
0.153130852858
0.202001567128
0.217887385258
0.222954182433
0.224434378217
0.224605989147
0.223313479568
0.216361241249
0.165582076953
0.165981059438
0.16440183888
0.16089454727
0.155163010958
0.146489577859
0.133467795509
0.114308854733
0.0885901297709
0.0616453850882
0.0514285370759
0.0876388367899
0.166092094833
0.205684372933
0.218779739444
0.223180783274
0.224461020817
0.224537273719
0.222990444389
0.215546701932
0.175011417405
0.172912184699
0.169708156763
0.165117942152
0.158721159461
0.149810119738
0.137161363824
0.119280538467
0.0967296591874
0.0756601012676
0.0735890443168
0.111030109134
0.178238490058
0.20923735375
0.219794337432
0.223459733697
0.224500879954
0.224455195815
0.222639908218
0.214761984983
0.178219998282
0.17619246241
0.173221049838
0.169172911425
0.163820153734
0.15653196943
0.146409931993
0.132582032563
0.115616900428
0.100705455684
0.102243181342
0.135821769966
0.189470770926
0.212499314598
0.220803989129
0.223740089254
0.224535278852
0.224357101524
0.222268431459
0.214024908473
0.181512525356
0.17998818387
0.177829237846
0.174953062968
0.171180420023
0.166184489502
0.159421899096
0.150314698272
0.139251092259
0.12960572069
0.132273298327
0.160834393892
0.199405837994
0.215535957507
0.221776092095
0.223999131532
0.224556577676
0.224242745081
0.221889852461
0.213374192685
0.184944146655
0.183969471019
0.182524588696
0.180592461011
0.178161044584
0.175135808779
0.171324595964
0.166486028091
0.160885554522
0.156249636444
0.159646538878
0.182517526649
0.207372542475
0.21815921592
0.222623344685
0.224214645533
0.224560142404
0.224113882374
0.221524288666
0.212844155056
0.188186994805
0.187652408084
0.186816376156
0.185674660288
0.18428317744
0.182724653353
0.181036841662
0.179224871051
0.177544917351
0.176874698534
0.181249293674
0.198077180664
0.21318725337
0.224854252822
0.22210549173
0.227146026112
0.22416255207
0.228072373691
0.225404642443
0.228348119931
0.225680007875
0.228192475735
0.225460261838
0.227733366809
0.224924743485
0.227016009333
0.224126688498
0.226078715921
0.223110382876
0.224949746798
0.221904273201
0.223656852117
0.220530077655
0.22222354269
0.218998203916
0.220663013113
0.217294323311
0.218967554549
0.215359804474
0.217106466941
0.213096071302
0.215046761004
0.210324614988
0.212519502085
0.207226283177
0.209532002123
0.203863192929
0.206308227985
0.200405451923
0.203206172515
0.197142379237
0.200506575329
0.194322434244
0.198289420373
0.19203726239
0.196498254789
0.190214165051
0.195026010523
0.18872510685
0.193820414299
0.187495841396
0.192907028943
0.186547885333
0.192376514732
0.185988968678
0.192361533443
0.185978726741
0.193050079218
0.186727672329
)
;

boundaryField
{
    inletfuel
    {
        type            fixedValue;
        value           uniform 0;
    }
    inletair
    {
        type            fixedValue;
        value           uniform 0.232;
    }
    outlet
    {
        type            zeroGradient;
    }
    axis
    {
        type            empty;
    }
    leftside
    {
        type            zeroGradient;
    }
    burnerwall
    {
        type            zeroGradient;
    }
    front
    {
        type            wedge;
    }
    back
    {
        type            wedge;
    }
    procBoundary0to1
    {
        type            processor;
        value           nonuniform List<scalar> 
27
(
0.191160670295
0.19116883106
0.191174650333
0.191173485117
0.220226083502
0.223291398848
0.22437541813
0.224545388793
0.223973988869
0.221180517945
0.212389226706
0.191153074272
0.191012393167
0.190689092354
0.190187597343
0.189611340385
0.189118589602
0.188853780474
0.188940982914
0.189616803576
0.191391376518
0.196403120437
0.207981439206
0.220226083502
0.217135015193
0.194771071098
0.188403976037
)
;
    }
}


// ************************************************************************* //
