/*--------------------------------*- C++ -*----------------------------------*\
  =========                 |
  \\      /  F ield         | OpenFOAM: The Open Source CFD Toolbox
   \\    /   O peration     | Website:  https://openfoam.org
    \\  /    A nd           | Version:  7
     \\/     M anipulation  |
\*---------------------------------------------------------------------------*/
FoamFile
{
    version     2.0;
    format      ascii;
    class       volScalarField;
    location    "0.02";
    object      one_over_tauStar;
}
// * * * * * * * * * * * * * * * * * * * * * * * * * * * * * * * * * * * * * //

dimensions      [0 0 -1 0 0 0 0];

internalField   nonuniform List<scalar> 
814
(
818.421130492
1183.71269679
5419.19760171
1011.47684762
1403.68247248
5419.9462217
1114.41268546
1557.13317078
5417.7892969
1295.02740164
2089.73655524
7711.39514245
1541.48441332
2683.51698898
7424.78585332
1850.22870215
3213.51992783
6768.6980171
2174.77592022
3573.03011085
6085.22318344
2453.94170381
3732.84610604
5448.16920711
2644.40664978
3727.56558876
4875.49246241
2730.72940239
3604.70146681
4367.6299316
2725.18549153
3409.97540135
3923.42080931
2653.00985248
3180.6647824
3538.17537532
2537.9806358
2940.87261148
3200.85379439
2397.46005646
2703.35231009
2899.65521913
2242.82389252
2473.81512658
2626.02560803
2081.95127257
2255.29214158
2375.08522786
1920.58726553
2049.84344864
2144.34725189
1761.79010613
1857.42883799
1930.84319485
1607.08346907
1676.9334123
1731.79538823
1456.37654273
1505.88356029
1544.41550355
1308.81286829
1341.95077757
1365.76790093
1164.34629981
1184.17711061
1195.07498016
1022.73471122
1032.2459958
1033.47352202
899.530345172
902.256315509
898.975869202
893.304245808
895.005285298
894.069482512
795.096558806
791.209452952
781.016591198
295.188877888
288.880936148
275.269889355
141.190101853
141.696165844
142.663949575
141.923680259
142.830212057
144.677325702
145.044197671
146.077564119
148.179644657
145.865300025
146.874165103
148.912810217
144.363787062
145.254089885
147.077396263
845.917646633
5920.43791931
6066.74074992
5638.26899682
5117.45762546
4617.91105567
4164.25411027
3766.27140821
3419.05010857
3111.223107
2832.04467349
2574.08286339
2334.768223
2113.61187369
1906.22154468
1710.19464285
1523.33062482
1343.52289379
1171.99223719
1011.75401745
884.055132041
889.670319731
766.583277005
257.562029386
143.871296499
146.872757916
150.61009315
151.155292259
149.040879982
55.8219505403
15.0355734455
12.8935554235
12.3089060115
11.4909935491
10.7799689045
9.94096389834
9.15636197846
8.38443089419
7.66309062059
6.99451394556
6.39092384663
5.86158343782
5.41628792875
5.0614381556
4.78239611328
4.59976371507
4.47408894833
4.60300900005
14.5535208595
57.9416952423
28.8223896526
21.4615139765
18.513856127
16.0451101666
14.2712644769
12.7563037382
11.4248763336
10.228535772
9.16909563516
8.23677493964
7.43915190139
6.76084303676
6.20958595874
5.76663968337
5.43381771152
5.19579458308
5.05459693738
5.28059418472
14.8694036791
72.4110846822
40.1767721396
29.2679103454
24.2904323946
19.8016707481
16.9776592333
14.7615530412
12.9505658771
11.4278058356
10.1345430936
9.04228085941
8.14064087
7.39533458049
6.80744333802
6.33718965849
5.99762350116
5.7405256077
5.61102349831
5.86861975525
15.1597775428
894.386514318
458.899888546
73.5658786221
35.2803418124
27.075291013
21.2675274867
17.8999613087
15.1115360773
13.0470683766
11.3866098056
10.0863546166
9.06556750452
8.26405585847
7.65933464176
7.18510688978
6.86186090566
6.59956894766
6.50191171313
6.68324929426
17.248596123
4386.32089312
3248.03892781
1765.14184577
375.746283212
76.1689572051
32.4493866026
23.7851580081
18.739484766
15.5765134244
13.2254525025
11.5999695526
10.4127772123
9.55599715746
8.94894116966
8.49398285059
8.20853636901
7.95634261497
7.89882066376
7.98293505207
20.5921884861
4179.53207852
3064.01248222
1883.76515945
490.087145727
104.720701963
46.726603782
32.7942395883
24.6800441596
19.6231765734
16.0808622603
13.9169082955
12.4712887249
11.546008431
10.9448998206
10.5306036334
10.3032007176
10.0763276043
10.0622552811
10.0664530426
23.7938962343
3778.20928245
2672.43290925
1540.07485595
431.383328775
121.845212162
68.7061354448
47.783190455
34.4976808009
25.9054228286
20.4166259986
17.357105696
15.5157246453
14.5007035664
13.9120320916
13.5576208965
13.4043916457
13.2191201431
13.2533631817
13.2034950004
26.3191921392
3404.07203724
2289.44716595
1273.13424244
369.372617557
149.217689416
105.873082979
75.1882753375
51.9253387163
36.1056837676
27.0015196892
22.2355779034
19.7329312298
18.570715866
17.9914533522
17.7045367285
17.6252999878
17.4958832747
17.5766054791
17.5140210447
28.5807152516
3047.6368842
1942.73848574
1083.4788491
339.502356414
185.628841512
151.326946647
116.641359865
81.4939232102
53.2550700209
37.1755562005
28.9090290965
25.111063752
23.6186128861
23.0115162302
22.7710199296
22.7360665331
22.6617309729
22.7684837152
22.7113399561
30.8424027837
2740.01919392
1757.65738139
997.952035924
335.006644009
215.071089018
184.404155079
155.366948615
119.021069031
79.1212770792
52.1916796126
37.6307673535
31.3068891233
29.0861815686
28.3507592231
28.1012445915
28.0576793886
28.0122740457
28.1087153468
27.9971471651
33.0701902008
2516.85091217
1635.25830991
919.634108021
337.60771869
232.295662095
200.860967937
177.396350617
149.660624184
109.235145879
71.6178904428
48.0498329893
37.6396473708
34.1563777802
33.1430435677
32.8205753601
32.7228589149
32.6673254149
32.7205393368
32.4541858255
35.0659378991
2355.72500438
1535.04121094
834.346336978
343.07684946
241.907736419
207.670540652
186.769820905
166.329670822
134.170570348
92.1768397759
59.0148677945
43.367019278
38.2074965389
36.7955316165
36.3622535363
36.1961405522
36.104011168
36.1013621701
35.6452979929
36.7574978116
2234.09618607
1455.53096057
778.291917526
355.405456691
249.277188589
209.632043588
190.026868978
173.24287417
149.296522642
109.662015396
69.2336245174
48.1264303438
41.1263516132
39.2567052814
38.7053210534
38.4808213685
38.3472568825
38.2939940341
37.7007314847
38.1806985914
2130.30308095
1391.42224614
749.215868275
369.512422754
255.805307719
210.282079096
189.956308552
175.252600215
156.562034045
122.219874742
78.2525626022
52.1720347058
43.2250037504
40.8279727733
40.1504550539
39.8818411069
39.7144006262
39.6219311846
38.9740669177
39.4192056898
2027.35090035
1336.87617786
736.582935344
385.127767649
262.955405688
211.414975808
188.292954072
175.610664065
159.889514357
131.082913586
86.9311882286
56.3018539914
45.0092902326
41.8850819928
41.033123693
40.7235507799
40.5318191557
40.4102443681
39.7759709622
40.583705241
1914.85328847
1291.33581987
732.08256458
400.965190119
272.177466328
214.624357495
187.781009001
176.188317923
162.161043744
138.444047463
96.9061859937
61.6909556006
47.0700056651
42.7616436066
41.6072129318
41.2393445767
41.0289932854
40.8855072799
40.3091690279
41.8077564108
1786.6125573
1246.99189013
728.983946485
416.222745892
283.130580658
220.895720543
190.834789841
178.11806806
165.658631331
146.157370045
109.763306629
69.8509382331
50.1134267656
43.7618248011
42.0521411199
41.5756407618
41.3454300228
41.1840203629
40.6941745198
43.2293991262
1647.52115744
1183.48080427
716.795201748
427.819329253
294.979942554
230.183434349
197.719246901
183.256421372
172.188937031
155.328498659
126.148463751
83.0387697421
55.2731854162
45.2691199952
42.5183792472
41.826434076
41.5641342421
41.3852552582
41.0058955481
44.9895433409
1502.67770346
1100.78254817
692.543640176
434.621529709
308.208266704
244.032190984
210.933146718
195.616563116
184.061188291
168.951588538
146.328362823
105.178998023
65.2204175762
48.0281442253
43.1912764131
42.0645745906
41.7373250699
41.536936433
41.3009914948
47.2517903342
1354.2072741
1008.17359346
660.471065867
438.738291063
324.884937783
265.543100048
234.357053209
218.842235323
207.167673837
192.470831478
171.013685108
137.084588443
86.5950776976
54.2779953628
44.5010306402
42.3767306229
41.9019848039
41.6692695766
41.627647527
50.2408161102
1204.63317215
913.660835506
627.406547669
444.841869758
349.459090886
300.191683347
273.9707371
259.027010428
246.294174575
229.806852035
205.222396019
173.376260192
124.222410542
69.3822500954
47.5415284814
42.9119459179
42.0869059145
41.7989424542
42.0266356145
54.1620308691
1059.5918479
830.770155426
606.920453498
464.845076417
392.690052345
358.300024926
338.608542028
321.280311748
302.050638566
279.886272175
249.586475017
212.667278446
167.489492073
98.7695434271
54.4870242847
43.9675431342
42.3243454768
41.9353774589
42.5324781246
59.1057125928
926.440980419
761.559496796
610.833603236
516.582378541
474.334302556
453.13087901
430.052232334
398.603517386
363.057197137
329.887273078
295.524808117
252.365468039
204.53521757
134.936313505
66.2598037316
45.7446390404
42.6203990123
42.0771406986
43.2079622912
64.93044297
834.385589837
748.430312612
680.809024073
637.839982546
600.15638703
555.056240511
502.246001544
443.327959384
385.307183
341.096168636
309.914570267
270.661557836
222.947162043
157.751703495
77.6737243143
47.7394826055
42.9338884315
42.2181890621
44.1900182207
71.5668574772
869.288459825
823.782928911
763.897576791
691.650651419
606.116153403
511.297646649
413.797251008
327.980165708
278.96637666
273.662458904
279.03752313
258.226699357
217.491900884
159.418125919
80.7597597629
48.6223392335
43.0987037523
42.3456065752
45.7205460046
79.0952711916
720.03475229
643.240259534
551.206158563
447.028677752
337.77121221
249.653736409
205.79115399
197.522530351
207.935081348
228.659070623
245.144953891
236.078129231
204.546157418
148.060051214
75.0231547881
47.7766399293
43.0370281658
42.4792767622
48.2136901795
87.6147875519
217.875727324
184.448835921
167.564423992
163.783536209
168.236047957
176.611728332
186.322095354
196.676269252
207.460654931
219.569388132
227.433497843
217.827363343
190.438392443
131.976234756
68.1525072746
46.611246784
42.9129267359
42.7212092369
52.1334202296
97.0949552965
146.323286316
150.702009184
157.541846421
167.883884487
180.610947828
192.582284384
200.708117397
206.612039941
212.121897593
217.078776625
216.047110923
205.864220068
176.904619366
115.204070627
61.5602900413
45.5083555371
42.7928238134
43.2192190331
57.7907250587
107.27146415
150.890447201
157.702938242
167.007593346
178.893964262
190.495927028
198.918973391
203.791601069
206.91045369
209.484788271
211.859367699
207.205681261
195.574750714
161.137675555
98.8364452672
56.0153589459
44.5925890203
42.7235228587
44.1210126537
65.1771307666
117.725609153
154.794976365
161.557709884
169.931197217
179.769333547
189.559383398
196.808132215
200.509678371
201.269194817
201.312084263
201.974365616
196.794538121
182.596631481
141.315879068
82.8200668099
51.3691236994
43.844150344
42.7323624539
45.604261719
73.827205882
127.756938879
154.738383497
159.905494086
166.230042957
174.352117634
183.110204731
190.05710494
193.584458153
193.140205188
191.007824911
188.985620568
183.574844744
165.102651822
117.729693128
68.678556031
47.8423873482
43.2702796178
42.8704234718
47.8304075699
82.7132138466
136.597713401
152.090923236
156.108644153
160.727278388
167.010652374
174.598495069
181.245255554
184.764889326
183.97120589
180.149988051
175.032135301
167.350652308
142.171781269
93.6912628635
28.8983682754
58.2206977885
68.4457152241
58.1292274334
72.4099202678
58.0727516494
69.6657826385
58.0560516254
66.5369714176
58.05938905
63.995502663
58.0751124297
62.3221163251
58.1009693634
61.4398913084
58.135613704
61.2669845188
58.1766134253
61.7367138038
58.2236574402
62.9684595645
58.2765639751
65.4831223103
58.3362861752
70.3281105498
58.4054446118
78.862509507
58.4882369983
93.94070585
58.5939126563
107.603435353
260.110508134
121.778870056
276.161151263
138.312894919
294.573732142
155.351010586
314.443999793
171.140226532
334.708695423
185.933720185
354.944218784
200.484236017
375.269378444
215.197965248
395.857143246
229.574175085
416.922466273
242.893489907
438.807291474
254.515486799
461.894793793
263.907036827
486.791129829
271.238750888
514.250285845
)
;

boundaryField
{
    inletfuel
    {
        type            calculated;
        value           uniform 120.747670785;
    }
    inletair
    {
        type            calculated;
        value           uniform 4.0249223595;
    }
    outlet
    {
        type            calculated;
        value           nonuniform 0();
    }
    axis
    {
        type            empty;
    }
    leftside
    {
        type            calculated;
        value           nonuniform List<scalar> 
33
(
28.8983682754
58.2206977885
14.5535208595
14.8694036791
15.1597775428
58.2206977885
58.1292274334
58.0727516494
58.0560516254
58.05938905
58.0751124297
58.1009693634
58.135613704
58.1766134253
58.2236574402
58.2765639751
58.3362861752
58.4054446118
58.4882369983
58.5939126563
260.110508134
276.161151263
294.573732142
314.443999793
334.708695423
354.944218784
375.269378444
395.857143246
416.922466273
438.807291474
461.894793793
486.791129829
514.250285845
)
;
    }
    burnerwall
    {
        type            calculated;
        value           nonuniform List<scalar> 7(5419.19760171 5419.9462217 5417.7892969 55.8219505403 57.9416952423 72.4110846822 845.917646633);
    }
    front
    {
        type            wedge;
    }
    back
    {
        type            wedge;
    }
    procBoundary0to1
    {
        type            processor;
        value           nonuniform List<scalar> 
27
(
142.278939775
143.091279374
144.770926911
146.528770282
57.9685899012
45.473520934
42.8908195374
43.2078046005
50.8879108909
90.9450394795
143.967536647
149.141788135
152.040906802
154.993104299
159.438008739
165.514253253
171.380230034
174.679927927
173.80713755
168.885676016
160.797004895
148.097109052
115.779531452
57.9685899012
74.2108999215
274.730002304
544.924623199
)
;
    }
}


// ************************************************************************* //
