/*--------------------------------*- C++ -*----------------------------------*\
  =========                 |
  \\      /  F ield         | OpenFOAM: The Open Source CFD Toolbox
   \\    /   O peration     | Website:  https://openfoam.org
    \\  /    A nd           | Version:  7
     \\/     M anipulation  |
\*---------------------------------------------------------------------------*/
FoamFile
{
    version     2.0;
    format      ascii;
    class       volScalarField;
    location    "0.02";
    object      p;
}
// * * * * * * * * * * * * * * * * * * * * * * * * * * * * * * * * * * * * * //

dimensions      [1 -1 -2 0 0 0 0];

internalField   nonuniform List<scalar> 
814
(
95669.803971
95661.5533642
95677.1193513
95652.5035795
95648.2247906
95651.0694973
95634.2452338
95631.5395373
95634.2565182
95634.870816
95633.0872284
95637.4962033
95646.4032082
95645.3632036
95643.1878639
95651.5453298
95651.1564848
95650.9576618
95663.3532931
95663.2602295
95663.2939612
95677.4496937
95677.3536532
95677.2993386
95691.5164272
95691.4850216
95691.4689481
95704.0350861
95704.0255362
95703.9789931
95714.5222632
95714.5073676
95714.4166661
95724.8793853
95724.840959
95724.7897889
95735.8375437
95735.7710793
95735.7213547
95747.5883085
95747.5161005
95747.4486862
95760.3109986
95760.2506233
95760.1766255
95774.1413381
95774.0837196
95774.0218759
95788.9936843
95788.9393979
95788.8886293
95804.6680152
95804.6235209
95804.5969854
95820.6714989
95820.6528161
95820.6385022
95836.8479305
95836.8272019
95836.8140312
95852.9713156
95852.9483922
95852.9389122
95869.2931968
95869.2573418
95869.2220225
95886.3610503
95886.3177858
95886.2671445
95906.4109232
95906.2309137
95906.0783711
95923.9940802
95923.8891575
95923.8422101
95967.6488268
95967.499576
95967.3399176
95980.260284
95980.2773531
95980.3895383
96033.2296375
96033.1820788
96033.0951378
96079.456962
96079.4666862
96079.4414394
96136.7035519
96136.6996031
96136.6742997
96205.0170633
96205.0164677
96204.9968488
96286.3893599
96286.3775781
96286.3404373
95630.0084187
95643.0948358
95650.8860472
95662.9882254
95676.9972571
95691.3367068
95703.8967432
95714.329935
95724.7554175
95735.6760523
95747.3780497
95760.0953455
95773.9513691
95788.8297049
95804.5613892
95820.6191977
95836.7997457
95852.9242066
95869.1765293
95886.1913898
95905.8562912
95923.7734091
95967.1020479
95980.563544
96032.9766786
96079.4129294
96136.6397839
96204.9689439
96286.2936932
95568.9838847
95566.4013822
95562.3917713
95556.7355358
95549.5240179
95540.6603628
95530.3770524
95518.823205
95506.3058943
95493.047667
95479.346393
95465.4447599
95451.997428
95439.6977004
95428.828036
95419.2834896
95410.7861784
95403.8096894
95398.584992
95396.2966511
95590.5291575
95587.3790335
95580.8449343
95573.7670244
95565.9146436
95556.346494
95545.2318171
95532.7800002
95519.3077833
95505.0133863
95490.2935814
95475.3866245
95460.8449635
95447.4059761
95435.5568383
95425.331936
95416.4901228
95409.434586
95404.4945314
95402.5811745
95612.3901979
95598.7936051
95595.1180451
95590.2652723
95582.1007349
95571.67191
95559.5847101
95546.1490269
95531.6891665
95516.4170951
95500.8058517
95485.044032
95469.5561623
95455.1076509
95442.3535205
95431.4650823
95422.2488622
95415.0676105
95410.3953153
95408.9661829
95641.0062435
95654.9801291
95630.468246
95611.3341422
95598.600447
95586.3168346
95573.2049193
95558.8957624
95543.5409938
95527.3285303
95510.8691693
95494.3288085
95478.0046894
95462.6631693
95449.0856051
95437.5709443
95427.9746521
95420.639172
95416.2181359
95415.2821612
95636.1285274
95642.9873288
95632.9619948
95632.9034407
95617.5051
95604.0402647
95589.5342222
95574.3553793
95558.0614662
95540.6972
95523.1738422
95505.701322
95488.443131
95472.1206454
95457.6148919
95445.3635216
95435.2827952
95427.7020944
95423.2556983
95422.1368495
95650.094721
95647.9050793
95647.201595
95643.5962533
95632.689961
95620.8959234
95607.1485932
95591.8735769
95574.9209149
95556.389004
95537.6196361
95519.0383262
95500.7679969
95483.4282535
95467.9481129
95454.8890353
95444.2328892
95436.3154272
95431.6735561
95430.3003993
95662.2969338
95661.510757
95661.1250911
95656.9376998
95649.6428625
95638.6872014
95626.2790074
95611.1867495
95594.0121075
95574.3204314
95554.2099191
95534.3368329
95514.9726236
95496.602671
95480.1503917
95466.25518
95454.9600781
95446.622528
95441.6621277
95440.092661
95676.329076
95675.8927777
95676.2472571
95671.1678222
95665.1968748
95656.2277243
95645.9381313
95631.7730288
95614.7744295
95594.399199
95572.8624929
95551.5864235
95531.0456283
95511.6328959
95494.2424107
95479.5301403
95467.5670831
95458.7407433
95453.3892345
95451.5210503
95690.9415741
95689.7676248
95692.984803
95688.5628525
95682.7760057
95673.1971014
95664.5605377
95652.6601138
95636.9880085
95616.0684572
95593.4958817
95570.7185607
95548.9430786
95528.4800634
95510.198488
95494.7282007
95482.1113776
95472.7509914
95466.9623557
95464.754595
95703.6641898
95703.5072317
95704.9236677
95707.3886507
95708.2337474
95702.5382652
95692.2569344
95678.344108
95661.1981101
95639.2222519
95615.6728352
95591.4947283
95568.5877832
95547.0802423
95527.9485402
95511.8003553
95498.5856278
95488.6834273
95482.4164024
95479.752695
95713.9177076
95713.9898574
95713.8020236
95714.2407214
95713.6107114
95711.0891632
95709.1870467
95697.621607
95682.9939619
95662.1038149
95638.6167372
95613.6221944
95589.7773168
95567.3224065
95547.3928184
95530.6414981
95516.9179084
95506.5190058
95499.777829
95496.6895066
95724.4578205
95724.5878863
95724.6250642
95724.6352852
95724.3628759
95723.1981342
95719.8285187
95712.320309
95701.848581
95683.5164448
95661.4197798
95636.6543071
95612.2876614
95589.0701702
95568.4249437
95551.1213541
95536.9841772
95526.1878845
95519.0337319
95515.6450507
95735.4072484
95735.5585359
95735.5297653
95735.3124317
95734.7887742
95733.7313123
95732.6564165
95729.0766485
95719.1893796
95703.5280891
95683.5925354
95660.0340019
95635.8059258
95612.1506053
95590.934405
95573.1156658
95558.6442559
95547.5899213
95540.1693448
95536.6815588
95747.1033215
95747.2143295
95747.1135165
95746.8435038
95746.3713811
95745.5086835
95744.735216
95741.5786072
95734.8554737
95723.0099514
95705.4316491
95683.5889618
95660.0424861
95636.4014744
95614.8257544
95596.5467228
95581.7927345
95570.635977
95563.1856976
95559.9104764
95759.8364842
95759.8591621
95759.7155501
95759.5078599
95759.1031638
95758.5498655
95757.6518414
95756.5920634
95752.4144898
95742.436376
95727.4592975
95707.5145579
95684.8607336
95661.6629009
95639.990188
95621.3779205
95606.3869302
95595.2736471
95588.0522219
95585.2427096
95773.7634495
95773.6464023
95773.6085189
95773.4274372
95773.1991072
95772.9749728
95772.3327593
95772.0834135
95769.5532147
95761.3793915
95750.4128386
95732.461803
95710.5689927
95687.9621416
95666.354446
95647.5984582
95632.4488895
95621.4706351
95614.6074577
95612.3738375
95788.7092343
95788.5078637
95788.6104148
95788.5672686
95788.5495895
95788.4910504
95788.3999588
95788.4911445
95788.0327173
95784.6504935
95773.2284248
95756.8973336
95736.8693377
95715.3393265
95693.8605564
95675.126154
95660.0018085
95649.1766012
95642.5046263
95641.1861214
95804.5048926
95804.41718
95804.4602336
95804.4795021
95804.5588155
95804.6852902
95804.9191607
95804.7512012
95806.2580402
95803.3033311
95791.5895863
95779.5815614
95763.5817281
95743.5734016
95722.4881442
95703.8778223
95689.0071485
95678.3654516
95671.7687659
95671.4637851
95820.5710626
95820.584246
95820.6128377
95820.714482
95820.8860397
95821.2036644
95821.6806804
95822.5102339
95823.0944614
95824.961502
95823.8142608
95811.0322032
95792.9457517
95772.6777339
95751.9126327
95733.6793227
95719.354788
95709.117389
95702.8350631
95703.6967939
95836.7499156
95836.7728477
95836.7710214
95836.9099464
95837.123209
95837.5182303
95838.0736315
95838.9692905
95839.5996314
95840.8579259
95841.5058239
95833.7022205
95820.8685332
95801.4243736
95781.8296599
95764.4051468
95750.9699592
95741.5533812
95735.8844139
95737.6761516
95852.8735923
95852.8514121
95852.8415239
95852.9443575
95853.1805256
95853.5955021
95854.1934952
95855.0259382
95856.1921253
95856.4430552
95859.8879738
95856.1719023
95847.1956556
95831.5136708
95812.8966193
95796.2784615
95783.7804964
95775.5501649
95770.4820248
95772.0888583
95869.07295
95868.9393398
95868.8737808
95868.8884601
95869.0375986
95869.3539875
95869.8696113
95870.603495
95871.7312677
95872.9821702
95873.6989359
95873.5106225
95867.6126943
95859.0495659
95843.2753585
95828.8123968
95817.6907469
95811.0621676
95806.9765441
95808.7907962
95886.0128688
95885.7326329
95885.5196085
95885.2610775
95885.1617793
95885.2893074
95885.7343746
95886.5671999
95887.823281
95889.2479803
95890.9601886
95891.2003525
95889.1951936
95884.5125733
95873.0953152
95862.1006021
95852.9272179
95848.4090187
95845.9172326
95847.8935535
95905.3609755
95904.3151256
95903.3840925
95902.7785336
95902.5368102
95903.050179
95904.4939744
95906.6114122
95908.2585337
95909.5863022
95910.1589216
95909.7841717
95910.7460334
95907.590043
95902.1943074
95895.6973955
95889.9479285
95887.9655353
95887.6519675
95889.8627891
95923.7218893
95924.2792748
95925.3070502
95926.9393637
95929.01976
95929.2026262
95928.964321
95929.1338982
95930.128629
95932.2649046
95932.7568536
95933.4503042
95933.473361
95933.2529433
95932.4753107
95931.7770746
95929.7276048
95930.5224073
95933.1238174
95934.9773883
95966.4712944
95963.7304234
95959.5132458
95955.6900322
95953.3789136
95954.2019756
95955.911012
95958.1628314
95959.2978798
95960.5612604
95960.2267524
95960.4223254
95961.3868702
95962.1330138
95966.0823786
95971.0708492
95973.3816863
95977.0342896
95982.1979189
95984.5436715
95981.0267262
95982.9618055
95985.0140365
95987.0725101
95989.2608285
95991.3185658
95992.1764224
95992.9870383
95993.1997237
95993.9471055
95993.447464
95993.8458699
95995.3630542
96000.8575821
96006.4449339
96016.0564281
96022.3904571
96028.8545908
96035.3853877
96038.8301168
96032.7195896
96032.3451683
96031.8801903
96031.571326
96031.2927347
96031.5954941
96031.7414123
96031.9739673
96031.9345482
96032.144896
96031.487001
96033.1570058
96036.6886932
96044.8260362
96055.0337226
96067.9408237
96077.6550663
96086.0745408
96093.9449817
96098.4615656
96079.3495065
96079.2342624
96079.0578516
96079.0033978
96078.904574
96079.0591272
96079.0762122
96079.196458
96079.4508638
96079.5982659
96080.4319737
96083.1897939
96088.0081254
96098.924691
96112.055581
96127.1329417
96139.3442716
96149.4763546
96158.5511978
96164.1789243
96136.567018
96136.4257047
96136.2224914
96136.0612112
96135.7911826
96135.7103866
96135.3923286
96135.1882759
96135.411257
96135.1152525
96136.9343687
96141.8665472
96148.6982477
96163.4650523
96178.6374811
96194.8586926
96208.8082475
96220.4118536
96229.4803784
96236.7465012
96204.9075621
96204.7708003
96204.6016054
96204.4271862
96204.1901003
96204.0205758
96203.6150318
96203.3937767
96203.4251342
96203.1246726
96205.2571127
96212.8072103
96221.9447211
96239.4739326
96255.9497801
96272.2155918
96287.253399
96299.8696849
96308.9130162
96316.4569856
96286.1950999
96286.0060564
96285.7721776
96285.5149893
96285.2417655
96284.9845278
96284.6824848
96284.5660373
96284.5975649
96285.3629809
96287.8886358
96298.01101
96308.7134004
95422.3259432
95422.8871974
95425.9848818
95427.1972555
95432.5162199
95433.0347363
95441.3585871
95441.8488977
95452.6658191
95453.0870597
95465.8575343
95466.2395967
95481.044928
95481.5190077
95497.8341299
95498.0591191
95516.9352765
95517.0721556
95538.255908
95538.2624365
95561.8778358
95562.0602272
95587.0923232
95587.2754441
95613.7558256
95613.7675819
95641.5540307
95642.0945572
95671.7494267
95672.1084569
95704.9222564
95705.0144981
95739.2267388
95739.2165673
95773.5368162
95773.4302129
95809.9303707
95809.7947784
95848.8759657
95848.7285107
95890.8430521
95890.6459018
95936.3468768
95936.0970621
95985.5943632
95985.4400209
96039.5661515
96039.4774048
96098.8754624
96098.8359436
96164.1707243
96164.1691816
96236.0553062
96236.0705451
96315.0591663
96315.2489043
)
;

boundaryField
{
    inletfuel
    {
        type            zeroGradient;
    }
    inletair
    {
        type            zeroGradient;
    }
    outlet
    {
        type            fixedValue;
        value           nonuniform 0();
    }
    axis
    {
        type            empty;
    }
    leftside
    {
        type            zeroGradient;
    }
    burnerwall
    {
        type            zeroGradient;
    }
    front
    {
        type            wedge;
    }
    back
    {
        type            wedge;
    }
    procBoundary0to1
    {
        type            processor;
        value           nonuniform List<scalar> 
27
(
96380.4010007
96380.4065129
96380.395053
96380.3789523
96326.5383
96343.8866298
96360.0506162
96375.2117528
96388.0865602
96397.1224087
96404.5930608
96380.338493
96380.2378206
96380.1266159
96380.0177815
96379.9378647
96379.8984396
96379.9370168
96380.2037004
96380.8270233
96382.2686531
96385.6667513
96395.8505902
96326.5383
96409.134534
96402.8941869
96403.1600469
)
;
    }
}


// ************************************************************************* //
