/*--------------------------------*- C++ -*----------------------------------*\
  =========                 |
  \\      /  F ield         | OpenFOAM: The Open Source CFD Toolbox
   \\    /   O peration     | Website:  https://openfoam.org
    \\  /    A nd           | Version:  7
     \\/     M anipulation  |
\*---------------------------------------------------------------------------*/
FoamFile
{
    version     2.0;
    format      ascii;
    class       volScalarField;
    location    "0.02";
    object      PaSR<psiReactionThermo>:kappa;
}
// * * * * * * * * * * * * * * * * * * * * * * * * * * * * * * * * * * * * * //

dimensions      [0 0 0 0 0 0 0];

internalField   nonuniform List<scalar> 
814
(
5.78079736079e-12
8.13267123523e-12
2.63711844498e-11
7.07871207027e-12
9.52788489493e-12
2.52169218892e-11
7.77093851795e-12
1.05233753162e-11
2.47084151085e-11
8.93042054465e-12
1.39032328953e-11
4.21066263933e-11
1.05259247784e-11
1.76855348106e-11
4.44043376258e-11
1.25101343077e-11
2.11285761999e-11
4.25112142515e-11
1.46009010305e-11
2.36168944444e-11
3.94105744347e-11
1.64483250602e-11
2.49001340157e-11
3.59644919894e-11
1.77854783961e-11
2.50991785533e-11
3.25673608736e-11
1.84800284075e-11
2.44595559082e-11
2.93915883165e-11
1.85627942573e-11
2.3270224029e-11
2.65330940584e-11
1.81723551927e-11
2.17940689914e-11
2.40187731008e-11
1.74584363708e-11
2.02111913897e-11
2.17998644205e-11
1.65421991566e-11
1.86203674014e-11
1.98074638118e-11
1.5506737955e-11
1.70690219051e-11
1.79870281088e-11
1.44119792109e-11
1.55802833972e-11
1.63051431154e-11
1.3301419928e-11
1.41702366045e-11
1.47446635418e-11
1.21992312172e-11
1.28397583725e-11
1.32865264625e-11
1.11163139061e-11
1.15819799133e-11
1.19142746436e-11
1.00548027159e-11
1.03831633545e-11
1.06128932117e-11
9.01250315651e-12
9.23037663758e-12
9.36787239791e-12
7.99701819773e-12
8.12653150967e-12
8.18415517241e-12
7.02321909404e-12
7.08541152654e-12
7.08600691858e-12
6.22521185867e-12
6.24439122224e-12
6.22076353039e-12
6.26339780341e-12
6.27385784666e-12
6.26414175058e-12
5.30957267422e-12
5.27425054471e-12
5.18537425774e-12
1.93685851747e-12
1.8994288633e-12
1.81857176626e-12
9.78363183722e-13
9.81984944465e-13
9.8892949547e-13
9.86625178182e-13
9.93059903132e-13
1.00623072326e-12
1.01054079366e-12
1.01790890238e-12
1.0329346413e-12
1.01701654858e-12
1.024203832e-12
1.03878876871e-12
1.00615501683e-12
1.012497517e-12
1.02553357213e-12
5.69161550709e-12
3.2760689934e-11
3.63208055391e-11
3.51838168023e-11
3.26437321847e-11
2.98451628679e-11
2.71450167893e-11
2.47256107954e-11
2.26004404349e-11
2.0708821947e-11
1.89804220645e-11
1.7362431278e-11
1.58334120085e-11
1.43906492594e-11
1.30110471512e-11
1.16860600484e-11
1.04090935042e-11
9.17356991497e-12
8.0003453705e-12
6.92609708928e-12
6.11637981427e-12
6.22808781215e-12
5.06132964131e-12
1.71251729221e-12
9.9764153103e-13
1.0219368406e-12
1.05037689921e-12
1.05488198388e-12
1.03963137654e-12
3.19111315619e-13
1.05261254158e-13
9.14123070961e-14
8.7595306022e-14
8.19571517456e-14
7.7038883023e-14
7.11701229576e-14
6.56709204939e-14
6.02373156021e-14
5.5139783096e-14
5.0397206768e-14
4.6096686886e-14
4.23123356529e-14
3.91167374323e-14
3.6564293861e-14
3.45486338365e-14
3.32297785272e-14
3.23160561661e-14
3.32212079707e-14
9.98676816352e-14
3.34070239412e-13
1.97285584427e-13
1.50784146112e-13
1.31226093092e-13
1.14218484333e-13
1.01901064767e-13
9.12706294852e-14
8.18943554099e-14
7.34361371341e-14
6.5919552586e-14
5.92832797175e-14
5.35859416613e-14
4.87267394306e-14
4.47649994338e-14
4.15752240347e-14
3.91688917647e-14
3.74494574279e-14
3.64206160146e-14
3.80065749728e-14
1.02230744489e-13
4.38748216823e-13
2.70573500712e-13
2.02748746699e-13
1.71322010086e-13
1.40520917208e-13
1.21057824981e-13
1.0551889355e-13
9.27582978011e-14
8.19734526625e-14
7.27833511607e-14
6.4995743864e-14
5.8549083789e-14
5.32050737721e-14
4.8977970106e-14
4.55891730864e-14
4.31324376287e-14
4.12737322731e-14
4.0327076126e-14
4.21289903893e-14
1.04361871259e-13
4.13239416499e-12
1.65251443864e-12
4.57899174514e-13
2.43545452038e-13
1.89989410579e-13
1.5065715762e-13
1.27399621419e-13
1.0790434411e-13
9.33406033459e-14
8.15630158894e-14
7.22979038376e-14
6.50035426734e-14
5.92567253624e-14
5.4908477371e-14
5.14879578815e-14
4.91446539186e-14
4.72451667764e-14
4.65231027107e-14
4.77729667389e-14
1.18923749532e-13
1.1479700346e-11
3.66144310134e-12
2.33535282077e-12
1.34294806563e-12
4.79189542268e-13
2.24141453071e-13
1.67208463004e-13
1.32759664684e-13
1.1079170998e-13
9.42625380831e-14
8.27334596144e-14
7.42729448861e-14
6.81334033892e-14
6.37649385636e-14
6.04727600919e-14
5.83876021971e-14
5.65522233972e-14
5.61056250947e-14
5.66647801524e-14
1.41515795718e-13
1.33486879324e-11
3.55062578998e-12
2.1130319829e-12
1.31087543225e-12
5.90627020174e-13
3.0769158861e-13
2.24255693721e-13
1.71905188141e-13
1.38014213381e-13
1.13621505237e-13
9.84572714017e-14
8.8219006946e-14
8.15899629527e-14
7.72442867417e-14
7.42113761745e-14
7.25046314726e-14
7.08284683103e-14
7.06631992521e-14
7.06831176684e-14
1.63501631389e-13
1.35919272585e-11
3.17099861528e-12
1.65331079791e-12
1.04954778626e-12
6.07184799357e-13
4.09640918782e-13
3.07491814661e-13
2.31939552632e-13
1.78375509593e-13
1.42167613578e-13
1.21278282875e-13
1.08417586473e-13
1.01146546072e-13
9.6833971036e-14
9.41514833207e-14
9.28941042627e-14
9.14647357337e-14
9.15895605061e-14
9.13094001997e-14
1.81413261412e-13
1.39720660173e-11
3.14818252602e-12
1.37170038223e-12
8.59853545709e-13
6.26730219041e-13
5.2844365545e-13
4.26366757337e-13
3.23782379735e-13
2.38617495388e-13
1.83338608521e-13
1.52531790905e-13
1.35621848189e-13
1.2737456593e-13
1.23040167888e-13
1.20707732536e-13
1.19855586897e-13
1.18738314208e-13
1.19125228984e-13
1.18945419932e-13
1.97870969414e-13
1.38886679428e-11
3.24260309422e-12
1.20436173933e-12
7.76710091152e-13
6.62394304172e-13
6.28851424142e-13
5.54150596368e-13
4.44303741816e-13
3.25495701616e-13
2.41638279934e-13
1.93085058697e-13
1.69170077095e-13
1.59074113219e-13
1.54532418796e-13
1.52411851112e-13
1.51774757579e-13
1.50963226984e-13
1.51504918547e-13
1.51777031302e-13
2.14625292725e-13
1.356215134e-11
3.65605983031e-12
1.20766463699e-12
7.90057176959e-13
7.10566725242e-13
6.98528795303e-13
6.51772628068e-13
5.58705959894e-13
4.28711757027e-13
3.16269364412e-13
2.42395592386e-13
2.06597435752e-13
1.92995505411e-13
1.87907786509e-13
1.85773510907e-13
1.8510040428e-13
1.8449184206e-13
1.85032442408e-13
1.85676999408e-13
2.31468504251e-13
1.34148860754e-11
4.23951131267e-12
1.39597504248e-12
8.6417012245e-13
7.69652118066e-13
7.47217171419e-13
7.15890093385e-13
6.43583895935e-13
5.22568948749e-13
3.96045473046e-13
2.96399249937e-13
2.44085346921e-13
2.2498754026e-13
2.18896885405e-13
2.16564167766e-13
2.15679007866e-13
2.15118674778e-13
2.15513854634e-13
2.15992282387e-13
2.46882312368e-13
1.33712805221e-11
4.92443303956e-12
1.77825299632e-12
1.01811187765e-12
8.47181987114e-13
7.87945216901e-13
7.58506891705e-13
7.01657634272e-13
5.94376175647e-13
4.66864936947e-13
3.48813985224e-13
2.78080606624e-13
2.51912557031e-13
2.44387980064e-13
2.41766955611e-13
2.40626102542e-13
2.399797461e-13
2.40136758587e-13
2.39905713092e-13
2.6013795673e-13
1.33396115399e-11
5.65164378754e-12
2.21969412064e-12
1.2549982004e-12
9.73186049951e-13
8.32710078174e-13
7.90371843017e-13
7.42844783288e-13
6.48171511147e-13
5.24085252891e-13
3.9563667069e-13
3.07123525883e-13
2.72877051862e-13
2.63496451003e-13
2.60543303482e-13
2.5918918565e-13
2.58387204363e-13
2.58273389704e-13
2.5716440549e-13
2.71316884511e-13
1.32288675965e-11
6.33334046692e-12
2.6915707241e-12
1.49981953592e-12
1.10468036888e-12
9.00075958871e-13
8.15895164128e-13
7.74742273542e-13
6.91611317436e-13
5.7191271226e-13
4.37658164688e-13
3.32656970995e-13
2.89080818696e-13
2.77140582663e-13
2.73726520163e-13
2.72214086176e-13
2.71248156803e-13
2.70875345713e-13
2.69066904023e-13
2.80930226997e-13
1.2964253088e-11
6.88044473269e-12
3.15234475974e-12
1.74159615505e-12
1.23237063425e-12
9.75274209593e-13
8.4156787372e-13
8.04662326371e-13
7.33121854169e-13
6.18330320779e-13
4.80156994032e-13
3.58713030083e-13
3.03029140242e-13
2.87043021579e-13
2.82783852838e-13
2.8111286694e-13
2.80008416152e-13
2.7940840609e-13
2.77213002841e-13
2.89741014903e-13
1.24989535103e-11
7.26335339358e-12
3.56550354317e-12
1.97681134337e-12
1.36546335441e-12
1.05892142252e-12
8.88924313891e-13
8.37970790957e-13
7.77844762829e-13
6.70132430415e-13
5.30324957769e-13
3.91149753316e-13
3.18047497231e-13
2.95092521357e-13
2.89128861436e-13
2.87187257385e-13
2.85969792364e-13
2.85178804804e-13
2.82895965513e-13
2.98704437259e-13
1.18162677971e-11
7.456289654e-12
3.90871860238e-12
2.20640633724e-12
1.50770143395e-12
1.1588144764e-12
9.67754565683e-13
8.81221024912e-13
8.30706735358e-13
7.33106504881e-13
5.9498153025e-13
4.37166755181e-13
3.38306804501e-13
3.03240797165e-13
2.93950939083e-13
2.91426868256e-13
2.90094566491e-13
2.89140143304e-13
2.87023980437e-13
3.08817492261e-13
1.09911493459e-11
7.3617093868e-12
4.12211906174e-12
2.41103546335e-12
1.65755204643e-12
1.2779516388e-12
1.07061057923e-12
9.55797257933e-13
8.98260820018e-13
8.11122502716e-13
6.80285227552e-13
5.06786979903e-13
3.70323755818e-13
3.14012844371e-13
2.98342034588e-13
2.94563931013e-13
2.9305301824e-13
2.91944301998e-13
2.90232200728e-13
3.21092470457e-13
1.00822316441e-11
7.02538567194e-12
4.18844219748e-12
2.57805713447e-12
1.81761643477e-12
1.42620213886e-12
1.21284233599e-12
1.09503218082e-12
9.99645819456e-13
9.18330228862e-13
7.98648783807e-13
6.19029329573e-13
4.28813975651e-13
3.32191836394e-13
3.03634921765e-13
2.97202283051e-13
2.95316509243e-13
2.94033594812e-13
2.93019689848e-13
3.36693559972e-13
9.11945594114e-12
6.55223591751e-12
4.14704323324e-12
2.71510026602e-12
1.99847647892e-12
1.62223592208e-12
1.41729938213e-12
1.3017933176e-12
1.19732517749e-12
1.08678353755e-12
9.62252710296e-13
7.87734249806e-13
5.48600508022e-13
3.71754177692e-13
3.12768826331e-13
3.00025344202e-13
2.97235995802e-13
2.95712678339e-13
2.95802785526e-13
3.57202135362e-13
8.13429315268e-12
6.02531339609e-12
4.05621081396e-12
2.84946622703e-12
2.2267182301e-12
1.90148386516e-12
1.723075851e-12
1.61380253792e-12
1.50990788067e-12
1.36758755811e-12
1.19748915434e-12
1.00781030293e-12
7.54377393474e-13
4.64630209477e-13
3.33055533109e-13
3.04126139153e-13
2.99084914798e-13
2.97170427224e-13
2.98925186484e-13
3.84076826623e-13
7.17973463073e-12
5.55542839976e-12
4.01927065968e-12
3.06276643909e-12
2.57586838003e-12
2.33650381776e-12
2.19255592898e-12
2.06541834431e-12
1.92611348165e-12
1.75839178504e-12
1.51345184311e-12
1.27367452762e-12
1.00623547944e-12
6.39091142312e-13
3.78667200738e-13
3.11596874414e-13
3.01143072698e-13
2.98527201891e-13
3.02670224653e-13
4.18032536931e-13
6.31986705145e-12
5.16770176884e-12
4.1296678914e-12
3.48299955538e-12
3.18593555381e-12
3.0238957402e-12
2.84065516957e-12
2.60078437005e-12
2.35022767963e-12
2.12751930262e-12
1.8768810452e-12
1.56301754912e-12
1.25138591498e-12
8.52090078765e-13
4.54896089452e-13
3.23883532393e-13
3.03495193255e-13
2.99811401317e-13
3.07508925578e-13
4.58308159072e-13
5.76936254477e-12
5.1690575087e-12
4.69424883463e-12
4.38180669435e-12
4.08926150345e-12
3.72601829746e-12
3.2983204598e-12
2.84611425059e-12
2.45725253741e-12
2.19905592846e-12
2.00497331477e-12
1.72130879953e-12
1.39688299238e-12
9.94859248443e-13
5.28248696338e-13
3.3764811867e-13
3.058947156e-13
3.01007573196e-13
3.14423231268e-13
5.04675380602e-13
6.071535238e-12
5.72086881514e-12
5.24987195114e-12
4.6712935127e-12
3.98159206713e-12
3.25106215367e-12
2.57343237257e-12
2.04562900223e-12
1.77484836303e-12
1.77584048343e-12
1.82403717117e-12
1.66948198882e-12
1.3833835278e-12
1.01422517442e-12
5.49127338686e-13
3.43928000302e-13
3.07209376094e-13
3.02038793694e-13
3.25113493727e-13
5.57863536378e-13
4.68840118637e-12
4.08835411253e-12
3.42704244511e-12
2.77359535803e-12
2.15207924445e-12
1.65101868385e-12
1.38838942834e-12
1.33546029142e-12
1.39427754327e-12
1.5163685015e-12
1.61010517211e-12
1.53357101422e-12
1.31036596367e-12
9.50541557086e-13
5.13824746953e-13
3.38432799552e-13
3.06903980887e-13
3.03051787451e-13
3.42462212548e-13
6.18682420028e-13
1.47011467314e-12
1.26045882128e-12
1.15387850077e-12
1.13196659036e-12
1.16423393005e-12
1.22192876656e-12
1.28636675571e-12
1.3504226381e-12
1.40991978784e-12
1.47037011876e-12
1.4988396542e-12
1.41579330369e-12
1.22290608727e-12
8.5549087275e-13
4.7032184431e-13
3.30711676486e-13
3.06134479657e-13
3.04775547125e-13
3.69689571263e-13
6.87058352736e-13
1.0153741154e-12
1.04682984148e-12
1.09540446501e-12
1.16838769601e-12
1.25781871975e-12
1.34063349717e-12
1.39321879719e-12
1.42496597663e-12
1.44712249376e-12
1.45794163321e-12
1.42534956273e-12
1.33980030755e-12
1.13708026908e-12
7.55812454057e-13
4.28097829221e-13
3.23420006507e-13
3.05371077047e-13
3.08249139985e-13
4.08952588652e-13
7.61298822322e-13
1.05084546883e-12
1.09984002112e-12
1.16619829738e-12
1.25029676163e-12
1.33148401513e-12
1.38825522711e-12
1.41667698644e-12
1.42825074613e-12
1.43039726633e-12
1.42541782739e-12
1.36984588475e-12
1.2741672514e-12
1.03679574492e-12
6.58048575896e-13
3.92259463529e-13
3.17367167558e-13
3.0493407892e-13
3.14501407582e-13
4.60237316165e-13
8.38540477087e-13
1.08059204757e-12
1.12930205891e-12
1.18898363949e-12
1.25832251224e-12
1.32642280823e-12
1.37481947161e-12
1.39504745866e-12
1.39011705088e-12
1.37511745806e-12
1.35968735999e-12
1.30200248389e-12
1.18784537864e-12
9.13790390627e-13
5.60884669954e-13
3.61937888934e-13
3.12404433409e-13
3.05010303787e-13
3.24759811849e-13
5.2047232009e-13
9.1375546054e-13
1.08077668909e-12
1.11796980505e-12
1.16281899e-12
1.21969812726e-12
1.2803660665e-12
1.32688490257e-12
1.34661844715e-12
1.33415709996e-12
1.30498778072e-12
1.27185726466e-12
1.21385624893e-12
1.07160168954e-12
7.71622305569e-13
4.72930211836e-13
3.38719332215e-13
3.08571405943e-13
3.05956497369e-13
3.4013086473e-13
5.82768385749e-13
9.81148747964e-13
1.06168313417e-12
1.09061532091e-12
1.12320065585e-12
1.1667771845e-12
1.21890738875e-12
1.26343947848e-12
1.28381357893e-12
1.2701015761e-12
1.23052720508e-12
1.17734366211e-12
1.10561077463e-12
9.25500767263e-13
6.27294466847e-13
2.02271455102e-13
3.90789186634e-13
4.70718768336e-13
3.98242703876e-13
5.00975941129e-13
4.0221504892e-13
4.84136918692e-13
4.03497093265e-13
4.63723814173e-13
4.03744995243e-13
4.46625648203e-13
4.03400604544e-13
4.35075413256e-13
4.02666805502e-13
4.28645722809e-13
4.01645145116e-13
4.26806319732e-13
4.0038934795e-13
4.29059360617e-13
3.98972783416e-13
4.36093947948e-13
3.97548714126e-13
4.51104501671e-13
3.96316020676e-13
4.80364155462e-13
3.95378518754e-13
5.31435761226e-13
3.9516659611e-13
6.1959834225e-13
3.95782486091e-13
6.94584309656e-13
1.39366096445e-12
7.68882775105e-13
1.46172844149e-12
8.54703710929e-13
1.54858571236e-12
9.45478780048e-13
1.65238398603e-12
1.03561299058e-12
1.76885836398e-12
1.12780854159e-12
1.89563545717e-12
1.22565156024e-12
2.03214986131e-12
1.33075248967e-12
2.17781633405e-12
1.44037379353e-12
2.33280061574e-12
1.55028753938e-12
2.49870603006e-12
1.65565445744e-12
2.67784417594e-12
1.75109449492e-12
2.874432496e-12
1.83497870334e-12
3.09448766364e-12
)
;

boundaryField
{
    inletfuel
    {
        type            calculated;
        value           uniform 0;
    }
    inletair
    {
        type            calculated;
        value           uniform 0;
    }
    outlet
    {
        type            calculated;
        value           nonuniform 0();
    }
    axis
    {
        type            empty;
    }
    leftside
    {
        type            calculated;
        value           uniform 0;
    }
    burnerwall
    {
        type            calculated;
        value           uniform 0;
    }
    front
    {
        type            wedge;
    }
    back
    {
        type            wedge;
    }
    procBoundary0to1
    {
        type            processor;
        value           uniform 0;
    }
}


// ************************************************************************* //
