/*--------------------------------*- C++ -*----------------------------------*\
  =========                 |
  \\      /  F ield         | OpenFOAM: The Open Source CFD Toolbox
   \\    /   O peration     | Website:  https://openfoam.org
    \\  /    A nd           | Version:  7
     \\/     M anipulation  |
\*---------------------------------------------------------------------------*/
FoamFile
{
    version     2.0;
    format      ascii;
    class       surfaceScalarField;
    location    "0.02";
    object      phi;
}
// * * * * * * * * * * * * * * * * * * * * * * * * * * * * * * * * * * * * * //

dimensions      [1 0 -1 0 0 0 0];

internalField   nonuniform List<scalar> 
1567
(
-3.74829930269e-09
8.42262102811e-08
-1.31280408566e-08
2.50693072257e-07
3.8887788876e-07
1.83367218334e-09
8.22488235958e-08
1.72721429292e-09
2.50433448155e-07
3.90103173308e-07
7.11235371777e-10
8.15314381202e-08
-3.01077433513e-09
2.54054618154e-07
3.8677673524e-07
-1.68506215968e-09
8.31517150861e-08
-6.36097375593e-10
2.52729711828e-07
3.59943233924e-07
2.59347444248e-08
3.48652546008e-09
7.95975525846e-08
2.72077339447e-08
2.28854394024e-07
3.17222914525e-07
6.97912627323e-08
4.59965469047e-09
7.49710271884e-08
2.1870891631e-08
2.11546059254e-07
2.82323321783e-07
5.70368087537e-08
3.83610105813e-09
7.11087359099e-08
1.85032770376e-08
1.96888213176e-07
2.5266836217e-07
4.86442423164e-08
3.68886817132e-09
6.73346294441e-08
1.65467122751e-08
1.8400651391e-07
2.28340114515e-07
4.12133621598e-08
3.09111870257e-09
6.40933411314e-08
1.36236459546e-08
1.73308647844e-07
2.1121610037e-07
3.07930493138e-08
2.26144772537e-09
6.16628166488e-08
1.04408910957e-08
1.64748375575e-07
2.01982779363e-07
1.95014692852e-08
1.83948166368e-09
5.95777819756e-08
8.42360281024e-09
1.57671847446e-07
1.96681730384e-07
1.33253584306e-08
1.80610834181e-09
5.74666132332e-08
6.76407129957e-09
1.5211257543e-07
1.93209371864e-07
9.65583630027e-09
2.06674519555e-09
5.50861489701e-08
6.62296718017e-09
1.46916936969e-07
1.89620161293e-07
9.53722193276e-09
2.50617088381e-09
5.22949527601e-08
8.21696505141e-09
1.40587480108e-07
1.84506410038e-07
1.26247427088e-08
2.88316359112e-09
4.91746672812e-08
1.00030336612e-08
1.32913565903e-07
1.77576211962e-07
1.62457091696e-08
3.15483124948e-09
4.58459597072e-08
1.10101850703e-08
1.2461091254e-07
1.69166265606e-07
1.88163416072e-08
3.34106601945e-09
4.23797217147e-08
1.17656327661e-08
1.15843892592e-07
1.59536858843e-07
2.08502060021e-08
3.29262952768e-09
3.90056563032e-08
1.15749817786e-08
1.07297303134e-07
1.49504954679e-07
2.11129005357e-08
3.04907601914e-09
3.58891388591e-08
1.1177297377e-08
9.89339180077e-08
1.39825753924e-07
2.03460390669e-08
2.87582479524e-09
3.29548504553e-08
1.04104352266e-08
9.11527669062e-08
1.30980688875e-07
1.86899747857e-08
2.73276462905e-09
3.01200079114e-08
9.66274787659e-09
8.38724082969e-08
1.22425064852e-07
1.74731995425e-08
3.21579224825e-09
2.67805947957e-08
1.17716066655e-08
7.48761385667e-08
1.11168536603e-07
2.21590286163e-08
4.57427906783e-09
2.19952976221e-08
1.7329229818e-08
6.15426818021e-08
9.23054935551e-08
3.5097743094e-08
8.3782271389e-09
1.34884854869e-08
3.13052427178e-08
3.79731561159e-08
5.53165601996e-08
6.73496105708e-08
1.59660132649e-08
-3.61081449949e-09
6.32872544218e-08
-1.28590830564e-08
-2.66402185422e-08
1.37887782254e-07
1.39191442891e-08
-2.85966650146e-08
5.52163040084e-08
-8.76348480808e-08
-1.54186129306e-07
1.2591588329e-07
1.97288032844e-08
-5.17801821825e-08
7.74030218029e-08
-1.5516954751e-07
-2.59052739213e-07
1.67848360981e-07
7.85400438041e-09
-6.19950503634e-08
3.19542349563e-08
-1.86344469746e-07
-3.08798366841e-07
6.98356138223e-08
3.33200343208e-11
-6.46058745272e-08
9.20605655652e-10
-1.94968355068e-07
-3.22861618789e-07
1.86777280508e-09
-1.22295682153e-09
-6.62894934194e-08
-4.52380388999e-09
-2.00399698801e-07
-3.3190132142e-07
-1.03596738048e-08
-2.3030090628e-09
-6.71992281278e-08
-8.82657377521e-09
-2.03481221665e-07
-3.37094332502e-07
-1.98605894599e-08
-2.36484571986e-09
-9.3112104118e-09
-2.08463355176e-08
2.38073591636e-07
-2.42144610893e-07
1.78057856599e-07
1.26186017867e-07
1.65464195424e-07
6.89510984011e-08
1.59869888356e-07
5.35795522458e-08
1.5295297333e-07
4.71350470422e-08
1.49496488398e-07
3.37117113916e-08
1.5174524373e-07
1.63605692707e-08
1.55163482805e-07
9.2097843788e-09
1.58491519078e-07
5.72217997753e-09
1.60621481786e-07
6.80985011194e-09
1.60569038447e-07
1.20375677425e-08
1.58304117943e-07
1.78291652805e-08
1.54041510748e-07
2.23671958432e-08
1.47928428057e-07
2.62153641676e-08
1.41344885502e-07
2.69212219252e-08
1.34818951916e-07
2.60394551998e-08
1.28882887008e-07
2.36825626721e-08
1.23289182402e-07
2.19533697041e-08
1.14229112996e-07
2.99649056542e-08
9.57391967883e-08
5.2277641535e-08
5.47028025639e-08
1.07129977751e-07
-3.9408738902e-08
2.21253903809e-07
-1.98070611038e-07
2.14117116032e-07
-3.10695982092e-07
2.6605823281e-07
-3.66580569377e-07
1.11518238407e-07
-3.82720350882e-07
2.10190456705e-09
-3.93229899857e-07
-1.80575257152e-08
-3.995915605e-07
-3.31435326733e-08
-3.44878719913e-08
4.57135580211e-07
3.40853666923e-07
1.02244985216e-06
7.09167920221e-07
1.68823078282e-06
1.20091505975e-06
2.36186174283e-06
1.9244536717e-06
3.12654219208e-06
2.73183915698e-06
3.82583338951e-06
3.89835532045e-06
4.58101251135e-06
5.19026637217e-06
5.23533454799e-06
6.93668656666e-06
5.88881453307e-06
8.94197255348e-06
6.41150091909e-06
1.15079779074e-05
6.86716845991e-06
1.45221438958e-05
7.14540553279e-06
1.82609767464e-05
7.27272689874e-06
2.27190351617e-05
7.21000604301e-06
2.80994385463e-05
6.85520028696e-06
3.45936870195e-05
6.27243491911e-06
4.22073856813e-05
5.13771578982e-06
5.1578324649e-05
3.81836322372e-06
6.2310283051e-05
1.64477756842e-06
7.57936668945e-05
9.04555665248e-05
5.61268679397e-07
-2.44019564486e-07
9.1881385625e-07
2.86186593435e-07
1.48644818336e-06
5.41921658959e-07
1.96670221604e-06
1.31601350177e-06
2.47871531729e-06
2.04135551107e-06
2.89732550501e-06
3.23714854127e-06
3.27600891717e-06
4.49094778635e-06
3.57451964714e-06
6.22604733497e-06
3.84700644021e-06
8.14851374823e-06
4.04546991214e-06
1.06616034625e-05
4.20952185533e-06
1.35607561286e-05
4.28177668912e-06
1.72148102015e-05
4.28687286683e-06
2.15388446184e-05
4.19972231651e-06
2.67838428885e-05
3.99434563451e-06
3.31170861131e-05
3.65460942708e-06
4.05039016016e-05
3.04918377533e-06
4.96906168167e-05
2.31374996052e-06
6.00073432552e-05
6.89200562434e-07
7.37483794629e-05
8.67602784428e-05
6.58912758472e-07
-4.24791392473e-07
1.01322907057e-06
-2.49023687943e-08
1.43585094016e-06
7.73072813809e-08
1.80406632712e-06
8.8000169812e-07
2.08660583783e-06
1.65493293142e-06
2.24104564769e-06
2.93345108388e-06
2.38650623211e-06
4.14161959138e-06
2.49642276445e-06
5.84914611892e-06
2.59883129821e-06
7.70426435156e-06
2.66959048612e-06
1.01622542961e-05
2.71878267074e-06
1.29804676947e-05
2.72526261444e-06
1.65536135841e-05
2.69448660385e-06
2.0771590935e-05
2.60955256059e-06
2.59097538552e-05
2.4780852985e-06
3.20985369943e-05
2.26200915307e-06
3.93284519323e-05
1.91544928603e-06
4.83449478637e-05
1.4582049821e-06
5.84067569047e-05
3.24075373428e-07
7.24006602767e-05
8.41133597948e-05
-1.21252346547e-07
-3.46875252734e-08
1.80713012004e-06
-2.75471018924e-07
2.23697876342e-06
-5.77087344838e-08
2.68041391734e-06
5.04893432176e-07
2.69123720665e-06
1.54367092197e-06
2.85527211991e-06
2.62676275479e-06
2.93981580278e-06
3.84589084556e-06
3.02329214946e-06
5.4812246438e-06
3.08593340004e-06
7.27144593887e-06
3.12431360233e-06
9.65624919307e-06
3.14412145328e-06
1.23789714123e-05
3.12379277054e-06
1.58524431744e-05
3.06669533707e-06
1.99425459192e-05
2.95499673354e-06
2.49508581234e-05
2.79925702918e-06
3.09697664188e-05
2.56016415194e-06
3.80176207736e-05
2.21461807061e-06
4.68104160807e-05
1.70221711231e-06
5.66368806797e-05
2.58499450784e-07
7.10932776201e-05
8.3468552738e-05
-1.80410658574e-06
1.5622332182e-07
-8.1430700928e-09
7.60281215135e-07
-1.03336332654e-07
2.38048522348e-06
1.36979617436e-07
3.70384370819e-06
1.02331440136e-06
3.9350684587e-06
2.01399691137e-06
3.86310455829e-06
2.81200102468e-06
3.70270360913e-06
3.79954002202e-06
3.70469546699e-06
5.20344560329e-06
3.70981456273e-06
6.89046821944e-06
3.71096563946e-06
9.17228464736e-06
3.7045292563e-06
1.17817864083e-05
3.65824787749e-06
1.51467149585e-05
3.57439788092e-06
1.90964383221e-05
3.43204941715e-06
2.39636581278e-05
3.24076648598e-06
2.98041775283e-05
2.96439352875e-06
3.66604835508e-05
2.620672038e-06
4.51778495058e-05
2.11479528459e-06
5.47479982425e-05
1.79415208784e-06
6.8528492302e-05
7.92470222072e-05
2.4991838214e-06
1.12033478996e-07
-2.50847183795e-08
5.11142577975e-07
-1.94347879558e-07
1.63572734883e-06
2.18342990012e-07
2.97464813399e-06
1.16641961484e-06
3.70064153808e-06
2.0620790337e-06
4.05732861964e-06
2.60393433264e-06
4.2234448151e-06
3.53499857947e-06
4.42029954134e-06
4.80577291405e-06
4.45991863705e-06
6.45801887689e-06
4.46907756549e-06
8.67147985266e-06
4.43806594251e-06
1.11895856793e-05
4.36664436133e-06
1.44379577595e-05
4.2452235833e-06
1.82469319181e-05
4.06040041117e-06
2.29623363742e-05
3.8194782965e-06
2.86161478149e-05
3.48699754775e-06
3.52737388695e-05
3.1238423194e-06
4.34653537331e-05
2.60688739441e-06
5.27536543925e-05
2.88088749165e-06
6.5233882795e-05
7.42505591449e-05
4.16943104645e-06
6.75981842379e-08
-2.20611589202e-08
2.75531064466e-07
-2.73397347966e-07
1.05070329263e-06
1.0500734317e-07
2.10732415073e-06
8.32918628171e-07
3.0860996447e-06
1.48319722693e-06
3.85731145601e-06
1.88717813581e-06
4.51542336167e-06
2.86800372948e-06
5.03168155692e-06
4.14546070702e-06
5.27858422197e-06
5.94818871277e-06
5.35331974763e-06
8.07421807471e-06
5.29463950199e-06
1.06075624278e-05
5.19181248546e-06
1.37294172768e-05
5.02351171299e-06
1.73971117785e-05
4.78197714787e-06
2.19520061577e-05
4.47918381424e-06
2.74038346266e-05
4.07259457007e-06
3.38545083293e-05
3.65849955201e-06
4.16768687014e-05
3.08212071388e-06
5.06674542492e-05
3.44298561275e-06
6.16772029363e-05
6.99238314622e-05
3.9356819259e-06
4.26728248429e-08
-6.90161865346e-09
1.28105714519e-07
-2.83307870718e-07
6.19154449704e-07
-3.69995988704e-08
1.38024618548e-06
3.16413770608e-07
2.3338816253e-06
6.17037527675e-07
3.33788334875e-06
8.7016178339e-07
4.50132441454e-06
1.82206046561e-06
5.47412974087e-06
3.19083608264e-06
6.02769406277e-06
5.23428006947e-06
6.30550248099e-06
7.44378404767e-06
6.24771742115e-06
9.97860944424e-06
6.12796673776e-06
1.30104110906e-05
5.89021648697e-06
1.65645465234e-05
5.57817327018e-06
2.09361064792e-05
5.19887676911e-06
2.61663387096e-05
4.70098278894e-06
3.23971058898e-05
4.19777201045e-06
3.98186884771e-05
3.50775249834e-06
4.85025278198e-05
3.60028140591e-06
5.81626985871e-05
6.59082016831e-05
3.61140835107e-06
7.04042582085e-09
2.57544968659e-08
2.62397784844e-08
-2.62118676604e-07
4.26654724756e-07
-2.11938274952e-07
9.9610425043e-07
-8.02694609429e-08
1.73695979392e-06
-3.629215151e-08
2.69785235246e-06
1.04466574014e-08
4.13204799986e-06
7.36445302304e-07
5.6095395555e-06
2.02612017331e-06
6.63563368838e-06
4.33438653846e-06
7.18328559379e-06
6.67000995611e-06
7.26614632725e-06
9.35037790386e-06
7.1517573512e-06
1.23164821149e-05
6.83705816556e-06
1.57433488923e-05
6.44219867525e-06
1.99220208498e-05
5.96733174175e-06
2.49132069084e-05
5.3610604268e-06
3.09035338645e-05
4.73563591363e-06
3.79013226242e-05
3.88928905369e-06
4.6271179345e-05
3.60029974391e-06
5.47652247661e-05
6.21536012268e-05
3.11735918479e-06
-3.34965376673e-08
7.96510204201e-08
-1.15804898931e-07
-1.86788931188e-07
9.45715607882e-08
-2.47551234575e-07
5.43244383205e-07
-3.15796254736e-07
1.29286222695e-06
-4.15518335745e-07
2.47661275797e-06
-5.65991198098e-07
3.91341030074e-06
1.31727094125e-07
5.56497247161e-06
1.23338928129e-06
7.0013287685e-06
3.50281095828e-06
7.92689661652e-06
5.8714378717e-06
8.26444706363e-06
8.68735677644e-06
8.21192016883e-06
1.16231188977e-05
7.84978473366e-06
1.49759924101e-05
7.35229111318e-06
1.89370172856e-05
6.76711336707e-06
2.36589160856e-05
6.03518060757e-06
2.93887548933e-05
5.2608003659e-06
3.59449855543e-05
4.226688862e-06
4.39949318039e-05
3.52580364491e-06
5.15032539633e-05
5.8599261627e-05
2.56444917919e-06
-3.79557769818e-08
1.28165838476e-07
-8.73385765481e-08
-1.33470900571e-07
1.67672370021e-08
-2.55761316746e-07
2.95008992303e-07
-4.20368788156e-07
8.4530480039e-07
-6.24411014208e-07
1.79126592839e-06
-8.78206145852e-07
3.3328838003e-06
-3.51661526481e-07
5.15892178154e-06
6.83724647184e-07
7.02227123285e-06
2.77797325291e-06
8.40496289316e-06
5.13033812439e-06
9.12969475067e-06
8.01895876202e-06
9.24426611613e-06
1.09600307283e-05
8.87866915065e-06
1.42567525327e-05
8.28351455124e-06
1.79973399058e-05
7.57559398716e-06
2.24273988014e-05
6.7042268801e-06
2.78793810472e-05
5.76158297608e-06
3.3984190575e-05
4.51860936311e-06
4.17124905447e-05
3.43126524453e-06
4.83742918021e-05
5.52050638128e-05
2.05542584267e-06
-3.6198423681e-08
1.69861930008e-07
-6.35536326338e-08
-1.0155323845e-07
1.25974440879e-08
-2.81818045827e-07
1.8835220432e-07
-4.84681999956e-07
5.15818430139e-07
-7.35699310897e-07
1.12197832148e-06
-1.03227289625e-06
2.54941331312e-06
-8.3135899019e-07
4.39509306497e-06
1.88777651114e-07
6.62368227756e-06
2.01952343356e-06
8.50971264575e-06
4.40565141214e-06
9.75149628647e-06
7.33026899562e-06
1.01694052477e-05
1.03138297091e-05
9.88685150696e-06
1.35736767836e-05
9.21840388962e-06
1.71164413597e-05
8.38696755878e-06
2.12447253729e-05
7.36573312463e-06
2.64159265436e-05
6.24036668586e-06
3.20723525434e-05
4.77239249847e-06
3.948689737e-05
3.32389459533e-06
4.54103693605e-05
5.19585367557e-05
1.58998240578e-06
-2.93232648742e-08
2.04642184744e-07
-4.49269721715e-08
-8.2607732662e-08
1.82777521154e-08
-3.13749447657e-07
1.45117169174e-07
-5.54574687193e-07
3.53434370225e-07
-8.36462470242e-07
7.18415153464e-07
-1.14180641683e-06
1.78650108451e-06
-1.19894320971e-06
3.5618195404e-06
-3.48388813598e-07
5.89021332586e-06
1.2531549049e-06
8.24188693151e-06
3.56886146874e-06
1.0058938933e-05
6.55310710807e-06
1.09055781304e-05
9.6310242097e-06
1.0826816144e-05
1.28784957182e-05
1.01521474283e-05
1.62783337435e-05
9.21332767018e-06
2.01343279358e-05
8.04036025433e-06
2.50442182922e-05
6.7178771283e-06
3.02821763687e-05
5.00986928023e-06
3.74028661858e-05
3.21967420446e-06
4.26734020622e-05
4.88639180828e-05
1.18392412676e-06
-1.89488067057e-08
2.33303891308e-07
-3.26760455862e-08
-6.79495089725e-08
1.34320560647e-08
-3.40560416296e-07
9.7666214795e-08
-6.10264375935e-07
2.24118785323e-07
-9.1313559226e-07
4.39053085818e-07
-1.2336395124e-06
1.14358025048e-06
-1.45557857029e-06
2.79724294845e-06
-9.97069731989e-07
5.05314442954e-06
4.95126745959e-07
7.71820764303e-06
2.59805432386e-06
1.00705642702e-05
5.62052985528e-06
1.14405147543e-05
8.8056608132e-06
1.16910239744e-05
1.2096751764e-05
1.11095121238e-05
1.5444539799e-05
1.00931414816e-05
1.91189172473e-05
8.76851972197e-06
2.38163647999e-05
7.22860335124e-06
2.86990544813e-05
5.26103562906e-06
3.55580481368e-05
3.12613342796e-06
4.02549715298e-05
4.59724465457e-05
8.1157317674e-07
-7.10961138107e-09
2.55166756389e-07
-2.67085750433e-08
-5.03530911825e-08
-4.74810988597e-09
-3.52211913476e-07
3.97498353723e-08
-6.42625264708e-07
1.07003148296e-07
-9.60448156853e-07
2.43862118348e-07
-1.3100573562e-06
6.95476854643e-07
-1.63484674551e-06
2.02249474498e-06
-1.55311427685e-06
4.19217678312e-06
-3.6305203322e-07
6.97890846438e-06
1.50856069343e-06
9.82538703615e-06
4.40382154564e-06
1.17783801243e-05
7.70748145667e-06
1.24743836305e-05
1.11380287991e-05
1.20995763072e-05
1.4568954211e-05
1.10626090846e-05
1.82054854855e-05
9.58830550235e-06
2.27843456988e-05
7.80253595056e-06
2.74094215464e-05
5.54297177914e-06
3.40568061129e-05
3.02379703856e-06
3.82797191632e-05
4.33480404284e-05
4.61565084432e-07
5.03421181021e-09
2.6897204094e-07
-2.85572290572e-08
-2.17548296796e-08
-3.90334589068e-08
-3.38974389561e-07
-3.77015760479e-08
-6.41768578529e-07
-1.98728276684e-08
-9.73622870237e-07
3.82384217179e-08
-1.33898988974e-06
2.84830829213e-07
-1.72933065405e-06
1.24176126788e-06
-1.93742874888e-06
3.40056807056e-06
-1.35263434812e-06
6.21348907167e-06
3.98466640503e-07
9.45339497387e-06
2.96002847559e-06
1.19789367129e-05
6.32588520674e-06
1.32355186897e-05
9.92254724166e-06
1.31776009789e-05
1.36203596159e-05
1.21787397052e-05
1.74100064152e-05
1.05444072381e-05
2.20130410677e-05
8.46445971066e-06
2.65048629596e-05
5.86187233079e-06
3.30051831779e-05
2.86073952931e-06
3.69201926934e-05
4.09753260449e-05
1.48904503339e-07
1.55393818655e-08
2.75606328469e-07
-2.87615303829e-08
1.50211937954e-08
-6.91875006114e-08
-3.01766628612e-07
-1.10408050302e-07
-6.06000672386e-07
-1.52750645931e-07
-9.39057524707e-07
-1.67065058401e-07
-1.31859164227e-06
-6.11788236424e-08
-1.74801918925e-06
6.08167488851e-07
-2.16076171404e-06
2.43694998971e-06
-2.12790478973e-06
5.44333528465e-06
-9.32358977705e-07
8.91192117494e-06
1.42274347619e-06
1.20522898067e-05
4.67097775791e-06
1.39984419744e-05
8.43109791138e-06
1.43503414383e-05
1.26215982739e-05
1.34376724546e-05
1.67716576223e-05
1.16513068153e-05
2.15509336146e-05
9.2134965147e-06
2.607932354e-05
6.22010413843e-06
3.2484192626e-05
2.68495069023e-06
3.62744070672e-05
3.91513076443e-05
-3.4254358414e-07
1.87133200044e-08
2.79264589519e-07
-3.37806091725e-08
5.87621131451e-08
-1.04097374779e-07
-2.38971763586e-07
-1.85678453657e-07
-5.35036133657e-07
-2.77298690576e-07
-8.62280670705e-07
-3.59141055051e-07
-1.24579393506e-06
-3.7606472904e-07
-1.69521570561e-06
-1.47653127638e-08
-2.21876835895e-06
1.37569653593e-06
-2.60434388905e-06
4.49576847326e-06
-2.27705444078e-06
8.19025041608e-06
-1.91693729308e-07
1.20868217919e-05
2.76554978099e-06
1.48050683148e-05
6.81831388172e-06
1.56912502553e-05
1.16388299568e-05
1.48838489744e-05
1.63904550262e-05
1.29159464996e-05
2.1491737649e-05
1.00467718616e-05
2.62304314993e-05
6.61169796571e-06
3.25522117816e-05
2.49589248914e-06
3.6361006749e-05
3.75754384829e-05
-6.62391818336e-07
1.42373278097e-08
2.86057702451e-07
-4.18013462044e-08
1.05869042185e-07
-1.34388451974e-07
-1.56525670278e-07
-2.50496117777e-07
-4.32754841206e-07
-3.82288037881e-07
-7.49084475876e-07
-5.10522493789e-07
-1.13374112395e-06
-5.91400595409e-07
-1.60499962996e-06
-5.1348430506e-07
-2.18594309296e-06
3.90792495602e-07
-2.79766706705e-06
2.85827652418e-06
-3.04351447917e-06
7.53220573608e-06
-2.13525125369e-06
1.20225241891e-05
1.15928062831e-06
1.56436146803e-05
5.29016066131e-06
1.71331692999e-05
1.08740321103e-05
1.64652747769e-05
1.64000619082e-05
1.42741456005e-05
2.19550790343e-05
1.09133357596e-05
2.70406089005e-05
6.98716917004e-06
3.32412829477e-05
2.24347366077e-06
3.71732467562e-05
3.62441093045e-05
-9.89280867087e-07
9.6355041051e-09
2.94727301717e-07
-5.10244688202e-08
1.57631746715e-07
-1.59071951896e-07
-5.99581371393e-08
-2.97113348765e-07
-3.10092051906e-07
-4.51403604302e-07
-6.14774140608e-07
-5.92982274715e-07
-1.01108166122e-06
-6.71841998395e-07
-1.52942785889e-06
-6.34133506351e-07
-2.16774971769e-06
-1.94491021874e-07
-2.87955824604e-06
1.53622428716e-06
-3.42484701548e-06
5.80121601214e-06
-3.44848758437e-06
1.11969561866e-05
-6.36103862429e-07
1.61346960351e-05
3.87219745586e-06
1.86189372239e-05
1.04178111946e-05
1.81632014696e-05
1.70075099993e-05
1.57023243091e-05
2.30970744982e-05
1.17754275513e-05
2.86069192489e-05
7.27996903027e-06
3.4613452896e-05
1.94373148177e-06
3.86623028765e-05
3.53282421044e-05
-1.29254306759e-06
7.57652831961e-09
3.03468504245e-07
-5.61968910193e-08
2.1257960865e-07
-1.66389208055e-07
3.80800326296e-08
-3.08900261968e-07
-1.83547718075e-07
-4.56366823125e-07
-4.87674207578e-07
-5.71474119e-07
-9.1806930019e-07
-6.05372675449e-07
-1.51167801993e-06
-5.13581995367e-07
-2.24553983066e-06
-2.02435067147e-07
-3.01894207183e-06
7.50263454763e-07
-3.64885510179e-06
3.59258327716e-06
-3.92773609092e-06
9.79786891362e-06
-2.52260218409e-06
1.5877128878e-05
3.28137626752e-06
1.98938339328e-05
1.05144097923e-05
1.97917256658e-05
1.85631644564e-05
1.70010505495e-05
2.51329563241e-05
1.24923494257e-05
3.09651068141e-05
7.4096509628e-06
3.66829911762e-05
1.65797420916e-06
4.0662858037e-05
3.46356773425e-05
-1.45635581098e-06
2.76908510288e-08
3.00034743745e-07
-1.58588731683e-08
2.47110181092e-07
-9.57416449548e-08
1.06085000425e-07
-1.83174642504e-07
-1.11489145968e-07
-2.47763534537e-07
-4.44462352964e-07
-2.45997910719e-07
-9.50797962721e-07
-1.45695039318e-07
-1.65763962707e-06
6.74836091684e-08
-2.51628674976e-06
3.96076200514e-07
-3.36287077948e-06
1.03399241481e-06
-4.04898622854e-06
2.57011827084e-06
-4.24449228245e-06
7.25227225846e-06
-3.50048250455e-06
1.43165479206e-05
2.15562436362e-06
1.99874691629e-05
1.12810542857e-05
2.08004408169e-05
2.0968209906e-05
1.79146549274e-05
2.79974276017e-05
1.29123945769e-05
3.4042114726e-05
7.28935004949e-06
3.93878817491e-05
1.35209915114e-06
4.28848902845e-05
3.39295035599e-05
-1.51041229646e-06
8.70868721285e-08
2.59631900761e-07
1.05090115947e-07
2.20082925391e-07
1.24465844611e-07
7.47473178973e-08
1.95309858336e-07
-2.02707696091e-07
3.54230315858e-07
-6.4810001849e-07
6.20239373841e-07
-1.31388388579e-06
9.82618849541e-07
-2.19995366271e-06
1.40549480793e-06
-3.21953609842e-06
1.83302245278e-06
-4.10456025841e-06
2.27158155932e-06
-4.66972664494e-06
2.95831304691e-06
-4.57499588893e-06
5.83718906573e-06
-3.79140245823e-06
1.20416500635e-05
1.81644219499e-06
1.88175516825e-05
1.25532739128e-05
2.08223049324e-05
2.39828086238e-05
1.79268651585e-05
3.16794853762e-05
1.26763925677e-05
3.75773239022e-05
6.7317450345e-06
4.2487936959e-05
9.52342209501e-07
4.49952345682e-05
3.31246281354e-05
-1.50382261121e-06
2.43283876339e-07
1.17630039806e-07
4.72983150802e-07
-2.18684853405e-08
7.61874804234e-07
-2.54629352941e-07
1.1276556277e-06
-6.66152727046e-07
1.57507284366e-06
-1.30924736035e-06
2.08143011313e-06
-2.20898514262e-06
2.6250852507e-06
-3.3277678999e-06
3.34161275548e-06
-4.68547294749e-06
3.86138324211e-06
-5.39776428345e-06
4.16663943126e-06
-5.55870277869e-06
4.30630558667e-06
-4.84457619747e-06
5.52384517969e-06
-3.4458608308e-06
9.87818155215e-06
2.88570512533e-06
1.62682512465e-05
1.4566112011e-05
1.8722468111e-05
2.72936770667e-05
1.63952697367e-05
3.51796431732e-05
1.14202365361e-05
4.09393855708e-05
5.54381306788e-06
4.55656485164e-05
3.74667425039e-07
4.65437174581e-05
3.20548553207e-05
-1.50122439847e-06
4.88582233121e-07
-2.05478293019e-07
8.02837304701e-07
-4.64842960989e-07
1.21498515168e-06
-8.97783326968e-07
1.75300046977e-06
-1.58988091847e-06
2.72335493763e-06
-2.90287068542e-06
3.95490390761e-06
-4.20947560639e-06
5.06956445491e-06
-5.20743756996e-06
5.53620765628e-06
-5.70173228895e-06
5.37885228109e-06
-5.65111568165e-06
4.75380510978e-06
-5.33711077266e-06
4.25161404314e-06
-4.65921997126e-06
4.35217508753e-06
-2.83082755827e-06
7.41792778845e-06
4.00766197284e-06
1.2524062647e-05
1.65336287025e-05
1.52089873031e-05
2.95593794174e-05
1.32157694734e-05
3.8098159131e-05
8.9498309548e-06
4.35210649195e-05
3.57612017447e-06
4.81365460392e-05
-8.65512754741e-07
4.75835444446e-05
3.01147191238e-05
-1.58074114955e-06
6.05456794027e-07
-8.84407514949e-07
1.2842865889e-06
-1.53315794246e-06
2.23706967738e-06
-2.27538135415e-06
3.48177403334e-06
-3.03904269175e-06
4.40511704436e-06
-3.63701824223e-06
4.8683748367e-06
-4.40962579201e-06
4.84920605353e-06
-5.18519738938e-06
4.4021814878e-06
-5.54704399935e-06
3.78502558174e-06
-5.54486582762e-06
3.12355074765e-06
-5.27946780009e-06
2.78403371541e-06
-4.86739375737e-06
2.67503557681e-06
-2.49301901706e-06
4.23558925362e-06
5.51815477943e-06
6.76359076128e-06
1.88555680283e-05
8.70491415843e-06
3.02775955908e-05
7.78281955437e-06
3.89291811906e-05
5.00643197065e-06
4.43611011996e-05
9.08828109109e-07
4.93870227134e-05
-2.55173130114e-06
4.80930447709e-05
2.7067635248e-05
-1.85729047439e-06
4.98419350583e-07
-1.15271126957e-06
7.27812827498e-07
-1.81406062977e-06
9.48591457841e-07
-2.57410151275e-06
1.19011934748e-06
-3.39234825481e-06
1.58219456262e-06
-4.18455953916e-06
1.84552355735e-06
-4.8925528479e-06
1.80258653525e-06
-5.43567927019e-06
1.62169942631e-06
-5.72673768627e-06
1.38551228246e-06
-5.7663821302e-06
1.01911845061e-06
-5.51124765064e-06
5.04269542626e-07
-5.11560679443e-06
1.26286863623e-07
-2.37247017138e-06
8.39617933127e-07
6.21654967937e-06
2.41676752258e-06
1.91848070828e-05
3.337952878e-06
3.00085542618e-05
2.82774230772e-06
3.85071652643e-05
7.00138248869e-07
4.43345668706e-05
-2.25703479166e-06
4.95512716105e-05
-4.30568420449e-06
4.76485898179e-05
2.28279871994e-05
-2.14026921919e-06
2.40776711258e-07
-1.33545361725e-06
3.83848397989e-07
-2.04286784797e-06
4.95597145683e-07
-2.81416056396e-06
5.248405042e-07
-3.60823822462e-06
4.44066126295e-07
-4.36963742602e-06
2.39697328777e-07
-5.04030312609e-06
-3.67421667079e-08
-5.59610196626e-06
-2.82631809794e-07
-5.99515673287e-06
-4.76865145487e-07
-6.26877083572e-06
-7.61378076304e-07
-6.19404032183e-06
-1.5677565798e-06
-5.73615314737e-06
-3.11040458433e-06
-2.68231506448e-06
-3.31461589087e-06
6.49396715338e-06
-2.27232273729e-06
1.86812825319e-05
-1.82592202957e-06
2.90894538582e-05
-2.11905695996e-06
3.73571257445e-05
-3.48621458854e-06
4.34305052218e-05
-5.36680808712e-06
4.88005764868e-05
-5.9454586845e-06
4.61768780882e-05
1.73528975343e-05
-2.32791104926e-06
-2.67193160494e-09
-1.39195320264e-06
-3.58362487561e-08
-2.11309007205e-06
-1.24114189661e-07
-2.88955318129e-06
-2.94611679743e-07
-3.68059468405e-06
-5.50082687887e-07
-4.44274530304e-06
-8.65900470752e-07
-5.14806588367e-06
-1.20438555259e-06
-5.79333356252e-06
-1.52124323037e-06
-6.3823938933e-06
-1.86110245324e-06
-6.92800093623e-06
-2.2909010326e-06
-7.27668701143e-06
-3.58392836449e-06
-6.78364119077e-06
-6.06287912393e-06
-3.56861371832e-06
-7.0202222071e-06
6.36391650109e-06
-6.84148921542e-06
1.79484626067e-05
-6.58142323061e-06
2.78489769451e-05
-6.51986242556e-06
3.56945032018e-05
-7.30882689634e-06
4.19700122732e-05
-7.98732815124e-06
4.70568126997e-05
-7.29639017723e-06
4.38710446841e-05
1.05700484766e-05
-2.28541126176e-06
-5.11024280108e-08
-1.42989684978e-06
-1.1709907951e-07
-2.16882177794e-06
-2.33578656225e-07
-2.96155977399e-06
-4.11399819537e-07
-3.77391649554e-06
-6.49300196498e-07
-4.5779569388e-06
-9.59535601175e-07
-5.33155248563e-06
-1.34889484291e-06
-6.05067255471e-06
-1.84213946751e-06
-6.75616518981e-06
-2.46775163997e-06
-7.5433966814e-06
-3.42120223824e-06
-8.29203639272e-06
-5.41753190495e-06
-8.12993307695e-06
-9.30990237407e-06
-4.37684530253e-06
-1.11745358021e-05
6.12014731486e-06
-1.1598515682e-05
1.70869734485e-05
-1.11354301235e-05
2.60879850783e-05
-1.0682760671e-05
3.35127611113e-05
-1.06676984735e-05
3.9767509636e-05
-1.00785999406e-05
4.42912575803e-05
-8.05407066486e-06
4.05809939847e-05
2.49078923593e-06
-1.84815453148e-06
-8.48932251303e-08
-1.45337861943e-06
-1.70933614197e-07
-2.20896676072e-06
-2.96690409915e-07
-3.03274656516e-06
-4.63979793009e-07
-3.89661558154e-06
-6.80694096565e-07
-4.76648082027e-06
-9.62461792029e-07
-5.5985653877e-06
-1.34488902085e-06
-6.40101115298e-06
-1.92052077967e-06
-7.16189008445e-06
-2.7665653362e-06
-8.07247352756e-06
-4.22601593602e-06
-9.02219389719e-06
-7.33862862541e-06
-9.21707373724e-06
-1.26719172045e-05
-4.34129733045e-06
-1.50896937109e-05
5.82318347281e-06
-1.56382661572e-05
-1.49940418589e-05
-1.41731967107e-05
-1.34632646459e-05
-1.18123400213e-05
-8.16681568655e-06
-9.85782571569e-07
-8.4981247359e-08
-1.63735505481e-07
-2.78633815528e-07
-4.37533981072e-07
-6.51524682646e-07
-9.38355361786e-07
-1.36158955633e-06
-2.01994213371e-06
-3.12300777554e-06
-5.16077149945e-06
-9.65063372588e-06
-1.56157761449e-05
-3.7513170526e-06
1.8873407525e-06
-4.89087995783e-06
7.37463180755e-07
2.95323044668e-06
-5.24153494673e-06
2.42049175446e-06
3.69525626876e-06
-3.93022902655e-06
2.39887213781e-06
4.23742204941e-06
-2.65405104505e-06
2.27146113012e-06
4.55567153071e-06
-1.5354489442e-06
1.94537056966e-06
4.69508303522e-06
-7.40610225503e-07
1.60835414555e-06
4.58688754951e-06
-3.05300683492e-07
1.29391474466e-06
4.29707842318e-06
-1.68326491312e-07
1.00094263884e-06
3.86718650148e-06
-2.74213751812e-07
7.55577668314e-07
3.32491998948e-06
-5.54240695684e-07
5.14204866179e-07
2.71980384818e-06
-1.01759462998e-06
3.15177220456e-07
2.06852489721e-06
-1.59884629622e-06
1.01057712814e-07
1.44545314141e-06
-2.29355483452e-06
-1.56418967574e-07
7.06779993057e-07
-3.15085144851e-06
-3.43912448109e-07
-1.01094746977e-07
-4.07796177725e-06
-5.63771508335e-07
-1.02871059977e-06
-5.06899058587e-06
-6.14751224157e-07
-2.05767992382e-06
-6.02769012003e-06
-6.40746305429e-07
-3.21655619038e-06
-7.07620526215e-06
-6.41914750136e-07
-4.44711168454e-06
-8.2106116481e-06
-6.19444837589e-07
-5.76311852368e-06
-9.4482963574e-06
-6.05173455343e-07
-7.1825795123e-06
-1.07991205778e-05
-6.69716363695e-07
-8.72176313977e-06
-1.2338909592e-05
-8.6081296634e-07
-1.04679245299e-05
-1.41967139542e-05
-1.03760209321e-06
-1.24749354008e-05
-1.63686981819e-05
-1.1906333134e-06
-1.47085394914e-05
-1.88496887381e-05
-1.24606018679e-06
-1.7078575611e-05
-2.15712661642e-05
-1.12756418477e-06
-1.94304258325e-05
-2.44107838574e-05
-8.34885775355e-07
)
;

boundaryField
{
    inletfuel
    {
        type            calculated;
        value           nonuniform List<scalar> 3(-8.05838253038e-08 -2.41730627157e-07 -4.02949935684e-07);
    }
    inletair
    {
        type            calculated;
        value           nonuniform List<scalar> 
20
(
-8.56170937786e-07
-1.36762296782e-06
-2.00467983648e-06
-2.7932492297e-06
-3.76425940343e-06
-4.95459275712e-06
-6.40822864421e-06
-8.17756372304e-06
-1.03250121462e-05
-1.29248692344e-05
-1.60655573522e-05
-1.98522580884e-05
-2.44101619589e-05
-2.98881950211e-05
-3.64633279002e-05
-4.43457322998e-05
-5.37849629933e-05
-6.50778335692e-05
-7.85767978529e-05
-9.47014044904e-05
)
;
    }
    outlet
    {
        type            calculated;