/*--------------------------------*- C++ -*----------------------------------*\
  =========                 |
  \\      /  F ield         | OpenFOAM: The Open Source CFD Toolbox
   \\    /   O peration     | Website:  https://openfoam.org
    \\  /    A nd           | Version:  7
     \\/     M anipulation  |
\*---------------------------------------------------------------------------*/
FoamFile
{
    version     2.0;
    format      ascii;
    class       volScalarField;
    location    "0.02";
    object      Qdot;
}
// * * * * * * * * * * * * * * * * * * * * * * * * * * * * * * * * * * * * * //

dimensions      [1 -1 -3 0 0 0 0];

internalField   nonuniform List<scalar> 
814
(
5.42386995474
6.65897203158
6.70727366062
568.632394268
868.208913443
3501.16863644
28999.5935768
65149.9555839
588188.228723
958604.670592
4265653.03964
121030899.816
6490859.87444
27797125.1238
339826132.03
8422487.36933
25798006.5264
137582778.521
8251876.6065
18675441.6057
51469889.868
6746597.80868
11410294.1213
18937913.8331
4751838.94873
6278291.21542
7355288.56294
2985557.84363
3297843.717
3310545.45461
1738933.82925
1733308.73666
1741643.34977
975201.53719
939672.831395
1017887.31796
542895.73834
532481.365388
628030.02325
307149.354554
314680.5548
396457.547335
178758.930439
192166.24355
252425.174961
107530.480041
120259.849016
162152.974823
67064.3944396
77378.3613323
106788.186967
43904.8006039
52119.1568106
74258.8365996
31077.6072542
38086.7637112
56633.3117702
24767.3965962
31248.5583558
48095.6812976
22377.6253939
28451.5350576
43799.1955594
23187.0814624
28800.8047034
42292.4925609
52204.8948761
60469.1755249
79085.6033201
558359.958168
607473.176375
711359.754936
11768889.2189
12995705.7553
15551585.1716
273159567.648
279828753.689
293224204.644
88390084.2579
83513862.2834
73726511.2071
727722.492731
699402.056965
641504.189076
15206.7690531
15241.4411644
15379.0430735
6164.60893326
6422.73545075
6998.87702592
4964.59162272
5140.77861697
5535.63031535
4226.16428505
4335.64486712
4582.79479075
111346932.436
1379525746.98
289485706.214
67086448.9549
18959516.6668
7342995.36062
4322442.3044
2739760.14431
1727694.86835
1075517.89242
662820.244485
407598.140838
254410.613203
166010.749013
117081.139701
91828.8784439
79235.7586243
70751.6640065
64338.4559449
107217.241235
862687.927257
19290817.6975
311423314.147
61801085.5061
568150.010604
15654.5947514
7819.88664112
6093.59871564
4935.77990954
44434.969295
8897.44583864
5536.89143271
2952.7720315
827.814099534
212.736864536
49.9761567377
10.833740642
2.14068622468
0.3875701931
0.0643063482842
0.00955060950476
0.00120495274021
0.000121594593056
9.33750185385e-06
5.2498677485e-07
2.11730551962e-08
5.89155425537e-10
1.13770510748e-11
2.32909699205e-13
1024591.88769
277847.182638
99008.2209075
42899.9667269
12744.4818348
2770.23727857
606.826245739
126.491567061
25.1372169153
4.70540102656
0.840049235286
0.136852603553
0.0188951882198
0.00205259806372
0.000165904761968
9.71224838358e-06
3.98689466075e-07
1.1317600476e-08
2.22126901049e-10
4.26061638267e-12
7409391.47727
1408881.18805
571355.62219
170689.332158
35063.6887776
7746.08506734
1816.81559196
416.880032425
94.2874559889
20.5016619139
4.36815040813
0.836458024144
0.131428218494
0.0156700416429
0.00134985427333
8.29315136174e-05
3.49916298084e-06
1.02589052852e-07
2.08185319664e-09
5.07833245765e-11
310222503.054
81051132.2157
3942568.71139
411204.022816
79609.4621253
20240.1011915
5684.76379965
1523.06376502
403.450222528
101.596287214
24.9244739186
5.33287697338
0.911510573633
0.115691948837
0.0104539662988
0.000668088322389
2.90060122661e-05
8.81925280957e-07
1.88430691171e-08
9.63934977612e-10
280073693.444
1333251405.51
149388607.731
9969246.37791
583966.343083
71237.4215299
17321.3872045
5330.90067495
1636.86275079
480.25433815
135.576673238
32.3492369126
6.03607396673
0.821853357857
0.0787708836975
0.00529311837896
0.000239430939503
7.63101870946e-06
1.80910768724e-07
1.50094902112e-08
79608427.001
710662623.384
132687225.744
9853233.34087
890516.783919
162176.834563
48889.8458849
16460.8495886
5599.55151668
1941.50969492
636.342279272
172.452895313
35.7316544241
5.29329203852
0.544951293244
0.0388879873382
0.00185372211334
6.24346220721e-05
1.70218017004e-06
1.5723794683e-07
29815807.1327
230444773.202
89926017.5864
6385764.46728
1251966.17396
412196.884906
143884.000266
51011.9689648
18596.2727403
6690.15483673
2499.50729304
765.032129869
177.055811314
28.8821940976
3.22383660814
0.245888304445
0.0124393805975
0.000445592301691
1.34967990643e-05
1.10431842237e-06
15714503.1701
131907743.75
103729384.401
6691448.99921
2438305.92705
1199322.07219
459827.09786
163973.068309
57416.9599966
21590.0104217
8116.04218828
2761.12092482
709.57226412
126.717751429
15.3069924482
1.24664713394
0.0670349095956
0.00256205415219
8.27694640812e-05
5.344490316e-06
11654752.1912
92919433.7847
111456143.115
10693741.9989
5682988.63355
3321110.62385
1356991.45924
473548.796304
161110.302357
59639.6180685
22928.7120704
8181.52098441
2206.72665089
436.533410384
56.7731269006
4.91725027748
0.280389332868
0.0113799434559
0.00037977742759
1.92148244212e-05
11271149.6099
79826793.0573
156873864.726
24021721.515
13682791.0728
8005109.96452
3349058.50539
1136378.26172
378771.888801
140329.169584
53690.841235
19461.2510193
5718.56379006
1185.60543511
164.500658853
15.0989750977
0.910050697921
0.0388047090429
0.00130983610849
5.37853605003e-05
7022145.07595
35463164.3487
134583512.673
64183571.4913
33193160.3342
17492683.7738
7048820.51788
2288431.75067
731248.234115
272129.982085
105016.940415
38390.0290241
11704.6056266
2569.40833062
378.828044707
36.8058743995
2.34243697231
0.104187353072
0.00352447367528
0.000123881129811
4103205.32826
17011515.1771
53916767.9067
83355845.9259
76249386.7222
35443280.9041
13344703.4551
4065592.57379
1198737.21938
438555.351555
172623.23069
63362.8672704
19811.043009
4573.16690902
715.02473115
73.6856292545
4.96281592914
0.230278740174
0.0078289443718
0.000247986598096
2365042.94705
8522439.49334
24341793.052
37365339.8368
50210169.4709
65607474.8636
22815660.593
6607531.28559
1780899.89271
613356.998344
244693.435974
89999.3408875
28656.2805351
6922.78196048
1148.19197521
126.042142307
9.03506857971
0.440502405404
0.0152386224889
0.00045460324357
1363079.27784
4414545.63754
11657794.3636
18288956.451
26480160.2433
48577989.0275
35773695.2068
10132884.8307
2559386.40631
798074.065654
313588.352803
114700.08523
36847.5201846
9262.94691857
1630.17059347
191.464529969
14.7252315155
0.762724401024
0.0273002450147
0.00079325832017
795972.666497
2404326.43021
6066367.12876
10046209.3548
16047504.9051
30960587.6001
52561006.2646
15379033.8288
3812144.02388
1061425.14718
390420.209305
139064.756716
44221.7498922
11432.1707867
2127.59944809
267.956363636
22.3044447792
1.24114769758
0.0465836689947
0.00134613857351
483428.950909
1422735.88315
3593073.49318
6464603.40431
11218851.6902
21863578.9679
51134670.6193
24152596.9088
6243271.91724
1600201.83629
519394.214171
173941.694321
53081.1351912
13782.0481808
2679.06350147
360.835802072
32.5831846874
1.95582782043
0.0773160919242
0.00223954373905
315704.098955
924332.89159
2420469.71431
4740334.08498
8718031.56399
16869185.5758
36291660.8127
40639131.3498
11704905.1412
2976259.19879
832433.981403
249004.727681
70060.2889277
17591.6382795
3482.60166892
493.578585821
47.8708592315
3.0669503408
0.126751639201
0.00364774517323
228872.319767
688834.177832
1844651.9347
3746765.52284
6956958.18656
13053049.0799
26142636.4245
59588724.7244
24670794.5222
6883736.74266
1821096.63839
468040.451027
114622.135181
26452.7634693
5119.57723202
737.653390456
74.5022631124
4.94679663028
0.209030336568
0.00582779278224
185734.979554
562443.058939
1462505.76686
2940344.31277
5351259.16113
9626591.98548
18091853.8391
37897517.2786
58064975.6175
18357119.7836
5329907.34212
1298912.81564
265310.929495
52015.0235301
9297.23218077
1295.04904054
129.309944491
8.51940326139
0.354558503808
0.00919949821056
161381.069751
467532.724194
1126859.78375
2166690.1812
3799252.58526
6539170.17555
11618866.1657
22614719.8456
51020297.5211
51636084.3639
17014533.0678
4559535.85391
897421.777277
142541.860015
22067.843829
2834.87692774
265.703480073
16.4940691552
0.643109433047
0.0150612277239
138963.865777
365367.771089
793309.584241
1432769.457
2401233.23752
3970819.26523
6786937.44222
12718002.8752
27453981.5055
70100623.9142
51548035.4394
15220151.053
3353426.29089
474665.812068
60850.2779437
7160.19293642
628.487670246
36.172921555
1.28219870681
0.0265386725754
116528.095248
263898.437858
517519.324864
880138.374066
1435638.67508
2352818.39828
3958697.1734
7087350.66743
14295201.2761
33806793.3449
92703354.3176
40683701.1011
10050412.7145
1518754.93553
161429.942169
17332.0720038
1482.70049813
81.7789697929
2.67245041938
0.0499884256383
170005.892984
322919.942787
580181.946412
1060648.112
2199679.25799
4431117.36139
7538709.11461
10631487.2859
12881012.301
19810743.9889
49703897.6438
83056245.053
21444529.2679
3570744.36935
346243.925205
33360.1268303
2858.31519899
158.479086008
5.00140903253
0.0891658959794
1202827.18372
2038654.98464
4496696.82374
10504653.9214
21809797.7961
36265507.0276
47973877.1518
52844295.4837
43027884.8907
31493371.2391
38912968.6143
90785335.4127
26191397.8146
4812880.2644
499131.264537
46989.4236616
4202.62832434
241.445406565
7.5658035587
0.131908201652
28197179.3132
46527753.3551
74281059.4242
115339645.684
172646897.233
208460221.297
199035161.273
160396929.375
111751387.208
70476911.0496
52233613.8793
54173456.532
18588669.5018
3851044.19396
459565.293428
47868.9356959
4553.75335683
271.808389833
8.58585852224
0.148137233807
348481559.426
389618914.678
350916009.226
287174329
175901373.893
70150355.2305
31065327.3262
21431047.8418
25036741.8454
34850795.7544
40133038.2502
28573435.1711
10968761.8783
2314927.89603
307732.497978
37261.4081904
3798.14396997
232.967138442
7.46289894536
0.132224469132
39178199.6346
20833669.4888
10447591.0391
5147173.54938
2774634.18695
2038052.32308
2584995.55802
4939490.16237
9758993.4327
16398986.1591
20431462.4391
15674751.7383
5833820.85934
1273299.25805
196137.784746
26515.3795687
2780.83465732
167.180625353
5.45367173634
0.0974231942471
420559.316593
271467.786101
177992.059416
143484.853034
187160.842903
389533.107191
983042.683632
2456346.20467
5298907.52664
9158072.95364
11438152.014
8958783.66679
3152304.87756
711262.027574
120466.455402
17387.5305804
1806.27219115
105.554669122
3.59787757523
0.0616687517848
16519.9408728
20979.2511324
31647.0230073
56222.9558242
117804.162871
278241.403867
673581.55819
1537763.12757
3103516.54611
5214252.79235
6518334.51335
5099631.42201
1709652.99535
398522.331892
70983.9958929
10560.267186
1066.33793515
60.4775285014
2.11853616719
0.0345343640478
9672.52160318
14095.7969467
21942.977787
37293.9577472
72523.5987149
160440.213834
373819.743511
838003.842946
1683124.27227
2859251.34924
3650924.75046
2773537.7916
894110.87938
209196.423349
38584.2310754
5806.57081669
563.430451448
31.1581245606
1.10789480614
0.0174232469343
7334.65131878
10249.0857979
15183.4607203
23864.2443925
41512.2699661
82911.4040475
183231.034902
407371.186237
833735.498274
1465301.6169
1945312.72906
1396038.10831
430935.959369
99828.3083921
19117.3426726
2858.14622346
265.774957644
14.4719762527
0.513545542824
0.00805834028394
5726.5876864
7634.05463542
10813.0073388
15923.969996
24832.6357578
43293.9549466
86461.442823
185132.490123
382598.086997
694808.43735
955431.768204
631046.296236
185009.850164
8.70126945414e-10
1.1520021012e-09
1.81070338619e-08
6.77779350077e-09
1.45223581821e-07
4.23280853336e-08
7.47872345724e-07
1.89394899783e-07
2.62882925808e-06
5.93896586663e-07
7.04640746873e-06
1.45755511383e-06
1.52222650053e-05
2.91577716793e-06
2.8379728658e-05
5.1258665262e-06
4.79144937506e-05
8.24589764897e-06
7.64325998572e-05
1.25485224987e-05
0.000118474044488
1.84206207337e-05
0.000180962137395
2.60593607653e-05
0.00027391027846
3.4638242882e-05
0.000413536514325
4.09306486614e-05
0.000642074786401
3.26534025383e-05
0.000904849828201
0.00013536577209
0.00121751090915
0.000152999872164
0.00175274548377
0.000190645509323
0.00289966609545
0.000283982224087
0.00491667426716
0.000455256081673
0.00722280742069
0.00065236622243
0.00828225919084
0.000745157603573
0.00740840968694
0.000668205252157
0.00542464324566
0.000491449214657
0.00341441208904
0.00031213199233
0.00192632846267
0.00017934558631
0.00100559985021
9.71450807958e-05
0.000501255164867
5.17605116076e-05
)
;

boundaryField
{
    inletfuel
    {
        type            zeroGradient;
    }
    inletair
    {
        type            zeroGradient;
    }
    outlet
    {
        type            zeroGradient;
    }
    axis
    {
        type            empty;
    }
    leftside
    {
        type            zeroGradient;
    }
    burnerwall
    {
        type            zeroGradient;
    }
    front
    {
        type            wedge;
    }
    back
    {
        type            wedge;
    }
    procBoundary0to1
    {
        type            processor;
        value           nonuniform List<scalar> 
27
(
3889.71962625
3951.7572257
4095.73109639
4302.70427201
43395.2306719
8621.09956938
1257.9852963
112.349320251
6.08566185074
0.211712823129
0.00345559222896
4774.82842321
5988.93077185
8084.83916738
11345.9955253
16316.2958572
24883.084053
42799.9060537
83085.8916175
166200.321564
303394.150522
419872.504378
250730.262678
43395.2306719
71990.9796499
0.000251575245168
2.99202116405e-05
)
;
    }
}


// ************************************************************************* //
