/*--------------------------------*- C++ -*----------------------------------*\
  =========                 |
  \\      /  F ield         | OpenFOAM: The Open Source CFD Toolbox
   \\    /   O peration     | Website:  https://openfoam.org
    \\  /    A nd           | Version:  7
     \\/     M anipulation  |
\*---------------------------------------------------------------------------*/
FoamFile
{
    version     2.0;
    format      ascii;
    class       volScalarField;
    location    "0.02";
    object      T;
}
// * * * * * * * * * * * * * * * * * * * * * * * * * * * * * * * * * * * * * //

dimensions      [0 0 0 1 0 0 0];

internalField   nonuniform List<scalar> 
814
(
294.091578304
294.093849741
294.105115203
294.074857867
294.078882998
294.091374038
294.039264409
294.050445552
294.083293174
294.138555882
294.519146173
299.864162121
294.863322514
297.008093062
318.184647814
296.338951554
301.091264826
334.285885273
298.850957496
307.119289122
350.963841916
302.818512765
315.511253083
369.014634886
308.825984552
326.539618688
388.227950986
317.422499816
340.065843602
407.684759632
328.903984398
355.61245974
426.482327391
343.32366661
372.73895514
444.470690788
360.565253132
391.179719215
461.711805313
380.398791836
410.833542341
478.377051507
402.494115452
431.702669434
494.941026542
426.332464836
453.644007021
511.850376422
451.312576988
476.40107871
529.442591699
477.258375535
500.175391533
548.56320171
504.888725411
525.998898455
570.676681325
536.017018355
555.821683577
597.801501336
572.7208671
591.494799392
631.198438905
615.869255944
633.273881008
669.780339177
665.513194172
680.634984301
711.899288496
725.926420936
737.583199417
761.34766535
839.719801782
849.532477008
869.796465722
1309.70121071
1322.63270393
1349.12712485
1180.43848427
1175.52687593
1165.76063533
1032.4543327
1033.8092922
1036.901899
997.651208484
998.919800075
1001.88066499
964.979015837
965.819100809
967.864076796
932.108925696
932.310742949
932.994608471
899.673872241
899.338774642
898.870721532
360.4349686
499.921866991
497.314386834
496.848354158
504.511348637
518.242159612
534.341880903
548.903350743
561.061433413
570.813485589
578.582819098
585.540778133
592.999699983
602.21463358
614.483819936
631.452142329
654.813742037
684.734063804
718.275115116
752.612593833
791.874276497
896.805962748
1383.83268203
1154.83548027
1041.40559426
1006.18340517
970.922672652
934.210825111
898.538295766
290.093520341
290.00868538
289.952465641
289.90915747
289.88039864
289.862026993
289.848587066
289.836873974
289.825626879
289.814399798
289.803040474
289.791663638
289.780781279
289.770881089
289.76203576
289.75408407
289.746957045
289.740715384
289.732750663
289.697792598
295.619501148
292.272398575
290.327041996
289.536607619
289.19042406
289.035031289
288.972954097
288.944064341
288.928733992
288.917942211
288.908361388
288.898912418
288.889450689
288.880287411
288.871747871
288.863869468
288.855852378
288.849249189
288.831408881
288.740815323
333.641712749
301.508420898
295.377357251
291.679117786
290.114871335
289.418473036
289.155255765
289.035799449
288.994475514
288.97448185
288.967291473
288.960222122
288.954500611
288.947976583
288.940972923
288.935492887
288.925881103
288.921366607
288.887851556
288.791597342
536.991037405
371.301812344
321.515591633
302.375112668
295.390956901
291.908762502
290.420727017
289.736064141
289.489705819
289.395610539
289.372122182
289.361896954
289.359023444
289.354910523
289.349507035
289.346646409
289.334996169
289.332859084
289.279517414
290.199507685
1400.24193319
1759.50247013
726.745057445
410.300250179
327.438631567
303.53598899
295.256128211
291.994106566
290.656496901
290.149071159
289.998854501
289.951926028
289.942502786
289.936964063
289.931084432
289.929357038
289.914246902
289.913724926
289.833440368
291.39506372
1298.42651501
2298.85734107
977.218889071
510.551695582
374.36052725
329.294122719
309.011095204
298.559209992
293.633167502
291.698127074
291.011951918
290.793428516
290.743687576
290.728901878
290.720830381
290.720386593
290.699955584
290.701975256
290.576845021
292.809782499
1259.38591253
2523.04707598
1096.49224882
614.127847529
447.428829381
381.315530903
338.758750508
314.190319096
301.475440645
295.295728275
293.025608727
292.19923403
291.987261669
291.938259539
291.926355084
291.930055845
291.904722474
291.912765733
291.718263228
294.334762756
1183.71727875
2525.99954853
1242.04187103
769.786500084
577.050713353
479.752075385
397.100715419
346.981290846
318.101884131
303.808159016
297.17623602
294.755645788
294.030100584
293.864287994
293.840067835
293.852009333
293.82824842
293.847596521
293.571236313
296.257496497
1134.74703486
2425.94709017
1534.05703929
1042.44507131
809.988036568
658.522576317
503.28106957
406.988714706
349.61440184
319.983931804
305.469888111
299.352918006
297.308052319
296.840968066
296.775122782
296.798470259
296.792056401
296.829075172
296.483591068
299.06326436
1100.39213139
2242.42604227
2057.61057824
1480.2795123
1199.08701535
963.354528796
682.810787532
505.867434513
401.798797899
347.441754782
319.485258071
306.894295334
302.385433567
301.201907996
301.024965386
301.059196084
301.09640717
301.157877336
300.784309955
303.205312064
1052.76888533
2057.63618958
2429.14674078
2032.14021248
1740.81323726
1413.3502045
954.157418653
653.349280496
479.081232438
388.1854846
340.512708373
318.217370516
309.655174943
307.225731923
306.812971481
306.847760862
306.962082782
307.053331878
306.708465908
308.978948278
997.132586914
1860.62028106
2334.75820224
2357.78193771
2243.77384118
1921.74051713
1306.55541609
847.720807303
581.638414455
442.210522832
368.658996636
333.564187439
319.398596497
315.072511326
314.228029278
314.230204665
314.451638511
314.573609206
314.308510308
316.504839686
940.935515846
1673.94992541
2165.18503497
2325.00897248
2387.32753634
2306.17697226
1687.80896963
1073.22770052
703.750871599
507.010871199
402.893321865
352.68598582
331.65986242
324.746338541
323.178821296
323.06642522
323.402306541
323.548810774
323.39275836
325.733292482
888.546274018
1509.19015911
1985.31418693
2205.08972396
2345.81343778
2419.3967129
2023.81951552
1309.10733826
836.272336654
578.644331359
441.766918157
375.212694944
346.398132675
336.138267936
333.403108011
333.001521547
333.410401177
333.56631033
333.530536192
336.475400439
843.630932467
1370.32068747
1820.88590796
2071.28908447
2254.55207799
2395.0444745
2264.93993687
1548.27419475
976.894222067
655.970162417
485.153071102
401.324717522
363.738801591
349.138420725
344.541238714
343.523701757
343.886832869
344.02619298
344.127533014
348.482797028
809.507366033
1254.09261972
1678.87836631
1947.2833783
2152.09267715
2325.3598521
2358.04519796
1796.33054896
1140.57536189
746.184220334
536.358671834
432.525555527
384.285306436
363.78624823
356.25210345
354.077599951
354.17304126
354.256242171
354.54925501
361.523026504
788.418607781
1158.74457036
1557.36159969
1834.79025627
2049.70215544
2234.88821297
2335.48583278
2059.89670189
1364.19384991
870.34090988
604.966960814
472.448580627
409.340080595
380.368247741
368.323635759
364.189593471
363.680863502
363.649865706
364.253741869
375.435169206
778.44904963
1095.1743946
1460.96232857
1734.03463372
1946.64811776
2131.49565873
2267.09650662
2254.25135521
1684.38609965
1068.73340487
710.639739057
528.750007114
441.469260422
399.611590289
380.763595605
373.568943515
372.007308674
371.780398099
372.888365686
390.141124811
779.551836778
1060.26456822
1386.08799726
1639.86374274
1837.93028891
2011.12516857
2160.30670762
2245.16962662
2063.33003181
1396.68167183
895.992572433
618.872464516
486.033906306
422.944818547
393.850086494
382.14138094
378.980071492
378.453415097
380.332945126
405.564892019
791.032235833
1042.75091503
1324.2569886
1546.05129602
1718.62055669
1870.09552548
2014.34940361
2148.02696817
2206.63562907
1856.3898987
1226.04754481
778.488201067
555.806303464
453.696252936
408.345626817
390.059695266
384.638999314
383.689051767
386.664109147
421.482506936
809.552567013
1030.18510703
1262.5147101
1444.19163437
1584.35612219
1708.48896802
1837.07572685
1982.78711346
2127.02679058
2163.74579374
1711.72594219
1061.39699057
673.232934137
497.72530658
425.400831735
397.589265614
389.15564659
387.654331982
392.057644718
437.488206049
827.863203033
1006.59211353
1187.51033716
1327.77733867
1436.85162264
1537.11823371
1651.5313343
1796.90058628
1970.0358147
2134.50567629
2149.56321455
1478.06932264
858.041811341
561.705225381
446.392851757
405.061435283
392.759786889
390.585969273
396.696742929
452.959594708
841.648059479
975.257762614
1104.00953403
1210.38611791
1302.29227796
1399.80416271
1522.36221313
1679.38344992
1863.94392622
2060.69836782
2210.81788023
1886.330839
1095.0499372
641.916298635
470.026029372
412.224226745
395.583901378
392.721160731
400.767834457
467.043664953
857.406427734
951.503722067
1048.41153309
1148.19300882
1262.4556514
1401.87819385
1571.26510352
1764.38907425
1955.78071145
2136.12716825
2278.51587006
2126.1441464
1292.56816409
709.383603876
489.647565907
417.92000612
397.637982002
394.270494302
404.48683442
479.445013773
958.313526346
1059.08046177
1185.04555165
1335.22144076
1509.57632471
1684.68758793
1841.56775749
1969.30170727
2103.44018796
2258.34788493
2376.55054365
2184.68596637
1338.53092789
726.986913917
495.717854846
420.267115819
398.727196788
395.411970763
408.113804891
490.491915022
1460.92505903
1567.51257979
1640.07893706
1626.02787016
1545.64083481
1487.96149638
1540.98663932
1704.21713136
1959.03724607
2243.45483636
2403.87060777
2129.57642944
1270.86358133
694.541090187
486.863018112
418.649466328
398.875408796
396.33624922
411.952363004
500.628576107
1136.01387285
1137.61277205
1162.15684377
1208.62303796
1278.91758115
1378.47342476
1519.71877913
1718.35118969
1974.95049872
2235.99303572
2342.48497309
1973.05689202
1120.36765954
646.121071086
474.678490298
415.603548986
398.581927372
397.258562179
416.127885326
510.107148932
1052.03582321
1076.34617276
1115.01116375
1171.00015866
1247.34141523
1349.36069352
1488.98474527
1681.96596179
1921.85026172
2143.6083098
2167.69539384
1745.817281
977.574971474
599.627031233
460.918862668
411.882025997
398.114420903
398.347259406
420.62787368
518.852318588
1016.08034696
1039.44613357
1075.61061754
1125.36045402
1189.14999289
1273.15791927
1387.71713284
1543.9821735
1736.27069763
1907.29630987
1892.31610411
1484.75322848
843.905138256
556.90273898
447.297387816
408.182868648
397.723486728
399.644843046
425.350507714
526.648736824
977.94348251
994.840810794
1020.70887785
1055.96909337
1101.34556885
1159.51085988
1237.3670691
1343.63434071
1475.98232988
1596.42321372
1569.78807843
1201.74691951
722.637233851
516.90061726
434.261348914
404.812463983
397.512010217
401.157980318
430.103299402
533.106282155
937.337625684
946.683809562
963.199597544
986.736373773
1016.08863666
1051.28381501
1094.73743853
1151.22487005
1220.31183068
1283.3410886
1247.66922557
941.01226983
622.287440588
482.148815372
422.98999118
402.06136752
397.541436589
402.865036783
434.628639631
537.971708525
898.470316005
901.58146043
909.736319877
922.980872814
939.554249015
957.071556906
974.751686932
993.882116071
1013.69907785
1025.56913121
974.534723265
744.634621174
547.084399769
408.577990971
457.032901842
365.860319654
417.959214239
348.772240258
395.591918624
343.067630422
390.743435565
344.55295413
394.240387012
350.948383575
402.92937164
361.48789545
415.944105872
375.583440201
432.515095704
392.816789161
452.15788691
412.763651356
474.51326439
435.020559859
499.439078981
459.277793992
527.214520483
485.480445932
558.801486214
513.924245414
595.568535462
544.980487706
639.44573322
582.946284709
685.434185443
626.88576001
730.713677672
672.262344299
770.865123005
712.733285664
801.261484374
744.004960807
819.599739584
765.355099081
826.557262879
777.938465383
824.684253857
783.369750329
816.642962488
782.722907716
804.322324149
776.569547456
788.868346041
765.305427069
770.964563644
749.286162229
750.957517755
727.898078137
728.603353648
)
;

boundaryField
{
    inletfuel
    {
        type            fixedValue;
        value           uniform 294;
    }
    inletair
    {
        type            fixedValue;
        value           uniform 294;
    }
    outlet
    {
        type            zeroGradient;
    }
    axis
    {
        type            empty;
    }
    leftside
    {
        type            fixedValue;
        value           uniform 294;
    }
    burnerwall
    {
        type            zeroGradient;
    }
    front
    {
        type            wedge;
    }
    back
    {
        type            wedge;
    }
    procBoundary0to1
    {
        type            processor;
        value           nonuniform List<scalar> 
27
(
869.671886681
868.832798147
867.290764552
865.506119957
454.673859587
414.198907285
400.076011993
397.832009513
404.735917756
438.834676056
541.883374017
862.454216172
859.868212923
860.812182489
865.424814774
871.487487104
875.69827588
875.641862012
870.519441253
859.118539602
836.764755838
773.633435119
615.517065419
454.673859587
495.220652946
699.272365889
703.546752301
)
;
    }
}


// ************************************************************************* //
