/*--------------------------------*- C++ -*----------------------------------*\
  =========                 |
  \\      /  F ield         | OpenFOAM: The Open Source CFD Toolbox
   \\    /   O peration     | Website:  https://openfoam.org
    \\  /    A nd           | Version:  7
     \\/     M anipulation  |
\*---------------------------------------------------------------------------*/
FoamFile
{
    version     2.0;
    format      ascii;
    class       volScalarField;
    location    "0.02";
    object      alphat;
}
// * * * * * * * * * * * * * * * * * * * * * * * * * * * * * * * * * * * * * //

dimensions      [1 -1 -1 0 0 0 0];

internalField   nonuniform List<scalar> 
815
(
0.000319208871849
0.000319705798392
0.000321137262164
0.000308286502251
0.000308639281907
0.000309753730163
0.000297944021615
0.00029825545883
0.00029927234204
0.000288132986731
0.000288456090856
0.000289438237515
0.000278580387419
0.000278948664415
0.000280028170557
0.000269286219862
0.000269707953822
0.00027091667947
0.000259974743559
0.00026051189396
0.000261962906037
0.000250948245833
0.000251566652561
0.00025321572925
0.000241921611423
0.000242702449415
0.000244601464534
0.000233488779095
0.000234332807461
0.000236390526815
0.00022588044639
0.000226775075045
0.000228921732547
0.000220050576578
0.000220911853597
0.000223006298948
0.000217180139323
0.000217955249914
0.000219851570898
0.000218857322472
0.000219498975545
0.000221098276817
0.000226584964908
0.000227082474311
0.000228340612501
0.000240664739538
0.000241022533686
0.000241966147608
0.000258982438648
0.000259240516744
0.00025992812598
0.000277401626966
0.000277569868914
0.000278036481924
0.000292173559034
0.000292260425692
0.000292530254823
0.00030215894559
0.000302178788581
0.00030228814705
0.000308246144701
0.000308226863523
0.000308225968207
0.000311878340429
0.000311815573687
0.000311747130588
0.00031413610193
0.000314066636836
0.000313958650206
0.000315766032831
0.000315674045405
0.000315539892006
0.000317016386926
0.000316927911259
0.000316779470495
0.000318021595621
0.00031793165429
0.000317778914244
0.000318763867771
0.000318668000203
0.000318507989711
0.000319090432088
0.000318989594516
0.000318822067236
0.000318149867946
0.000318058367562
0.000317884464347
0.000307057441608
0.000306917337234
0.000306719216753
0.000252814745246
0.000252667676084
0.000252446434974
0.000322802602101
0.00031106109634
0.000300388883703
0.000290520805466
0.000281196274941
0.000272271495056
0.000263623712588
0.000255212636798
0.000246966799874
0.00023903546628
0.000231746598581
0.000225831806356
0.000222501028857
0.00022342070952
0.000230256261441
0.000243466176131
0.0002610499354
0.000278813338393
0.000293006615192
0.000302533469559
0.000308320967867
0.000311749315639
0.00031391366827
0.000315464066175
0.000316687749596
0.000317679619145
0.000318403079313
0.000318709743248
0.000317766327371
0.00030656844113
0.000252259835639
0.000208176761823
0.000281729624256
0.000307924995042
0.000306081732307
0.000271032001031
0.000246570443878
0.000551646884745
0.000325926694236
0.00032898259093
0.000329100445259
0.000326303646889
0.000321437811648
0.000313279488942
0.000297496614082
0.000269969709519
0.000232112201841
0.000190253635091
0.000151280110052
0.000126229440676
0.000162930544373
0.0002403423811
0.000294342812878
0.000309238357088
0.000301958473678
0.000258492313038
0.000257461352942
0.000633050252385
0.000313323032585
0.000314666208346
0.000312203111228
0.00030585890317
0.000296936572624
0.000285488474849
0.000268524673968
0.000242547073564
0.000208272548729
0.000171807886415
0.000142446040274
0.000142970672321
0.000198148342056
0.000266239475675
0.00030242591575
0.000309222275812
0.00029639934233
0.000246701025006
0.000274671988403
0.000719497020085
0.00030215480553
0.000302302836161
0.000297884501198
0.00028878448038
0.000276631806719
0.000262473361062
0.000244688760913
0.000220740261762
0.000191365199901
0.000163082236625
0.000148478151839
0.000171896670794
0.00023227088612
0.000284904046348
0.000307239582729
0.000308185703749
0.00028956370506
0.000236746235445
0.000298710074469
0.000809325978222
0.000292079395055
0.000291622653079
0.000286040254216
0.000275189353839
0.000260970415407
0.000245164098489
0.00022739728859
0.000206249065992
0.000183019728577
0.000165134937175
0.000167565669392
0.000205922294172
0.000260783673552
0.000297467735214
0.000309814081654
0.000306291994447
0.000281680380353
0.000229351007731
0.000330471391803
0.000902645627036
0.000282848126548
0.000282407519203
0.000276537771986
0.000265042718524
0.000250045958584
0.000233895438703
0.00021729674422
0.000200013971601
0.000184225466142
0.00017814417311
0.000195734325476
0.000239041955697
0.000282280085525
0.000305364068975
0.000310839696827
0.000303679504484
0.000273074100663
0.000225004399523
0.000371177984578
0.00100029645195
0.000274284205277
0.000274454521153
0.000269166314427
0.000258166265064
0.000243724232232
0.000228642027933
0.000214502298327
0.000202208098699
0.00019483000106
0.000200379769537
0.000227574001988
0.000267080678318
0.000296962830739
0.00030984505908
0.000310811766883
0.000300537158138
0.000264141026451
0.000224021010036
0.000421990542095
0.00110255911614
0.000266239939198
0.000267516814651
0.000263571780758
0.000254130698515
0.000241539404844
0.000228910916142
0.00021848236378
0.00021205569919
0.000213180347955
0.000227963501033
0.000257566231457
0.000287918395372
0.000305952119157
0.000311984669374
0.000310125652179
0.000297088055812
0.000255263172878
0.000226588347873
0.000483564243987
0.00120799879212
0.000258544616768
0.000261278869381
0.000259283055989
0.000252298399334
0.000242680271191
0.00023368431141
0.000227924729217
0.000227665951644
0.00023609365968
0.000255810481441
0.000281626822858
0.000301452135403
0.00031075962448
0.00031264813719
0.000309088498079
0.000293530988573
0.000246727732832
0.000232816484325
0.000555768616559
0.00131373078221
0.000251087457036
0.000255435654336
0.000255769886661
0.000251871038169
0.000246037723562
0.000241465225939
0.000240809871892
0.000246199283113
0.00025947484673
0.000279359747539
0.000298091557873
0.000309017050767
0.000312831875142
0.000312460218253
0.000307909105007
0.000289973150761
0.000238697926456
0.000242862437549
0.000637824436679
0.001416434643
0.00024384554374
0.000249769486539
0.000252561447689
0.000252066256325
0.000250432028543
0.000250576569798
0.000254817144543
0.000264536716088
0.000279628619755
0.000296138639919
0.000307573304758
0.000312454456848
0.000313282112739
0.000311826049106
0.000306704289965
0.00028643097311
0.000231214885508
0.000257217117143
0.000728121423854
0.00151324382266
0.000237044279254
0.00024430380788
0.000249446386623
0.000252371957327
0.000254965862924
0.000259638425164
0.000267991508157
0.000280212349106
0.000294401805784
0.000306094414609
0.000311923484609
0.000313408942674
0.00031286217972
0.000311002762358
0.000305532765977
0.0002827971951
0.00022427605915
0.000276249756639
0.000824747631898
0.0016022285864
0.00023130721763
0.000239520293606
0.000246731577535
0.000252861166817
0.000259390006332
0.000267981585516
0.000279211227044
0.000291998586268
0.000303567477064
0.000310769049152
0.000313142813224
0.000313073563722
0.000312060425017
0.000310161964667
0.000304400118792
0.000278874969277
0.000217981289284
0.000300231660783
0.000925774138081
0.00168259764297
0.000227811253172
0.000236535366717
0.000245428709316
0.000254354578746
0.000264211746001
0.000275693003134
0.000288223435329
0.000299881447386
0.00030823632727
0.00031215904016
0.000312803879694
0.000312227740271
0.000311198436591
0.000309424229727
0.000303285729544
0.000274458116162
0.000212517126421
0.000329372324589
0.00102932563632
0.0017542349529
0.000228269673642
0.000237063339077
0.000247145762918
0.000258193585723
0.000270336455322
0.000283173791913
0.000295243135696
0.000304600844015
0.000310019624341
0.000311960995083
0.000311938942403
0.000311347044296
0.000310484215291
0.000308864347724
0.0003021355249
0.000269328325587
0.000208159206541
0.000363868769239
0.00113392278694
0.00181823211289
0.000234443177883
0.000242855046326
0.000253407453329
0.0002654411665
0.000278231634659
0.000290493588655
0.000300528276979
0.000307155990019
0.000310370790927
0.000311298873837
0.000311130588626
0.000310697786837
0.000310036698436
0.000308513546304
0.000300851702459
0.000263282267184
0.000205269113927
0.000403895354725
0.00123862098251
0.00187592902758
0.000246888971923
0.000254397054717
0.000264355309214
0.000275736720451
0.000287183455578
0.000297118644867
0.00030430590587
0.000308495395995
0.000310295600346
0.000310775967524
0.000310648796699
0.000310393805303
0.000309894368725
0.000308350600258
0.000299289204145
0.00025617948701
0.000204290377723
0.00044986314033
0.00134350663205
0.00192893237488
0.000263670711826
0.000269714666033
0.000277883758173
0.000286992686123
0.000295586968768
0.00030241542995
0.000306907796093
0.000309335525425
0.000310325616053
0.000310621518773
0.000310562417677
0.000310441377738
0.000310033585276
0.000308310681332
0.000297270363777
0.000248016478081
0.000205705393051
0.00050225404648
0.00144935819969
0.00197904608889
0.000280633768391
0.000284875798684
0.000290563900423
0.00029668828825
0.000302150260816
0.000306221909682
0.00030875012594
0.000310088338238
0.000310638185247
0.000310847187989
0.000310829750362
0.00031078684875
0.000310396103244
0.000308303509462
0.000294601470421
0.000238945895267
0.000210069900947
0.000562015473461
0.00155777644735
0.00202812828392
0.000294117098405
0.000296688458221
0.000300078084734
0.000303618264692
0.000306657127745
0.000308848587613
0.000310179407433
0.000310904338088
0.000311212227037
0.00031136630849
0.000311361820967
0.000311351294611
0.000310907210224
0.000308221522969
0.000291091086346
0.000229291121726
0.000217973202534
0.000630257195941
0.00167043832164
0.00207783271175
0.000303109981118
0.00030446956494
0.000306250312258
0.000308079709771
0.000309621189202
0.000310726806243
0.000311398475639
0.00031178864425
0.000311955775423
0.000312067566932
0.000312058246483
0.000312048183942
0.000311485118313
0.000307945080585
0.000286552766446
0.000219479176429
0.000230206262585
0.000708786794988
0.00178931240997
0.00212977420296
0.000308557258531
0.000309183971332
0.00031002952634
0.000310902895115
0.000311637276278
0.000312172578336
0.000312498571998
0.00031270634781
0.000312788487687
0.000312867308115
0.000312844518266
0.000312811639727
0.000312059655051
0.000307343341929
0.0002807824646
0.000209999955374
0.00024789007763
0.000799990598211
0.00191591817444
0.00218503536862
0.000311792843288
0.000312026782393
0.000312389223312
0.000312781278206
0.000313115815448
0.000313369194074
0.000313521257414
0.000313633337221
0.00031366733049
0.00031372444618
0.000313686910611
0.000313612684484
0.000312584316595
0.000306266413536
0.000273526165858
0.000201431799748
0.000272769195091
0.000907053968842
0.00205142746184
0.00224396725611
0.000313855815574
0.000313894383093
0.000314022919827
0.000314185723027
0.000314329788265
0.000314446924763
0.000314512131186
0.000314574096861
0.000314581227406
0.000314624400866
0.000314571876786
0.000314435329457
0.000313007013992
0.000304497172133
0.000264452330982
0.000194586784882
0.000307639984554
0.00103381498352
0.00219541100642
0.00230484945247
0.000315351541147
0.000315296436072
0.000315315602908
0.000315372653753
0.000315428128737
0.000315480279104
0.00031550276655
0.000315538231072
0.000315530507751
0.000315563188416
0.000315492762951
0.000315263157456
0.000313257331323
0.000301758880659
0.00025337672324
0.000190737613053
0.000355774538426
0.00118261538379
0.00234403786096
0.0023627336635
0.000316544626945
0.000316443848024
0.000316414585752
0.000316424937736
0.000316442718416
0.000316466759012
0.00031647240666
0.000316497616346
0.000316486604553
0.00031651567252
0.000316428357213
0.000316072129753
0.000313270945862
0.000297859918518
0.000240695629969
0.000191485686974
0.000419575545207
0.00135011810942
0.0024869508415
0.00240806938065
0.00031752356519
0.000317401532321
0.000317351499025
0.000317342973111
0.000317346573785
0.000317360779831
0.000317363032822
0.000317387251515
0.000317381258562
0.000317411801211
0.000317311625261
0.000316807997079
0.000313084058418
0.00029333887363
0.000228602259668
0.000196684381031
0.000491469982897
0.00151614100219
0.00260388078723
0.00242653833024
0.000318238653441
0.000318106902163
0.000318047410596
0.000318031955867
0.00031803206649
0.000318043896319
0.000318049740686
0.00031807726298
0.000318080730853
0.000318118516776
0.000318012816985
0.000317405150311
0.000312968890968
0.000289943911265
0.000220342903574
0.000201476434214
0.000544509774112
0.00163392890582
0.00266360058034
0.00239048128538
0.000318536638727
0.000318396446665
0.000318331833613
0.000318312977229
0.00031831264498
0.000318323976328
0.000318332841702
0.000318363174052
0.000318372386358
0.000318417071098
0.000318320576121
0.000317745924006
0.000313467054613
0.000290988226483
0.000220593419859
0.000197209404199
0.00054302665289
0.00164558474911
0.00262125717146
0.00224401278611
0.000317580146676
0.000317428179179
0.000317357370997
0.000317335833555
0.000317333404617
0.00031734425668
0.000317352655097
0.000317382122795
0.000317393338524
0.00031743797087
0.000317368994114
0.000316952687656
0.000313764306234
0.000296358562706
0.000232777481705
0.000183702063888
0.000460911529703
0.00149322374339
0.00241936089843
0.00192496678819
0.000306334676011
0.000306149413882
0.000306064888585
0.000306035905704
0.000306028940248
0.000306033294293
0.000306036414043
0.000306055564871
0.000306059311878
0.000306091336104
0.000306035114338
0.000305787792364
0.000303870305128
0.000293466577032
0.000248474084353
0.00017951236424
0.000338423897609
0.00117792272493
0.00201678162567
0.00143100143536
0.000251954855886
0.000251736257893
0.000251646592522
0.000251607388826
0.000251591884636
0.000251577378626
0.000251560709888
0.000251551771358
0.000251517774819
0.000251515426386
0.000251411549254
0.000251282351386
0.000250331806573
0.000246541703307
0.000229412042535
0.000188287209958
0.000250685390726
0.000822732219352
0.00142978266278
0.000839643181528
0.000231856934724
7.84565830328e-05
0.000281816331271
8.62763126968e-05
0.000324372897402
9.37189211689e-05
0.000359157787333
0.000100129196417
0.000388389091522
0.000105557933079
0.000415137989118
0.000110307370809
0.000441548649641
0.00011467080827
0.000468725224124
0.000118846385102
0.000496311432022
0.000122858740825
0.000523391273985
0.000126697376689
0.000549058215321
0.000130302982087
0.000572181925425
0.000133613501089
0.000592917665213
0.000136603330528
0.000611502635429
0.0001392758925
0.000627972070503
0.000141692957774
0.000642684091998
0.000143873364928
0.000656110641562
0.000145846899723
0.000668664923863
0.000147653558678
0.000681070459365
0.000149350822842
0.000693683724108
0.0001510030834
0.000706782462862
0.000152669258196
0.000720795902831
0.000154402479409
0.000735476736332
0.000156190969851
0.000750540837331
0.000157949708942
0.00076461137846
0.000159501748838
0.000775450557496
0.000160540342123
0.000779664985118
0.000160589458008
0.000768939629628
0.000158613043431
0.000721595590632
0.00015268860393
0.000613423811523
0.000141377117766
0.000447823941004
0.000125387228541
0.000278321219717
0.000105967923388
)
;

boundaryField
{
    inletfuel
    {
        type            calculated;
        value           nonuniform 0();
    }
    inletair
    {
        type            calculated;
        value           nonuniform 0();
    }
    outlet
    {
        type            calculated;
        value           nonuniform List<scalar> 
26
(
0.000252918488307
0.000252757056633
0.00025253414573
0.00025234371362
0.000252038426298
0.000251819623551
0.000251730071
0.000251690832957
0.000251675506035
0.000251661076731
0.00025164470426
0.000251636035777
0.000251602622444
0.000251600868635
0.000251498081596
0.000251369889332
0.000250420805014
0.000246631233451
0.000229497427836
0.00018835830272
0.000250784948305
0.000823062033067
0.000246188514256
0.000198692478699
0.000189682174899
0.00020217419825
)
;
    }
    axis
    {
        type            empty;
    }
    leftside
    {
        type            compressible::alphatWallFunction;
        Prt             0.85;
        value           nonuniform List<scalar> 
32
(
1.87137250214e-05
2.06970043265e-05
2.24814356602e-05
2.39474014754e-05
2.51627698123e-05
2.62335851696e-05
2.72472863998e-05
2.8261826897e-05
2.92828747179e-05
3.03088005157e-05
3.1323074195e-05
3.23072419087e-05
3.32537097525e-05
3.41634475363e-05
3.5058173859e-05
3.59428625742e-05
3.68262390661e-05
3.7720675249e-05
3.86457992819e-05
3.96248737074e-05
4.06820361953e-05
4.18425522106e-05
4.31131256085e-05
4.44807895286e-05
4.59056503022e-05
4.73025342699e-05
4.85046048665e-05
4.90789406966e-05
4.8162708906e-05
4.49938269221e-05
3.96262853e-05
3.22961858223e-05
)
;
    }
    burnerwall
    {
        type            compressible::alphatWallFunction;
        Prt             0.85;
        value           nonuniform 0();
    }
    front
    {
        type            wedge;
    }
    back
    {
        type            wedge;
    }
    procBoundary1to0
    {
        type            processor;
        value           nonuniform List<scalar> 
27
(
0.000329860453344
0.000330570115045
0.00033232737129
0.00033457290549
0.000174650700088
0.000263729651325
0.00030478696878
0.000308697375268
0.000282925850041
0.000241728797404
0.000476409371893
0.00033898463918
0.000344815039224
0.000348661710237
0.00035012688038
0.000349577988184
0.000344544329554
0.000329703030627
0.000301022487
0.000261488179812
0.000217658335922
0.000174001795878
0.000126825940224
0.000134295686936
0.000134295686936
0.000185674110207
7.13258850982e-05
)
;
    }
}


// ************************************************************************* //
