/*--------------------------------*- C++ -*----------------------------------*\
  =========                 |
  \\      /  F ield         | OpenFOAM: The Open Source CFD Toolbox
   \\    /   O peration     | Website:  https://openfoam.org
    \\  /    A nd           | Version:  7
     \\/     M anipulation  |
\*---------------------------------------------------------------------------*/
FoamFile
{
    version     2.0;
    format      ascii;
    class       volScalarField;
    location    "0.02";
    object      dQ;
}
// * * * * * * * * * * * * * * * * * * * * * * * * * * * * * * * * * * * * * //

dimensions      [1 2 -3 0 0 0 0];

internalField   nonuniform List<scalar> 
815
(
4.34781321383e-07
1.32514710067e-06
2.28904336203e-06
4.46098324831e-07
1.34810872755e-06
2.28722288576e-06
4.84852953387e-07
1.45634011654e-06
2.43820581615e-06
5.52291698861e-07
1.65241947502e-06
2.74202005183e-06
6.53312497391e-07
1.95029499773e-06
3.21985917338e-06
7.97081109317e-07
2.3764657601e-06
3.91254791323e-06
9.96027411475e-07
2.96816208177e-06
4.88088532921e-06
1.26806111365e-06
3.77708844869e-06
6.20556548589e-06
1.62878153052e-06
4.85129640453e-06
7.96599591204e-06
2.08940474353e-06
6.22051410924e-06
1.02052856104e-05
2.63107066437e-06
7.82967481958e-06
1.2831143116e-05
3.18284402173e-06
9.46493174692e-06
1.54874683682e-05
3.59648559518e-06
1.06860034319e-05
1.74519101957e-05
3.68160813659e-06
1.09279417451e-05
1.7808096193e-05
3.32785419482e-06
9.86636867128e-06
1.60391499743e-05
2.62730996592e-06
7.77907533639e-06
1.26143863777e-05
1.82297298612e-06
5.3913269386e-06
8.72215454418e-06
1.12939707292e-06
3.33697983645e-06
5.38833211601e-06
6.32316462806e-07
1.86702895216e-06
3.01056762495e-06
3.21228741517e-07
9.4800392926e-07
1.52706307528e-06
1.48151309814e-07
4.37020810551e-07
7.03354775565e-07
6.2098910372e-08
1.83108964305e-07
2.94494746988e-07
2.37566464601e-08
7.00293671063e-08
1.12562773607e-07
8.3427524179e-09
2.4584095918e-08
3.949725326e-08
2.70646798618e-09
7.97334807163e-09
1.28038750635e-08
8.17181032453e-10
2.40650364657e-09
3.86160799043e-09
2.30481354959e-10
6.78488283201e-10
1.08802862804e-09
6.08574733616e-11
1.79094331102e-10
2.87121439327e-10
1.50931962691e-11
4.44103563815e-11
7.11966478384e-11
3.62161937619e-12
1.06553134161e-11
1.70833599991e-11
9.8475763836e-13
2.89807255475e-12
4.64845859926e-12
2.88199825421e-06
2.8133543775e-06
2.94413420555e-06
3.26929287922e-06
3.80977903427e-06
4.61034770323e-06
5.74024958155e-06
7.28982941558e-06
9.3495187723e-06
1.19621086701e-05
1.50135503399e-05
1.80780757488e-05
2.03119001895e-05
2.06596465684e-05
1.85462135402e-05
1.45406061393e-05
1.00270110839e-05
6.18130624265e-06
3.44815380256e-06
1.74681664909e-06
8.03658637845e-07
3.36176483057e-07
1.28390785567e-07
4.50194673009e-08
1.45842466788e-08
4.39445238074e-09
1.237208404e-09
3.2638864729e-10
8.09381476997e-11
1.94229715095e-11
5.28609716062e-12
0.00363615331548
0.000881391637581
0.000156430270743
1.69458516827e-05
1.11072037533e-06
4.66583212503e-08
9.17861059725e-10
1.19009050008e-05
2.3844551092e-05
4.71854499514e-05
9.22719493202e-05
0.000178834494837
0.000359006767937
0.00079876316171
0.00197897798569
0.0049988382966
0.011424581803
0.0196554277527
0.0145060500865
0.0051220336599
0.00155276727451
0.000383990750554
6.57624095975e-05
6.88649879489e-06
4.53083586615e-07
1.8446876692e-08
3.93716386207e-10
1.11040865676e-05
2.07418596634e-05
3.86957908496e-05
7.2251824869e-05
0.000132431007905
0.000240615629487
0.000458787501077
0.000972430850079
0.00222557476078
0.00486138501724
0.00804028039806
0.00541805066568
0.00199695694335
0.000642814733571
0.000158873638268
2.61389169637e-05
2.66709043769e-06
1.77058571677e-07
6.95227129468e-09
1.66829462129e-10
1.11802531978e-05
1.94764132353e-05
3.39126565929e-05
5.99838685794e-05
0.000104946376624
0.000178428465365
0.000301552848536
0.000537251627459
0.00103987203917
0.00201552202906
0.0030342512975
0.00195570104947
0.000787355835137
0.000265563663477
6.47058037793e-05
1.02281801707e-05
1.02476015742e-06
6.8668736401e-08
2.60191817312e-09
7.1942625729e-11
1.20705493871e-05
1.98466210655e-05
3.22796170202e-05
5.36929723187e-05
8.94945896065e-05
0.000144959416702
0.000226393840386
0.000350325003967
0.000557779947268
0.000887770004523
0.00114617305586
0.000740712811842
0.000327747691922
0.000113309480051
2.69445578909e-05
4.09624896639e-06
4.04717937498e-07
2.71917691829e-08
9.97750298561e-10
3.17437255793e-11
1.38216752274e-05
2.18465001328e-05
3.36571142067e-05
5.28297608765e-05
8.37209449169e-05
0.00012991363928
0.000192656059608
0.000271772514437
0.000367229006005
0.000465816875051
0.000490576442485
0.000317869752728
0.000148893774015
5.11341130002e-05
1.17114234467e-05
1.70949900208e-06
1.66435588039e-07
1.10611494424e-08
3.95378954857e-10
1.42030239949e-11
1.65686509016e-05
2.56094553098e-05
3.81122927879e-05
5.72725898979e-05
8.67977860185e-05
0.000129353246693
0.000184045342865
0.00024376856091
0.000292638891475
0.000305347951708
0.000260521559193
0.000160777467135
7.43422305297e-05
2.43819976444e-05
5.2860935702e-06
7.37227249903e-07
7.03977590839e-08
4.55275851577e-09
1.59873165239e-10
6.34052260458e-12
2.05355162502e-05
3.13900308538e-05
4.58315168174e-05
6.69637629038e-05
9.80131019769e-05
0.000140607210106
0.000191717349981
0.000239472799303
0.000261077181852
0.000234484696809
0.000168044103339
9.36804273888e-05
3.99386025145e-05
1.20456755299e-05
2.42874055508e-06
3.21434221273e-07
2.9916434308e-08
1.85548661874e-09
6.46849960541e-11
2.78005235974e-12
2.60127164668e-05
3.95195747945e-05
5.70196435957e-05
8.16312528195e-05
0.000115943555694
0.00015983398803
0.0002070912185
0.0002417375576
0.000240311233244
0.000191872171212
0.000120400311816
5.93249848672e-05
2.23750538999e-05
6.03903772327e-06
1.11533597117e-06
1.38995500152e-07
1.25236557977e-08
7.37118715118e-10
2.57797470215e-11
1.18514714567e-12
3.32909899864e-05
5.02780566116e-05
7.16685583541e-05
0.000100402585181
0.000137883178388
0.000181271231586
0.000220621166909
0.000238156123606
0.000216170553009
0.000156738391528
8.85746881708e-05
3.8628946666e-05
1.27224063429e-05
3.03121622405e-06
5.07066375115e-07
5.90400875162e-08
5.1157163769e-09
2.83417642756e-10
1.00295059865e-11
4.88810716996e-13
4.24677891319e-05
6.35871222705e-05
8.91040351825e-05
0.000121265143137
0.000159521911218
0.000197837766888
0.000223779589994
0.000222036962726
0.000184777477087
0.000123338125673
6.37450016033e-05
2.48583987428e-05
7.19049912575e-06
1.51132977365e-06
2.27806540576e-07
2.46275468696e-08
2.0371683073e-09
1.05433782699e-10
3.80507461685e-12
1.9552125247e-13
5.30723719648e-05
7.84548382088e-05
0.000107308072171
0.000140512558041
0.00017514298073
0.000202825303745
0.00021175353712
0.000192963447196
0.000148063529208
9.16709472616e-05
4.36641749137e-05
1.54092152061e-05
3.97353276679e-06
7.43930638273e-07
1.01192874393e-07
1.01251504639e-08
7.94668581122e-10
3.81859635238e-11
1.41783206547e-12
7.65125736975e-14
6.35320859157e-05
9.23073573358e-05
0.000122352977152
0.000152783348788
0.000178861057136
0.000192188845271
0.000184889594607
0.000155284627729
0.000110453304312
6.36263302409e-05
2.80431015473e-05
9.05889403551e-06
2.1184772267e-06
3.58613635659e-07
4.43853025506e-08
4.12140051151e-09
3.06029113375e-10
1.36285318397e-11
5.24362901183e-13
2.95826888035e-14
7.08699265872e-05
0.000100837190426
0.000128840750295
0.000152556684573
0.000167056874706
0.000166485348929
0.000148156666838
0.000115383090041
7.63920747706e-05
4.09746964743e-05
1.67623092651e-05
5.00712793777e-06
1.07857660329e-06
1.67803739707e-07
1.91435232457e-08
1.66417341177e-09
1.17052532177e-10
4.84765948923e-12
1.93862604683e-13
1.1358888147e-14
7.15133149915e-05
9.94855125031e-05
0.000122323701089
0.000137289026445
0.000140978015458
0.000131080874454
0.000108779248158
7.90885436845e-05
4.88600061518e-05
2.44091534755e-05
9.297760363e-06
2.59003801185e-06
5.20485374258e-07
7.55385853721e-08
8.0588388434e-09
6.64239230217e-10
4.44289045451e-11
1.72404266906e-12
7.16125050128e-14
4.32395019535e-15
6.36917126957e-05
8.67384334019e-05
0.000102960014653
0.000110174564784
0.000107007333228
9.37846890922e-05
7.32382618733e-05
4.99656942964e-05
2.88403273942e-05
1.34314573497e-05
4.78074520403e-06
1.25037278107e-06
2.36731796445e-07
3.24390711543e-08
3.27989872353e-09
2.59867394984e-10
1.65941351985e-11
6.09515833448e-13
2.6239306017e-14
1.6206488411e-15
4.95810191451e-05
6.63407654035e-05
7.65486183541e-05
7.88749433276e-05
7.32891437545e-05
6.11690910257e-05
4.52503961414e-05
2.90494693221e-05
1.56844383829e-05
6.82322279845e-06
2.27808242725e-06
5.62491493989e-07
1.01081266794e-07
1.31988245469e-08
1.27897421076e-09
9.86519549965e-11
6.02478186861e-12
2.11914589034e-13
9.43699565393e-15
5.92665316652e-16
3.39883905738e-05
4.48827640571e-05
5.07340080324e-05
5.08250357227e-05
4.55913562232e-05
3.64672459853e-05
2.56381825693e-05
1.5514098304e-05
7.85197317526e-06
3.20097345729e-06
1.00647807432e-06
2.35705895108e-07
4.04313300238e-08
5.06596887991e-09
4.74707757953e-10
3.60269399334e-11
2.10163775868e-12
7.16844893733e-14
3.29923870089e-15
2.09761428474e-16
2.08559248228e-05
2.72763896011e-05
3.03617984137e-05
2.97364617632e-05
2.58603057942e-05
1.98723178711e-05
1.32997982438e-05
7.60306329406e-06
3.61942172508e-06
1.38834581335e-06
4.12796128153e-07
9.20668324695e-08
1.51417632138e-08
1.83035602105e-09
1.67071710596e-10
1.25776714395e-11
6.9824486539e-13
2.33970245562e-14
1.11282059668e-15
7.14004692593e-17
1.15924658512e-05
1.50410745887e-05
1.6518653337e-05
1.58434918731e-05
1.33738429758e-05
9.88576182487e-06
6.3116878171e-06
3.42051129682e-06
1.53829213261e-06
5.57739929879e-07
1.57456682817e-07
3.35691614271e-08
5.31277315725e-09
6.22249384698e-10
5.56687481516e-11
4.18057690877e-12
2.197643603e-13
7.32928154457e-15
3.60428179298e-16
2.32847237186e-17
5.85516415734e-06
7.54103827801e-06
8.17436911169e-06
7.68169808807e-06
6.30009028398e-06
4.48845870445e-06
2.74263199867e-06
1.41507618619e-06
6.04097680716e-07
2.07994325775e-07
5.59755395408e-08
1.14460199541e-08
1.74857786752e-09
1.99144676624e-10
1.75574201804e-11
1.31951089585e-12
6.53639539572e-14
2.19695359405e-15
1.11778242173e-16
7.25775226575e-18
2.68659211778e-06
3.4357732788e-06
3.67762167322e-06
3.38931067984e-06
2.70571150512e-06
1.86329998675e-06
1.09388496446e-06
5.3978730731e-07
2.19782649474e-07
7.21800583179e-08
1.85865909623e-08
3.65638864503e-09
5.40626230857e-10
6.00607542333e-11
5.24515079356e-12
3.94874680902e-13
1.83614836312e-14
6.29108829103e-16
3.31334906717e-17
2.15895821362e-18
1.12123575896e-06
1.42449162682e-06
1.50696754177e-06
1.36415677797e-06
1.06262945468e-06
7.09664987209e-07
4.0187106692e-07
1.90484770588e-07
7.43005398709e-08
2.33697438955e-08
5.77750225113e-09
1.09635969055e-09
1.57261209817e-10
1.70920353687e-11
1.48635729855e-12
1.11939292392e-13
4.87413732638e-15
1.7192968899e-16
9.3745708518e-18
6.12064577935e-19
4.27369075135e-07
5.3967284149e-07
5.64866918709e-07
5.03108179118e-07
3.83377797559e-07
2.49068361794e-07
1.36547192645e-07
6.24100835142e-08
2.34122812942e-08
7.07765816949e-09
1.68488601328e-09
3.09134432661e-10
4.31031878297e-11
4.59645069686e-12
4.0039898501e-13
3.00337122973e-14
1.22383354986e-15
4.48000061872e-17
2.52723799626e-18
1.65011208229e-19
1.49608127612e-07
1.87862074002e-07
1.94761429412e-07
1.70941585185e-07
1.27723490469e-07
8.09408582715e-08
4.30969611294e-08
1.90572506218e-08
6.89874712609e-09
2.01066411883e-09
4.62096632489e-10
8.21373973863e-11
1.11524061948e-11
1.17056972707e-12
1.02819723944e-13
7.61030637131e-15
2.91088177603e-16
1.11196302242e-17
6.47675553863e-19
4.21478036721e-20
4.83921314347e-08
6.04521316013e-08
6.21334291647e-08
5.38172928623e-08
3.95057934498e-08
2.44797172657e-08
1.26933425418e-08
5.44612035045e-09
1.90798637066e-09
5.3757305256e-10
1.1953890464e-10
2.06198581494e-11
2.73058328256e-12
2.83008795635e-13
2.52129496539e-14
1.81344507008e-15
6.57035691002e-17
2.62395469803e-18
1.57102945895e-19
1.01216319651e-20
1.45538147535e-08
1.80959210509e-08
1.8452106609e-08
1.57941212655e-08
1.1409560349e-08
6.9279700569e-09
3.50663405436e-09
1.46359049908e-09
4.97527380831e-10
1.35839647837e-10
2.92874011076e-11
4.91014552949e-12
6.34985418964e-13
6.50940383882e-14
5.87276232994e-15
4.0313031911e-16
1.40707379129e-17
5.84537179433e-19
3.56837226713e-20
2.25138747119e-21
4.09026708905e-09
5.06449702597e-09
5.12754966779e-09
4.34268423167e-09
3.09219766668e-09
1.84353593611e-09
9.1285400834e-10
3.71520586861e-10
1.22834042657e-10
3.25745733388e-11
6.82229422302e-12
1.11321248581e-12
1.40616442287e-13
1.42054026262e-14
1.27820296696e-15
8.30176298302e-17
2.83783028092e-18
1.20739251742e-19
7.41804722353e-21
4.50788165179e-22
1.07783106898e-09
1.32978921693e-09
1.33823276345e-09
1.12291534071e-09
7.8951086341e-10
4.63077763969e-10
2.248323554e-10
8.94392036328e-11
2.88327385773e-11
7.4440776452e-12
1.51772698919e-12
2.41344047712e-13
2.97441071103e-14
2.92366611298e-15
2.53097358337e-16
1.57306477467e-17
5.30087776201e-19
2.24547672977e-20
1.35705543138e-21
7.72050612404e-23
2.6709216298e-10
3.28607070471e-10
3.29030441645e-10
2.73917648388e-10
1.90482951049e-10
1.10131409558e-10
5.25435385427e-11
2.04767210541e-11
6.4521061296e-12
1.6253956417e-12
3.2332542673e-13
5.01778019438e-14
6.03000002857e-15
5.69715709768e-16
4.54283131901e-17
2.72259868221e-18
9.05776647639e-20
3.63975110839e-21
2.08055215715e-22
1.05699417646e-23
6.40534347745e-11
7.86091636233e-11
7.83442177022e-11
6.47496435489e-11
4.4569802723e-11
2.54274919449e-11
1.19346088303e-11
4.56216592753e-12
1.40685579551e-12
3.46226782597e-13
6.72656060237e-14
1.01948874318e-14
1.19546779933e-15
1.08409263506e-16
7.78912041971e-18
4.27513094656e-19
1.42479534063e-20
5.17439655592e-22
2.60795633838e-23
1.10249872242e-24
1.74217002834e-11
2.13102034901e-11
2.11188398346e-11
1.73091723796e-11
1.17822390342e-11
6.62668608591e-12
3.05747500308e-12
1.14553598648e-12
3.45494966066e-13
8.29877905728e-14
1.57331269898e-14
2.32527968701e-15
2.65943744276e-16
2.32004837446e-17
1.4981164293e-18
6.60278739271e-20
2.08846128102e-21
7.01470981833e-23
3.04929577377e-24
1.14139091485e-25
1.52346566291e-11
1.84893274206e-12
8.78941424161e-12
1.23655396845e-12
4.56650628716e-12
7.64017635081e-13
2.27151228237e-12
4.32978639543e-13
1.10891030283e-12
2.31346277353e-13
5.32595932672e-13
1.1813730311e-13
2.49424390452e-13
5.77650989367e-14
1.13427854486e-13
2.71974442186e-14
4.96878436288e-14
1.22642282798e-14
2.09851501828e-14
5.31769501069e-15
8.58177289493e-15
2.22755831286e-15
3.41984640801e-15
9.06219546269e-16
1.34410757859e-15
3.62049660236e-16
5.24158112508e-16
1.42770590077e-16
2.0211518487e-16
5.56074466149e-17
7.64756672296e-17
2.12121719021e-17
2.81554919742e-17
7.860267465e-18
1.00113108987e-17
2.80974675992e-18
3.41862670611e-18
9.64314025969e-19
1.11733427406e-18
3.16828021894e-19
3.48717053541e-19
9.94451150097e-20
1.03759612334e-19
2.97798937513e-20
2.93638620228e-20
8.48630694353e-21
7.87497020353e-21
2.29151581697e-21
1.98815191404e-21
5.81874441167e-22
4.67000616316e-22
1.37096201554e-22
1.000963703e-22
2.94026631409e-23
1.89198185879e-23
5.54027130619e-24
2.95288470343e-24
8.44581724796e-25
3.47190901612e-25
9.21714445915e-26
2.88204802666e-26
6.62756542565e-27
2.60571708352e-27
5.19529626032e-28
)
;

boundaryField
{
    inletfuel
    {
        type            zeroGradient;
    }
    inletair
    {
        type            zeroGradient;
    }
    outlet
    {
        type            zeroGradient;
    }
    axis
    {
        type            empty;
    }
    leftside
    {
        type            zeroGradient;
    }
    burnerwall
    {
        type            zeroGradient;
    }
    front
    {
        type            wedge;
    }
    back
    {
        type            wedge;
    }
    procBoundary1to0
    {
        type            processor;
        value           nonuniform List<scalar> 
27
(
4.54307391631e-07
1.39822925313e-06
2.46322363181e-06
3.17950014439e-06
0.00804460537424
0.00187968310089
0.000341806661949
3.85529714633e-05
2.54024502933e-06
1.08845820436e-07
2.05850016748e-09
1.37267897125e-05
2.92311545361e-05
6.06923650174e-05
0.000124545857083
0.000261760063
0.000600726150248
0.00155184570162
0.00424079391885
0.0110670244721
0.0251622248844
0.0430145703279
0.0351119125809
0.0126593102509
0.0126593102509
2.91927140708e-11
3.07613832e-12
)
;
    }
}


// ************************************************************************* //
