/*--------------------------------*- C++ -*----------------------------------*\
  =========                 |
  \\      /  F ield         | OpenFOAM: The Open Source CFD Toolbox
   \\    /   O peration     | Website:  https://openfoam.org
    \\  /    A nd           | Version:  7
     \\/     M anipulation  |
\*---------------------------------------------------------------------------*/
FoamFile
{
    version     2.0;
    format      ascii;
    class       volScalarField;
    location    "0.02";
    object      ed::R_H2O;
}
// * * * * * * * * * * * * * * * * * * * * * * * * * * * * * * * * * * * * * //

dimensions      [1 -3 -1 0 0 0 0];

internalField   nonuniform List<scalar> 
815
(
0.00028372617086
0.000288258411111
0.000298773960779
0.000280207878581
0.000282273075284
0.000287366042757
0.000293138918757
0.000293512126566
0.000294867419349
0.000321403671331
0.000320558184122
0.000319197789768
0.000365960594578
0.000364184644778
0.000360801847452
0.000429798301248
0.000427173763104
0.000422035789036
0.000517016630115
0.000513610178745
0.000506833507267
0.000633681972198
0.00062921934257
0.000620367430579
0.000783647602074
0.000778089313432
0.000766715462272
0.000967910479618
0.000960619452666
0.000945736593044
0.00117360645796
0.00116424336845
0.00114493356738
0.00136708000514
0.00135519731459
0.00133067812929
0.00148743600637
0.00147325252957
0.00144378714105
0.00146604387474
0.00145059005
0.00141844325193
0.00127574789197
0.00126081095081
0.00122985026807
0.000969446692148
0.000956816039283
0.000930971265768
0.00064731767128
0.000638142154625
0.00061945326783
0.000385856411072
0.000380027339465
0.000368191613602
0.000207819791555
0.000204542775685
0.000197895843024
0.000101552252912
9.98999032822e-05
9.65528810037e-05
4.50473904867e-05
4.42940626406e-05
4.27730407307e-05
1.81600402121e-05
1.78493093074e-05
1.72242808954e-05
6.68151985811e-06
6.56521843526e-06
6.33162566973e-06
2.25658010307e-06
2.21653416137e-06
2.13667477918e-06
7.04032713379e-07
6.91368247998e-07
6.66133724798e-07
2.04435217838e-07
2.00679361135e-07
1.93212683893e-07
5.54524184736e-08
5.44133909242e-08
5.23546203681e-08
1.40814068418e-08
1.38131494805e-08
1.32870247924e-08
3.35862206315e-09
3.29414656986e-09
3.16861487699e-09
7.75052064621e-10
7.60104046047e-10
7.31191878096e-10
2.02677668117e-10
1.98822045435e-10
1.91344287335e-10
0.00031388856983
0.000294958028248
0.000297123961282
0.000317599544131
0.000356270175057
0.000415030068292
0.000497461573013
0.000608204924457
0.00075101421872
0.000925154349804
0.00111802920502
0.00129625337969
0.00140230898757
0.00137320987314
0.00118667714953
0.000895463064979
0.000594213306504
0.000352435443507
0.00018912570821
9.21570887096e-05
4.07792343517e-05
1.64059696438e-05
6.02594223669e-06
2.03208736615e-06
6.33103065326e-07
1.83460511809e-07
4.96738623988e-08
1.26028143772e-08
3.00561634409e-09
6.93655941524e-10
1.81556602384e-10
0.00321216795423
0.00063919662927
9.33251221257e-05
8.3355341205e-06
4.51385917094e-07
1.5681330174e-08
2.5490308457e-10
0.000348361902495
0.000436973534627
0.000589881726807
0.000827707781246
0.00119008725183
0.00181471357048
0.00312138456423
0.00606033107132
0.0121267951394
0.0221518793517
0.030716653346
0.0184434910564
0.00532018467107
0.00132025996714
0.000267884665943
3.77336472981e-05
3.25769614697e-06
1.77067054471e-07
5.96152179008e-09
1.05140619869e-10
0.000312910431308
0.000365985632388
0.000465859252035
0.000624295290925
0.000849109651531
0.00117221044136
0.0017285280527
0.00287246257613
0.00521091317968
0.00910350547114
0.0121389044396
0.00664504777857
0.00199753911279
0.000525927963668
0.000106611479038
1.44245352052e-05
1.21335851209e-06
6.65413574069e-08
2.16044444173e-09
4.28404580476e-11
0.000303293927209
0.000330872382241
0.000393157994229
0.000499210440015
0.000648263881982
0.000837654410092
0.00109513150339
0.0015301933021
0.00234838761866
0.00364152114758
0.00441948980371
0.00231123786614
0.000758119848223
0.000209034049685
4.17632001933e-05
5.42835937807e-06
4.48343724309e-07
2.4816953777e-08
7.7748316444e-10
1.77647964607e-11
0.000315218683938
0.000324611641761
0.000360354359639
0.000430373865968
0.00053253632206
0.000655695908703
0.000792327812715
0.000961727611387
0.00121428958069
0.0015462425983
0.00160888040671
0.000842903009834
0.000303678031001
8.57962570218e-05
1.67263741593e-05
2.09077779622e-06
1.70285550545e-07
9.45020494075e-09
2.86679398413e-10
7.53731407423e-12
0.000347473401784
0.000344016654506
0.000361790182797
0.000407807249035
0.00047985166549
0.000566104687613
0.000649619016895
0.000718868459532
0.000770289577577
0.000781615937014
0.000663171588635
0.000348157721414
0.000132730387007
3.72417746868e-05
6.99211673523e-06
8.39148660152e-07
6.73453760661e-08
3.6967347695e-09
1.09234582932e-10
3.24277752051e-12
0.000400987993014
0.000388253246707
0.000394463583085
0.000425733664798
0.000479126573858
0.000542914932653
0.000597772035522
0.000621081186129
0.000591195826106
0.000493362817443
0.000339008926091
0.000169446997989
6.37517806339e-05
1.70797844546e-05
3.03524920776e-06
3.4803142343e-07
2.73941003775e-08
1.46321196907e-09
4.2470648421e-11
1.39199156239e-12
0.000478458727368
0.000458167288864
0.000456723927905
0.000479306965997
0.00052100530352
0.000568330148596
0.00059966726626
0.000587534699229
0.000507819666792
0.000364694878607
0.00021043249242
9.49869593198e-05
3.29438578729e-05
8.11562093799e-06
1.34120843373e-06
1.45933690228e-07
1.11955502812e-08
5.73463261525e-10
1.65226340447e-11
5.86869843356e-13
0.000583491097916
0.000555348740478
0.000547079059983
0.000562578216984
0.00059343120248
0.000622056441313
0.000623676444238
0.000570984540886
0.000449929731554
0.000287186949342
0.000145063142911
5.78641397488e-05
1.77519093093e-05
3.91313955737e-06
5.92343308965e-07
6.06890618058e-08
4.50718191171e-09
2.19079019313e-10
6.3316021348e-12
2.40570420537e-13
0.000718954396294
0.000680233413595
0.000662033625358
0.000666186342052
0.000679443526127
0.00067919030116
0.000639607725202
0.000541448616015
0.000389502714312
0.000225730471453
0.000102665391503
3.62416579985e-05
9.70806208019e-06
1.88901185869e-06
2.58990225885e-07
2.47915094928e-08
1.77059641004e-09
8.10038102336e-11
2.36848568127e-12
9.54101394218e-14
0.000883029780761
0.000828281458653
0.000792434762167
0.00077461116141
0.000756721964015
0.000713533323766
0.000624433482113
0.000485806659273
0.000320360566835
0.000170891179295
7.10734267727e-05
2.24320334013e-05
5.27707304373e-06
9.0580089692e-07
1.11901107343e-07
9.94542868028e-09
6.78077829747e-10
2.89781994863e-11
8.63987638472e-13
3.66970975984e-14
0.00106251411739
0.000983911736924
0.000918752535235
0.000864034169567
0.000799723749528
0.000704069991334
0.00056863751357
0.000406252650066
0.000246979958344
0.000122185820877
4.68279682044e-05
1.33739609754e-05
2.80461865737e-06
4.28803958161e-07
4.78043029716e-08
3.93233163116e-09
2.5437698852e-10
1.00926436388e-11
3.09541100437e-13
1.38086642317e-14
0.00122464060519
0.00111452366404
0.00100845988703
0.000904329397775
0.000786052128482
0.000642037889675
0.000477753714728
0.000314545334068
0.000177245102446
8.1575812919e-05
2.89270594281e-05
7.56183222827e-06
1.4380645522e-06
1.9879433956e-07
2.0165291292e-08
1.53935728302e-09
9.42090298759e-11
3.46381826948e-12
1.1007012585e-13
5.13372264979e-15
0.00131525404473
0.00117210233108
0.00102221600378
0.000869114615916
0.000706550542064
0.000535179839207
0.000368343652995
0.000224847992474
0.000117921205249
5.05302065343e-05
1.66300878414e-05
4.01979952008e-06
7.04140637276e-07
8.94598916172e-08
8.36440199447e-09
5.97776084004e-10
3.46534657963e-11
1.18477785405e-12
3.91263613267e-14
1.89539356768e-15
0.00127770193847
0.00111315452384
0.000934116036139
0.000752713670304
0.000573754260694
0.000405422999453
0.000260181618601
0.000148257584236
7.25466662921e-05
2.89520587263e-05
8.87175785959e-06
1.99976812457e-06
3.26789593414e-07
3.8729700253e-08
3.38635652854e-09
2.29461022158e-10
1.26492495017e-11
4.05176546356e-13
1.38961828402e-14
6.93752827193e-16
0.00109537609256
0.000934116915672
0.000756665768464
0.000581260105171
0.000419019922384
0.000279063117038
0.000168511538947
9.00951876398e-05
4.11871843147e-05
1.53223859643e-05
4.38721536228e-06
9.28467282159e-07
1.42943960913e-07
1.59952685031e-08
1.32546190496e-09
8.63335149721e-11
4.5434261072e-12
1.37741374808e-13
4.89534521565e-15
2.50014008675e-16
0.000820655776862
0.000687538234299
0.000541323190983
0.000400376346663
0.000276095561201
0.000175090891237
0.000100148035999
5.03813001195e-05
2.15432605043e-05
7.48614722736e-06
2.01056810026e-06
4.01692588491e-07
5.86986697415e-08
6.2590101752e-09
4.97066599276e-10
3.15191889282e-11
1.58633710629e-12
4.60483469357e-14
1.69270561076e-15
8.79076240342e-17
0.000541332349863
0.000447561683285
0.00034517624445
0.000248195960692
0.000165217968699
0.000100406189569
5.45768979234e-05
2.58785426405e-05
1.03726310952e-05
3.37760423177e-06
8.54290672918e-07
1.61881513941e-07
2.25799622375e-08
2.31036045244e-09
1.77428920953e-10
1.10697199792e-11
5.32147856429e-13
1.497759699e-14
5.68944724416e-16
2.99139952593e-17
0.000319579100009
0.000261669563773
0.000198717877476
0.000139684610468
9.01419581714e-05
5.26264365107e-05
2.72300004916e-05
1.21974730927e-05
4.59841410095e-06
1.40889029378e-06
3.36966272541e-07
6.08103977659e-08
8.13258699413e-09
8.02784920619e-10
6.00544951686e-11
3.71661338682e-12
1.70018773115e-13
4.70035382559e-15
1.84493556313e-16
9.78974902542e-18
0.000170875909369
0.000138798966199
0.000103993949236
7.15841688755e-05
4.4837410611e-05
2.51792612469e-05
1.24283841844e-05
5.27753138192e-06
1.87957987501e-06
5.44328414613e-07
1.23611785005e-07
2.13236854058e-08
2.74422830649e-09
2.62466639812e-10
1.92441055432e-11
1.18800693384e-12
5.1458243163e-14
1.41570595032e-15
5.7446703608e-17
3.06939749929e-18
8.3014963001e-05
6.69331885099e-05
4.94971367619e-05
3.33814381571e-05
2.03143550928e-05
1.09949641477e-05
5.19390549169e-06
2.09977316251e-06
7.09870145753e-07
1.95222015283e-07
4.22614331173e-08
6.99234771086e-09
8.6862110291e-10
8.07837383579e-11
5.83700031693e-12
3.6060254261e-13
1.47176240646e-14
4.08001657359e-16
1.71270825319e-17
9.19781806244e-19
3.66355005355e-05
2.93300397449e-05
2.14172929344e-05
1.41652668117e-05
8.39069188672e-06
4.38969954196e-06
1.99227877708e-06
7.70308639543e-07
2.48378032636e-07
6.51540970348e-08
1.34956082158e-08
2.14816405762e-09
2.58278813351e-10
2.34310233854e-11
1.67698302342e-12
1.03777953097e-13
3.97558273944e-15
1.12326462879e-16
4.88046406853e-18
2.63036284438e-19
1.47049280383e-05
1.16952846023e-05
8.44035864442e-06
5.48319719667e-06
3.1692127312e-06
1.60788970697e-06
7.03905372997e-07
2.61426885066e-07
8.07530459258e-08
2.02873458471e-08
4.03440445003e-09
6.1946190401e-10
7.22535790866e-11
6.41267188517e-12
4.57018999771e-13
2.82914086801e-14
1.01478575729e-15
2.95124543702e-17
1.32739154079e-18
7.16876261079e-20
5.39044751457e-06
4.26123818613e-06
3.04267708317e-06
1.94483178493e-06
1.09962886536e-06
5.42712603104e-07
2.30015942122e-07
8.23743157215e-08
2.44713212062e-08
5.9089107655e-09
1.13150454993e-09
1.67979100217e-10
1.90455267599e-11
1.65848666455e-12
1.18397518315e-13
7.29965165993e-15
2.45001730868e-16
7.39280236952e-18
3.43978331274e-19
1.8578982196e-20
1.81479459811e-06
1.42657386936e-06
1.00893182822e-06
6.35501803139e-07
3.52320316068e-07
1.69615824459e-07
6.98182034992e-08
2.41904494739e-08
6.93474387642e-09
1.61437280312e-09
2.9844546988e-10
4.2923493203e-11
4.73912108921e-12
4.06190817837e-13
2.92389970984e-14
1.77872894052e-15
5.60304995945e-17
1.76389320804e-18
8.47349165217e-20
4.56174895608e-21
5.64540724584e-07
4.41483741572e-07
3.09550706474e-07
1.92414671066e-07
1.04803234029e-07
4.93346131849e-08
1.97762817515e-08
6.64840487121e-09
1.84451400665e-09
4.15095727541e-10
7.42485339782e-11
1.03630123538e-11
1.11591232504e-12
9.44442252284e-14
6.89514773134e-15
4.07585500593e-16
1.2159682411e-17
4.00094929505e-19
1.97558279026e-20
1.05303777303e-21
1.63284411384e-07
1.27095748474e-07
8.84096203193e-08
5.43073684655e-08
2.91091580115e-08
1.34275902967e-08
5.25419005559e-09
1.71829000589e-09
4.62562388087e-10
1.00875092104e-10
1.74946804234e-11
2.37323656041e-12
2.49565069099e-13
2.08909880401e-14
1.54452459896e-15
8.71288672384e-17
2.50364451725e-18
8.56710707236e-20
4.31310834443e-21
2.2515292062e-22
4.41333357534e-08
3.42084822717e-08
2.36271068774e-08
1.43604678165e-08
7.58708555588e-09
3.43629668717e-09
1.31541746494e-09
4.19475596284e-10
1.0982949908e-10
2.32639282754e-11
3.91924569466e-12
5.17453560984e-13
5.31498402577e-14
4.38444217774e-15
3.23285813431e-16
1.72542330665e-17
4.85495449276e-19
1.70108670257e-20
8.61909033869e-22
4.33356791861e-23
1.11844131794e-08
8.63828826068e-09
5.93034155319e-09
3.57112218018e-09
1.86300141359e-09
8.30118900439e-10
3.11579165038e-10
9.71178498571e-11
2.47932506271e-11
5.11284380678e-12
8.38519186706e-13
1.078889923e-13
1.08121923653e-14
8.67830062987e-16
6.15627611274e-17
3.14417871275e-18
8.72073010975e-20
3.0418992001e-21
1.51604494715e-22
7.13502214482e-24
2.66545548839e-09
2.0529083829e-09
1.40227083327e-09
8.37771290922e-10
4.32273830236e-10
1.8986518092e-10
7.00287974751e-11
2.13835251468e-11
5.33576670539e-12
1.07363950916e-12
1.71793610073e-13
2.15724824929e-14
2.10803897602e-15
1.62635549622e-16
1.06270772707e-17
5.23385029711e-19
1.4333137745e-20
4.74281556622e-22
2.23555236996e-23
9.39175577903e-25
6.14753297583e-10
4.72295702195e-10
3.21107848625e-10
1.90454391634e-10
9.72728619606e-11
4.21585633251e-11
1.52972613947e-11
4.58182092902e-12
1.11890461398e-12
2.19942024598e-13
3.43722873913e-14
4.21521196666e-15
4.01928385936e-16
2.97629818605e-17
1.75242421174e-18
7.90474696379e-20
2.1690796418e-21
6.48844987252e-23
2.69632945462e-24
9.4194419431e-26
1.60804223414e-10
1.23133687201e-10
8.32458320373e-11
4.8964168109e-11
2.4730179971e-11
1.05664022033e-11
3.76891960042e-12
1.10643072603e-12
2.64261356074e-13
5.07002644287e-14
7.73177035006e-15
9.24615067859e-16
8.59904761298e-17
6.12576244969e-18
3.24160141098e-19
1.17425769488e-20
3.05890297202e-22
8.46636911053e-24
3.03402359084e-25
9.3771292009e-27
1.84503921635e-11
2.19400909635e-12
1.02475641836e-11
1.41240047427e-12
5.12423061984e-12
8.39906275759e-13
2.45268831585e-12
4.58048774789e-13
1.15194559729e-12
2.35486999074e-13
5.32222723844e-13
1.15692736496e-13
2.39753118964e-13
5.442100787e-14
1.04870931601e-13
2.46482258641e-14
4.41854889112e-14
1.06913460234e-14
1.79481975876e-14
4.45892314542e-15
7.05911344331e-15
1.79651597216e-15
2.70538554969e-15
7.02931710649e-16
1.02256647855e-15
2.70090355444e-16
3.83478374796e-16
1.02429629536e-16
1.42195267532e-16
3.83664051533e-17
5.17373307917e-17
1.40741088766e-17
1.83157908828e-17
5.0150786602e-18
6.26214412995e-18
1.72385171053e-18
2.05608553542e-18
5.68894078886e-19
6.46127148363e-19
1.79723419222e-19
1.93883523148e-19
5.42400682362e-20
5.5464560038e-20
1.56171700994e-20
1.50905597794e-20
4.27883701423e-21
3.89071873146e-21
1.11081256852e-21
9.4428046313e-22
2.71167617571e-22
2.1321567027e-22
6.14186570606e-23
4.39288689623e-23
1.26619947642e-23
7.98110718125e-24
2.2933343842e-24
1.19728845158e-24
3.36042458404e-25
1.35306501074e-25
3.52513545992e-26
1.07953903299e-26
2.43659247749e-27
9.3820236675e-28
1.83629140997e-28
)
;

boundaryField
{
    inletfuel
    {
        type            calculated;
        value           nonuniform 0();
    }
    inletair
    {
        type            calculated;
        value           nonuniform 0();
    }
    outlet
    {
        type            calculated;
        value           uniform 0;
    }
    axis
    {
        type            empty;
    }
    leftside
    {
        type            calculated;
        value           uniform 0;
    }
    burnerwall
    {
        type            calculated;
        value           nonuniform 0();
    }
    front
    {
        type            wedge;
    }
    back
    {
        type            wedge;
    }
    procBoundary1to0
    {
        type            processor;
        value           uniform 0;
    }
}


// ************************************************************************* //
