/*--------------------------------*- C++ -*----------------------------------*\
  =========                 |
  \\      /  F ield         | OpenFOAM: The Open Source CFD Toolbox
   \\    /   O peration     | Website:  https://openfoam.org
    \\  /    A nd           | Version:  7
     \\/     M anipulation  |
\*---------------------------------------------------------------------------*/
FoamFile
{
    version     2.0;
    format      ascii;
    class       volScalarField;
    location    "0.02";
    object      ed::R_O2;
}
// * * * * * * * * * * * * * * * * * * * * * * * * * * * * * * * * * * * * * //

dimensions      [1 -3 -1 0 0 0 0];

internalField   nonuniform List<scalar> 
815
(
-0.000251975297618
-0.000256000349599
-0.000265339138294
-0.000248850725988
-0.000250684813242
-0.000255207843286
-0.000260334695503
-0.000260666138839
-0.000261869765214
-0.00028543643152
-0.000284685560035
-0.00028347740299
-0.000325007134363
-0.000323429925331
-0.000320425685855
-0.000381700970849
-0.000379370136235
-0.000374807136138
-0.000459158980123
-0.000456133733651
-0.000450115417443
-0.000562768683113
-0.000558805451856
-0.000550944128554
-0.000695952146964
-0.000691015868331
-0.000680914827872
-0.000859594765015
-0.000853119653182
-0.000839902285988
-0.00104227197524
-0.00103395667863
-0.00101680777462
-0.00121409452684
-0.00120354158956
-0.00118176626655
-0.00132098187931
-0.00130838562929
-0.00128221761658
-0.00130198367158
-0.00128825923412
-0.00125970987969
-0.00113298309349
-0.00111971769684
-0.00109222172344
-0.000860959064996
-0.000849741867424
-0.000826789298478
-0.000574878455447
-0.000566729741026
-0.000550132266786
-0.000342676474725
-0.000337499715569
-0.000326988487303
-0.00018456335441
-0.000181653058731
-0.000175749962691
-9.01878704866e-05
-8.87204299314e-05
-8.57479620332e-05
-4.00062834894e-05
-3.93372581131e-05
-3.79864488195e-05
-1.61278091595e-05
-1.585185114e-05
-1.52967676253e-05
-5.93381269581e-06
-5.83052618704e-06
-5.62307402838e-06
-2.00405356102e-06
-1.96848903045e-06
-1.89756645206e-06
-6.25246701594e-07
-6.13999475355e-07
-5.91588865596e-07
-1.81557537333e-07
-1.78221986341e-07
-1.71590880671e-07
-4.92469186263e-08
-4.83241652716e-08
-4.64957850343e-08
-1.25056023879e-08
-1.22673648357e-08
-1.18001170507e-08
-2.98276958866e-09
-2.92550933818e-09
-2.81402548889e-09
-6.88318508159e-10
-6.7504327374e-10
-6.49366572496e-10
-1.79996669287e-10
-1.76572516802e-10
-1.69931570298e-10
-0.000278762320592
-0.000261950234365
-0.000263873784876
-0.000282058011826
-0.000316401138182
-0.000368585402824
-0.000441792265879
-0.000540142688945
-0.000666970659434
-0.000821623334666
-0.000992914191969
-0.00115119387875
-0.00124538114839
-0.00121953842124
-0.00105387996822
-0.000795254704984
-0.000527716827464
-0.000312995538972
-0.000167961265148
-8.18440885618e-05
-3.62157628295e-05
-1.45700309251e-05
-5.3515986344e-06
-1.80468307636e-06
-5.62254559826e-07
-1.62930042456e-07
-4.41150219729e-08
-1.11924743984e-08
-2.66926759182e-09
-6.16031160537e-10
-1.61239193344e-10
-0.00285270468287
-0.000567666212842
-8.28814111562e-05
-7.40273160015e-06
-4.00872786798e-07
-1.39264835022e-08
-2.26377709196e-10
-0.000309377854689
-0.00038807324719
-0.000523869980766
-0.000735081694747
-0.00105690845706
-0.00161163487536
-0.00277208056686
-0.00538213912636
-0.0107697249257
-0.0196729345605
-0.0272792525456
-0.0163795399415
-0.00472482010317
-0.00117251396706
-0.000237906564007
-3.35109975203e-05
-2.89313796359e-06
-1.57252056141e-07
-5.2943872705e-09
-9.3374674965e-11
-0.000277893642372
-0.000325029370273
-0.000413726457886
-0.00055443243482
-0.000754088551317
-0.00104103218233
-0.00153509409865
-0.00255101462908
-0.00462777682908
-0.008084761774
-0.0107804791135
-0.00590142208811
-0.00177400100569
-0.000467073075314
-9.46809350671e-05
-1.28103323719e-05
-1.07757550625e-06
-5.90949304594e-08
-1.91867612896e-09
-3.80463216836e-11
-0.000269353289979
-0.000293845529779
-0.000349160961452
-0.000443345422861
-0.000575718778786
-0.000743915228701
-0.000972578897679
-0.0013589543451
-0.00208558719606
-0.0032340103564
-0.00392491906979
-0.00205259475155
-0.000673281121042
-0.000185641728861
-3.70896162532e-05
-4.82088933044e-06
-3.98171035916e-07
-2.20397691724e-08
-6.90477551502e-10
-1.57767958512e-11
-0.000279943585955
-0.000288285408409
-0.000320028274948
-0.000382212125993
-0.000472941913806
-0.000582319111562
-0.000703660983456
-0.000854103801463
-0.00107840238199
-0.00137320761674
-0.00142883583168
-0.000748576474711
-0.000269694409964
-7.61950768659e-05
-1.48545800131e-05
-1.85680565123e-06
-1.51229448269e-07
-8.39266323327e-09
-2.54598039078e-10
-6.69383776383e-12
-0.000308588783204
-0.000305518869274
-0.000321303419804
-0.000362170865785
-0.000426153025847
-0.000502753752717
-0.000576922264957
-0.000638422227634
-0.000684088975554
-0.000694147838935
-0.00058895821246
-0.000309196522848
-0.000117876960971
-3.30741687736e-05
-6.20965168633e-06
-7.45242262094e-07
-5.98089740047e-08
-3.28304520142e-09
-9.70104959335e-11
-2.87988883211e-12
-0.000356114730532
-0.000344805088277
-0.000350320446104
-0.000378091194647
-0.000425509076862
-0.000482159087833
-0.000530877310688
-0.000551578010041
-0.000525037023486
-0.000438152188717
-0.000301071539463
-0.000150484735403
-5.66175261527e-05
-1.51684413114e-05
-2.69558433806e-06
-3.09084358462e-07
-2.43285156765e-08
-1.29946867526e-09
-3.77178962499e-11
-1.23621831272e-12
-0.000424915966901
-0.000406895277303
-0.000405613438176
-0.000425669281903
-0.000462701294057
-0.000504730169597
-0.000532560452317
-0.000521785601413
-0.000450991219062
-0.000323883060551
-0.000186883676417
-8.43572775533e-05
-2.92572178556e-05
-7.20742818684e-06
-1.19111815887e-06
-1.2960272546e-07
-9.94269265167e-09
-5.09288852549e-10
-1.46736397923e-11
-5.211951474e-13
-0.000518194506375
-0.000493201468653
-0.000485857221214
-0.00049962191795
-0.000527022246158
-0.000552444127588
-0.000553882841254
-0.000507087517477
-0.000399579558247
-0.000255048791632
-0.000128829598262
-5.13887520154e-05
-1.5765350859e-05
-3.47523283312e-06
-5.26056095269e-07
-5.38975462302e-08
-4.00279783911e-09
-1.94562598599e-10
-5.62305312716e-12
-2.13648966992e-13
-0.000638498547492
-0.000604110704066
-0.000587947594953
-0.000591635594625
-0.000603409210335
-0.000603184322951
-0.000568031304365
-0.000480856861923
-0.000345914732025
-0.000200469708358
-9.11764413578e-05
-3.2185971892e-05
-8.62166441866e-06
-1.67761868373e-06
-2.30007471815e-07
-2.20171722753e-08
-1.5724547229e-09
-7.19389372151e-11
-2.10343614983e-12
-8.47331009461e-14
-0.000784212789176
-0.00073559117378
-0.000703755964543
-0.000687926944992
-0.000672039669511
-0.000633684129564
-0.000554555161482
-0.000431441615639
-0.000284510057456
-0.000151767303074
-6.31198306786e-05
-1.99217374814e-05
-4.68653295787e-06
-8.04435663766e-07
-9.93786182677e-08
-8.83246809433e-09
-6.02196344597e-10
-2.57353434047e-11
-7.67301591115e-13
-3.25904447271e-14
-0.000943611617288
-0.000873805373644
-0.00081593792635
-0.000767342915066
-0.000710229265028
-0.000625279807894
-0.000505003138357
-0.000360790236932
-0.000219341234263
-0.000108512402951
-4.15876025442e-05
-1.18773244882e-05
-2.49076290267e-06
-3.80817901463e-07
-4.24546788622e-08
-3.49227718433e-09
-2.25910486844e-10
-8.96320870553e-12
-2.74901362363e-13
-1.22633815166e-14
-0.001087595057
-0.000989800944683
-0.000895606420094
-0.000803128835306
-0.00069808759064
-0.000570189517034
-0.000424289849934
-0.00027934558848
-0.000157410179345
-7.24469289398e-05
-2.56899262641e-05
-6.71561217097e-06
-1.27713542404e-06
-1.76547911402e-07
-1.79086591112e-08
-1.36709281471e-09
-8.36664036641e-11
-3.07619362958e-12
-9.77525359602e-14
-4.5592244404e-15
-0.00116806824114
-0.00104093617031
-0.000907823134543
-0.000771854825184
-0.000627482768258
-0.000475289603544
-0.000327123512461
-0.000199685984732
-0.000104725026592
-4.48755354205e-05
-1.4769068784e-05
-3.5699568262e-06
-6.25342548079e-07
-7.9448726026e-08
-7.42836896421e-09
-5.30880906118e-10
-3.07755091151e-11
-1.05219321672e-12
-3.47478574504e-14
-1.68328623641e-15
-0.001134718469
-0.000988585020511
-0.000829582147823
-0.000668479930917
-0.000509547286948
-0.000360053429821
-0.000231065539647
-0.000131666560045
-6.44282047535e-05
-2.57121279721e-05
-7.87894828413e-06
-1.77598057602e-06
-2.90219632574e-07
-3.43955854277e-08
-3.0074003802e-09
-2.03782785263e-10
-1.12337131191e-11
-3.59834556489e-13
-1.23411062021e-14
-6.16117204046e-16
-0.000972796115665
-0.000829582928929
-0.000671989762621
-0.000516213176774
-0.000372128765318
-0.000247834070987
-0.00014965396054
-8.00129281365e-05
-3.65780604386e-05
-1.36077075719e-05
-3.89625635616e-06
-8.24565527533e-07
-1.26947567031e-07
-1.42052900137e-08
-1.17713377292e-09
-7.66722120259e-11
-4.03498606454e-12
-1.22327185421e-13
-4.34752304983e-15
-2.22035753888e-16
-0.000728818857244
-0.000610598066036
-0.000480745472798
-0.000355571531536
-0.000245198604674
-0.000155497038908
-8.89407949223e-05
-4.47432926384e-05
-1.91324242694e-05
-6.64839683243e-06
-1.78557196154e-06
-3.5674047702e-07
-5.21298924701e-08
-5.55858469773e-09
-4.41441492368e-10
-2.79919789802e-11
-1.40881527872e-12
-4.08952261568e-14
-1.50328042971e-15
-7.8070167661e-17
-0.000480753606738
-0.00039747651056
-0.000306548693278
-0.000220421157743
-0.00014672896303
-8.91700593665e-05
-4.84693747341e-05
-2.29825590779e-05
-9.21186367606e-06
-2.99962752451e-06
-7.58689781447e-07
-1.43765880075e-07
-2.00531120824e-08
-2.05181552637e-09
-1.57573427321e-10
-9.83094360966e-12
-4.725969201e-13
-1.33015028106e-14
-5.05275970236e-16
-2.65664173155e-17
-0.000283816042042
-0.000232386973713
-0.000176480005941
-0.000124052959896
-8.00544647299e-05
-4.67371831161e-05
-2.41827796752e-05
-1.08324935391e-05
-4.0838205307e-06
-1.25122596203e-06
-2.9925747263e-07
-5.40053038776e-08
-7.2224956268e-09
-7.12947870416e-10
-5.33339918821e-11
-3.30069926731e-12
-1.50992525033e-13
-4.17435251222e-15
-1.63847482309e-16
-8.69421004346e-18
-0.000151753741956
-0.000123266425198
-9.23563245145e-05
-6.35734172933e-05
-3.98198017788e-05
-2.23615319914e-05
-1.10375641213e-05
-4.68694000492e-06
-1.66924220267e-06
-4.83414391623e-07
-1.0977879207e-07
-1.89374211062e-08
-2.4371306396e-09
-2.33094851564e-10
-1.70905602643e-11
-1.05506094069e-12
-4.56997184876e-14
-1.2572789006e-15
-5.10180297958e-17
-2.72591120532e-18
-7.37250284155e-05
-5.94429130177e-05
-4.39580731273e-05
-2.9645829953e-05
-1.80410416667e-05
-9.76455346021e-06
-4.61267241615e-06
-1.86479437533e-06
-6.30430885892e-07
-1.73375354319e-07
-3.75320935506e-08
-6.20985681422e-09
-7.71416539614e-10
-7.17434928674e-11
-5.18380059052e-12
-3.2024868457e-13
-1.30706226101e-14
-3.62343518506e-16
-1.52104464147e-17
-8.16852014987e-19
-3.25357407913e-05
-2.6047810364e-05
-1.90205533206e-05
-1.25800778613e-05
-7.4517168401e-06
-3.89846253937e-06
-1.76932933705e-06
-6.84105904358e-07
-2.20582854608e-07
-5.78629138849e-08
-1.19853585815e-08
-1.90777000271e-09
-2.29375671145e-10
-2.08089337445e-11
-1.489317306e-12
-9.21644998009e-14
-3.53068820172e-15
-9.97563736492e-17
-4.3343072035e-18
-2.33600749111e-19
-1.30593473548e-05
-1.03865033298e-05
-7.49582555243e-06
-4.86959042706e-06
-2.81455643918e-06
-1.42795599793e-06
-6.2513361146e-07
-2.32171452391e-07
-7.17162351256e-08
-1.80170549379e-08
-3.58292736593e-09
-5.50139936519e-10
-6.41679159842e-11
-5.69505062536e-12
-4.05875489509e-13
-2.51254091245e-14
-9.01224382774e-16
-2.62098115616e-17
-1.17884746948e-18
-6.36652969632e-20
-4.78722006031e-06
-3.78437687618e-06
-2.70218098409e-06
-1.72719198352e-06
-9.76572974489e-07
-4.81979400327e-07
-2.04275605938e-07
-7.315607389e-08
-2.17328152188e-08
-5.24766377462e-09
-1.00488155484e-09
-1.49181105298e-10
-1.69142037869e-11
-1.47289081451e-12
-1.05148037011e-13
-6.48277137756e-15
-2.17584383792e-16
-6.56549789412e-18
-3.0548483467e-19
-1.64998687082e-20
-1.61170683546e-06
-1.26693062616e-06
-8.96025547878e-07
-5.6438486269e-07
-3.1289329507e-07
-1.50634669051e-07
-6.20050753602e-08
-2.14833749288e-08
-6.1586992376e-09
-1.43371359187e-09
-2.65047407744e-10
-3.81200646449e-11
-4.20878145742e-12
-3.60735324147e-13
-2.5966956004e-14
-1.57967716834e-15
-4.97603085686e-17
-1.56650165445e-18
-7.52525075302e-20
-4.05125846298e-21
-5.01364807705e-07
-3.92078731541e-07
-2.74909893419e-07
-1.70882170865e-07
-9.30750448779e-08
-4.38137370354e-08
-1.75631823635e-08
-5.90440349942e-09
-1.63810044162e-09
-3.68643714359e-10
-6.59396219605e-11
-9.20332133672e-12
-9.91034205148e-13
-8.38752790694e-14
-6.12353416837e-15
-3.6197393249e-16
-1.07989318897e-17
-3.55321606857e-19
-1.75450174383e-20
-9.35195739816e-22
-1.45011783827e-07
-1.12872876515e-07
-7.85159871741e-08
-4.82300074415e-08
-2.58516467872e-08
-1.19249523266e-08
-4.66621073052e-09
-1.52600175837e-09
-4.10798535262e-10
-8.95864885431e-11
-1.55369076214e-11
-2.10765537354e-12
-2.21637053679e-13
-1.85531454958e-14
-1.37168187313e-15
-7.73785590061e-17
-2.22346979995e-18
-7.60838997592e-20
-3.83044241372e-21
-1.9995678936e-22
-3.91945176492e-08
-3.03803222499e-08
-2.09830741705e-08
-1.27534345563e-08
-6.7380394808e-09
-3.05175189807e-09
-1.16821337353e-09
-3.72533446233e-10
-9.75388369497e-11
-2.0660537705e-11
-3.48065565244e-12
-4.5954701548e-13
-4.72020144517e-14
-3.89379350968e-15
-2.87107949217e-16
-1.53233679463e-17
-4.3116523214e-19
-1.51072362079e-20
-7.65455596394e-22
-3.84861242348e-23
-9.93280186673e-09
-7.67160550891e-09
-5.26669631254e-09
-3.17148950854e-09
-1.65451898296e-09
-7.37222993431e-10
-2.76711353781e-10
-8.62497070592e-11
-2.20187185649e-11
-4.54068208082e-12
-7.44683230975e-13
-9.58154859741e-14
-9.60223507363e-15
-7.70714022396e-16
-5.46734727015e-17
-2.79232389633e-18
-7.74482155871e-20
-2.70149015138e-21
-1.34638928655e-22
-6.33656501619e-24
-2.36717303144e-09
-1.82317408082e-09
-1.24534726382e-09
-7.44019029777e-10
-3.83899471437e-10
-1.68617985872e-10
-6.2192102449e-11
-1.89905643764e-11
-4.73865840269e-12
-9.53492002642e-13
-1.52568745759e-13
-1.91583761203e-14
-1.87213518852e-15
-1.44435534075e-16
-9.43783560735e-18
-4.64814712828e-19
-1.27291629043e-20
-4.21206249752e-22
-1.98537897316e-23
-8.34075492718e-25
-5.45958254927e-10
-4.19442625836e-10
-2.85173713371e-10
-1.69141259931e-10
-8.63873722623e-11
-3.74407355824e-11
-1.35853946112e-11
-4.06908424669e-12
-9.93691636763e-13
-1.95329027769e-13
-3.05257964712e-14
-3.74350130128e-15
-3.5694988714e-16
-2.64323033351e-17
-1.55631611623e-18
-7.02015243344e-20
-1.92634499187e-21
-5.76234854455e-23
-2.3945919925e-24
-8.36534282266e-26
-1.42809145628e-10
-1.09354196636e-10
-7.39300616487e-11
-4.34847472634e-11
-2.19627059409e-11
-9.38395048952e-12
-3.34715206262e-12
-9.82613661048e-13
-2.34688726964e-13
-4.50265626889e-14
-6.86653307011e-15
-8.2114440201e-16
-7.6367561545e-17
-5.44024829193e-18
-2.87884433718e-19
-1.04285033435e-20
-2.71659108647e-22
-7.51892527186e-24
-2.69449587595e-25
-8.32776516186e-27
-1.63856687681e-11
-1.94848467222e-12
-9.1007925959e-12
-1.25434332963e-12
-4.55079463266e-12
-7.45915095403e-13
-2.17821594137e-12
-4.06790025752e-13
-1.02303511106e-12
-2.09134414696e-13
-4.72663409346e-13
-1.02745938531e-13
-2.1292312698e-13
-4.83309298297e-14
-9.31351666348e-14
-2.18899230516e-14
-3.92408345167e-14
-9.49491225292e-15
-1.59396731543e-14
-3.95993955445e-15
-6.26915101064e-15
-1.59547371111e-15
-2.40263464941e-15
-6.24268908499e-16
-9.08134388825e-16
-2.39865421968e-16
-3.40564556757e-16
-9.09670627452e-17
-1.26282657492e-16
-3.40729455013e-17
-4.59475743272e-17
-1.24991211143e-17
-1.6266130279e-17
-4.45385751392e-18
-5.56136794179e-18
-1.53094107073e-18
-1.82599568854e-18
-5.05230992283e-19
-5.73821160078e-19
-1.59611155749e-19
-1.72186648487e-19
-4.8170238562e-20
-4.92577014677e-20
-1.38695033729e-20
-1.34018243016e-20
-3.80000627665e-21
-3.45532104893e-21
-9.86505145794e-22
-8.38609106839e-22
-2.40822131193e-22
-1.89355397883e-22
-5.45454948524e-23
-3.90129320718e-23
-1.12450321008e-23
-7.08796742724e-24
-2.03669479006e-24
-1.06330379396e-24
-2.98437039529e-25
-1.20164790489e-25
-3.13064901261e-26
-9.58731329941e-27
-2.16392133593e-27
-8.33211190462e-28
-1.630798009e-28
)
;

boundaryField
{
    inletfuel
    {
        type            calculated;
        value           nonuniform 0();
    }
    inletair
    {
        type            calculated;
        value           nonuniform 0();
    }
    outlet
    {
        type            calculated;
        value           uniform 0;
    }
    axis
    {
        type            empty;
    }
    leftside
    {
        type            calculated;
        value           uniform 0;
    }
    burnerwall
    {
        type            calculated;
        value           nonuniform 0();
    }
    front
    {
        type            wedge;
    }
    back
    {
        type            wedge;
    }
    procBoundary1to0
    {
        type            processor;
        value           uniform 0;
    }
}


// ************************************************************************* //
