/*--------------------------------*- C++ -*----------------------------------*\
  =========                 |
  \\      /  F ield         | OpenFOAM: The Open Source CFD Toolbox
   \\    /   O peration     | Website:  https://openfoam.org
    \\  /    A nd           | Version:  7
     \\/     M anipulation  |
\*---------------------------------------------------------------------------*/
FoamFile
{
    version     2.0;
    format      ascii;
    class       volScalarField;
    location    "0.02";
    object      ed::R_H2;
}
// * * * * * * * * * * * * * * * * * * * * * * * * * * * * * * * * * * * * * //

dimensions      [1 -3 -1 0 0 0 0];

internalField   nonuniform List<scalar> 
815
(
-3.17508732425e-05
-3.22580615123e-05
-3.34348224842e-05
-3.13571525932e-05
-3.15882620412e-05
-3.21581994714e-05
-3.2804223254e-05
-3.28459877263e-05
-3.2997654135e-05
-3.59672398114e-05
-3.5872624087e-05
-3.57203867781e-05
-4.09534602147e-05
-4.07547194471e-05
-4.03761615976e-05
-4.80973303992e-05
-4.78036268692e-05
-4.72286528974e-05
-5.78576499914e-05
-5.74764450948e-05
-5.6718089824e-05
-7.09132890854e-05
-7.04138907141e-05
-6.94233020252e-05
-8.769545511e-05
-8.70734451009e-05
-8.58006343998e-05
-0.000108315714603
-0.000107499799484
-0.000105834307055
-0.000131334482717
-0.000130286689814
-0.000128125792762
-0.000152985478301
-0.000151655725039
-0.000148911862735
-0.000166454127059
-0.000164866900289
-0.000161569524466
-0.000164060203166
-0.000162330815888
-0.000158733372242
-0.000142764798484
-0.000141093253965
-0.00013762854463
-0.000108487627153
-0.000107074171859
-0.00010418196729
-7.24392158331e-05
-7.14124135984e-05
-6.93210010444e-05
-4.31799363471e-05
-4.25276238969e-05
-4.12031262995e-05
-2.32564371448e-05
-2.2889716954e-05
-2.21458803325e-05
-1.13643824252e-05
-1.11794733508e-05
-1.08049189705e-05
-5.04110699733e-06
-4.95680452752e-06
-4.7865919112e-06
-2.03223105259e-06
-1.99745816738e-06
-1.92751327008e-06
-7.47707162292e-07
-7.34692248216e-07
-7.08551641355e-07
-2.52526542041e-07
-2.48045130916e-07
-2.39108327119e-07
-7.87860117848e-08
-7.73687726426e-08
-7.45448592016e-08
-2.28776805051e-08
-2.24573747936e-08
-2.16218032215e-08
-6.20549984729e-09
-6.08922565264e-09
-5.85883533382e-09
-1.57580445383e-09
-1.54578464477e-09
-1.48690774162e-09
-3.75852474494e-10
-3.68637231683e-10
-3.545893881e-10
-8.67335564622e-11
-8.50607723072e-11
-8.18253056e-11
-2.26809988305e-11
-2.22495286328e-11
-2.14127170378e-11
-3.51262492378e-05
-3.30077938822e-05
-3.32501764055e-05
-3.55415323056e-05
-3.98690368746e-05
-4.64446654681e-05
-5.56693071346e-05
-6.80622355115e-05
-8.40435592867e-05
-0.000103531015138
-0.000125115013051
-0.00014505950094
-0.000156927839177
-0.000153671451897
-0.000132797181311
-0.000100208359995
-6.64964790403e-05
-3.94399045355e-05
-2.11644430616e-05
-1.03130001478e-05
-4.56347152221e-06
-1.83593871866e-06
-6.74343602297e-07
-2.27404289793e-07
-7.08485054997e-08
-2.05304693528e-08
-5.55884042599e-09
-1.41033997877e-09
-3.36348752276e-10
-7.76247809867e-11
-2.03174090397e-11
-0.000359463271362
-7.15304164273e-05
-1.04437109695e-05
-9.32802520353e-07
-5.05131302961e-08
-1.75484667177e-09
-2.85253753743e-11
-3.8984047806e-05
-4.89002874362e-05
-6.60117460406e-05
-9.2626086499e-05
-0.000133178794772
-0.000203078695113
-0.00034930399737
-0.000678191944964
-0.00135707021365
-0.00247894479119
-0.00343740080045
-0.00206395111493
-0.000595364567906
-0.000147746000084
-2.9978101936e-05
-4.22264977779e-06
-3.64558183376e-07
-1.98149983306e-08
-6.6713451958e-10
-1.17659449037e-11
-3.50167889363e-05
-4.09562621146e-05
-5.21327941492e-05
-6.9862856105e-05
-9.50211002143e-05
-0.000131178259039
-0.000193433954051
-0.000321447947054
-0.000583136350602
-0.00101874369714
-0.00135842532606
-0.00074362569046
-0.000223538107094
-5.88548883541e-05
-1.19305439708e-05
-1.6142028333e-06
-1.3578300584e-07
-7.44642694751e-09
-2.41768312767e-10
-4.79413636392e-12
-3.39406372308e-05
-3.70268524617e-05
-4.3997032777e-05
-5.58650171544e-05
-7.25451031961e-05
-9.37391813917e-05
-0.000122552605714
-0.000171238957
-0.000262800422598
-0.000407510791183
-0.000494570733918
-0.000258643114586
-8.48387271803e-05
-2.33923208239e-05
-4.67358394017e-06
-6.07470047635e-07
-5.01726883933e-08
-2.77718460461e-09
-8.70056129382e-11
-1.98800060951e-12
-3.52750979828e-05
-3.63262333514e-05
-4.03260846914e-05
-4.81617399755e-05
-5.95944082546e-05
-7.33767971411e-05
-8.86668292591e-05
-0.000107623809923
-0.000135887198701
-0.000173034981552
-0.000180044575024
-9.4326535123e-05
-3.39836210372e-05
-9.60118015592e-06
-1.87179414619e-06
-2.3397214499e-07
-1.90561022763e-08
-1.05754170748e-09
-3.20813593355e-11
-8.43476310395e-13
-3.88846185804e-05
-3.84977852322e-05
-4.04867629924e-05
-4.56363832501e-05
-5.36986396425e-05
-6.33509348957e-05
-7.2696751938e-05
-8.04462318983e-05
-8.62006020223e-05
-8.74680980792e-05
-7.42133761751e-05
-3.89611985651e-05
-1.48534260358e-05
-4.16760591319e-06
-7.82465048902e-07
-9.39063980573e-08
-7.53640206139e-09
-4.13689568085e-10
-1.22240869986e-11
-3.62888688397e-13
-4.48732624817e-05
-4.34481584296e-05
-4.41431369808e-05
-4.76424701502e-05
-5.36174969956e-05
-6.07558448198e-05
-6.68947248335e-05
-6.9503176088e-05
-6.61588026204e-05
-5.52106287258e-05
-3.79373866279e-05
-1.89622625863e-05
-7.13425448118e-06
-1.91134314322e-06
-3.39664869697e-07
-3.89470649684e-08
-3.06558470106e-09
-1.63743293811e-10
-4.75275217105e-12
-1.55773249672e-13
-5.35427604663e-05
-5.12720115612e-05
-5.11104897294e-05
-5.36376840933e-05
-5.8304009463e-05
-6.35999789981e-05
-6.7106813943e-05
-6.57490978158e-05
-5.682844773e-05
-4.08118180559e-05
-2.35488160034e-05
-1.06296817664e-05
-3.68664001727e-06
-9.08192751147e-07
-1.50090274866e-07
-1.63309647686e-08
-1.25285762952e-09
-6.41744089757e-11
-1.84899425243e-12
-6.56746959568e-14
-6.52965915406e-05
-6.21472718249e-05
-6.12218387697e-05
-6.2956299034e-05
-6.6408956322e-05
-6.96123137245e-05
-6.97936029845e-05
-6.38970234086e-05
-5.03501733071e-05
-3.21381577096e-05
-1.62335446489e-05
-6.47538773346e-06
-1.98655845029e-06
-4.37906724253e-07
-6.6287213696e-08
-6.7915155756e-09
-5.04384072592e-10
-2.45164207137e-11
-7.08549007638e-13
-2.69214535452e-14
-8.04558488018e-05
-7.61227095297e-05
-7.40860304048e-05
-7.45507474275e-05
-7.60343157914e-05
-7.60059782087e-05
-7.15764208364e-05
-6.05917540927e-05
-4.35879822866e-05
-2.52607630954e-05
-1.14889501456e-05
-4.0556861065e-06
-1.08639766153e-06
-2.11393174965e-07
-2.89827540694e-08
-2.7743372175e-09
-1.98141687135e-10
-9.06487301854e-12
-2.65049531436e-13
-1.06770384757e-14
-9.88169915848e-05
-9.26902848724e-05
-8.86787976246e-05
-8.66842164174e-05
-8.46822945039e-05
-7.98491942019e-05
-6.98783206316e-05
-5.4365043634e-05
-3.58505093789e-05
-1.91238762205e-05
-7.95359609418e-06
-2.51029591996e-06
-5.90540085868e-07
-1.01365233154e-07
-1.25224890752e-08
-1.11296058595e-09
-7.58814851501e-11
-3.2428560816e-12
-9.66860473569e-14
-4.10665287126e-15
-0.000118902500102
-0.00011010636328
-0.000102814608885
-9.66912545004e-05
-8.94944844999e-05
-7.87901834395e-05
-6.36343752131e-05
-4.54624131343e-05
-2.76387240804e-05
-1.36734179259e-05
-5.24036566015e-06
-1.49663648719e-06
-3.13855754701e-07
-4.79860566974e-08
-5.34962410938e-09
-4.40054446828e-10
-2.8466501676e-11
-1.12943493329e-12
-3.46397380739e-14
-1.54528271516e-15
-0.000137045548196
-0.000124722719358
-0.000112853466941
-0.000101200562469
-8.7964537842e-05
-7.18483726409e-05
-5.34638647943e-05
-3.51997455882e-05
-1.98349231005e-05
-9.12888397919e-06
-3.23713316397e-06
-8.46220057292e-07
-1.60929128155e-07
-2.22464281584e-08
-2.25663218084e-09
-1.72264468307e-10
-1.05426262118e-11
-3.87624639898e-13
-1.23175898897e-14
-5.74498209387e-16
-0.000147185803584
-0.000131166160769
-0.000114392869238
-9.72597907323e-05
-7.90677738062e-05
-5.98902356631e-05
-4.12201405336e-05
-2.51620077423e-05
-1.31961786575e-05
-5.65467111378e-06
-1.86101905744e-06
-4.49842693873e-07
-7.87980891972e-08
-1.00111655911e-08
-9.36033030264e-10
-6.68951778859e-11
-3.87795668117e-12
-1.32584637329e-13
-4.37850387632e-15
-2.12107331267e-16
-0.000142983469473
-0.00012456950333
-0.000104533888317
-8.42337393877e-05
-6.42069737466e-05
-4.53695696318e-05
-2.91160789545e-05
-1.65910241908e-05
-8.11846153853e-06
-3.23993075415e-06
-9.92809575457e-07
-2.23787548555e-07
-3.65699608393e-08
-4.33411482531e-09
-3.78956148337e-10
-2.56782368949e-11
-1.41553638257e-12
-4.53419898671e-14
-1.55507663807e-15
-7.76356231469e-17
-0.000122579976892
-0.000104533986742
-8.46760058425e-05
-6.50469283966e-05
-4.68911570665e-05
-3.12290460512e-05
-1.88575784066e-05
-1.00822595034e-05
-4.60912387611e-06
-1.71467839237e-06
-4.90959006118e-07
-1.03901754626e-07
-1.5996393882e-08
-1.7899784894e-09
-1.48328132031e-10
-9.66130294624e-12
-5.08440042662e-13
-1.54141893873e-14
-5.47822165819e-16
-2.79782547878e-17
-9.18369196181e-05
-7.69401682629e-05
-6.05777181851e-05
-4.48048151274e-05
-3.08969565265e-05
-1.95938523285e-05
-1.12072410763e-05
-5.63800748107e-06
-2.4108362349e-06
-8.37750394931e-07
-2.24996138718e-07
-4.49521114705e-08
-6.56877727146e-09
-7.00425477473e-10
-5.5625106908e-11
-3.52720994799e-12
-1.77521827574e-13
-5.15312077892e-15
-1.8942518105e-16
-9.83745637314e-18
-6.05787431256e-05
-5.00851727251e-05
-3.86275511724e-05
-2.77748029494e-05
-1.84890056692e-05
-1.1236130203e-05
-6.10752318927e-06
-2.89598356255e-06
-1.16076741915e-06
-3.77976707264e-07
-9.56008914716e-08
-1.81156338658e-08
-2.52685015502e-09
-2.58544926073e-10
-1.9855493632e-11
-1.23877636957e-12
-5.95509363289e-14
-1.67609417934e-15
-6.36687541799e-17
-3.34757794381e-18
-3.57630579674e-05
-2.92825900607e-05
-2.22378715352e-05
-1.56316505715e-05
-1.00874934415e-05
-5.88925339452e-06
-3.0472208164e-06
-1.3649795536e-06
-5.14593570247e-07
-1.57664331756e-07
-3.77087999108e-08
-6.80509388837e-09
-9.10091367325e-10
-8.98370502032e-11
-6.72050328652e-12
-4.15914119514e-13
-1.90262480815e-14
-5.26001313375e-16
-2.06460740044e-17
-1.09553898197e-18
-1.91221674127e-05
-1.55325410011e-05
-1.16376247216e-05
-8.01075158221e-06
-5.01760883218e-06
-2.81772925552e-06
-1.39082006306e-06
-5.90591377005e-07
-2.10337672339e-07
-6.09140229901e-08
-1.3832992935e-08
-2.38626429958e-09
-3.07097666893e-10
-2.93717882484e-11
-2.15354527894e-12
-1.32945993149e-13
-5.75852467538e-15
-1.58427049719e-16
-6.42867381224e-18
-3.43486293969e-19
-9.28993458545e-06
-7.49027549221e-06
-5.53906363459e-06
-3.73560820408e-06
-2.27331342611e-06
-1.23041068754e-06
-5.8123307554e-07
-2.34978787183e-07
-7.94392598613e-08
-2.18466609639e-08
-4.72933956668e-09
-7.82490896633e-10
-9.72045632964e-11
-9.0402454905e-12
-6.53199726402e-13
-4.03538580408e-14
-1.64700145457e-15
-4.56581388536e-17
-1.91663611727e-18
-1.02929791257e-19
-4.09975974423e-06
-3.28222938094e-06
-2.39673961374e-06
-1.58518895039e-06
-9.38975046624e-07
-4.91237002588e-07
-2.22949440028e-07
-8.6202735185e-08
-2.77951780287e-08
-7.29118314997e-09
-1.51024963433e-09
-2.40394054912e-10
-2.8903142206e-11
-2.62208964085e-12
-1.87665717424e-13
-1.1613453296e-14
-4.44894537724e-16
-1.25700892302e-17
-5.46156865031e-19
-2.94355353263e-20
-1.64558068355e-06
-1.30878127251e-06
-9.44533091986e-07
-6.13606769609e-07
-3.54656292022e-07
-1.79933709038e-07
-7.87717615367e-08
-2.92554326756e-08
-9.03681080021e-09
-2.27029090924e-09
-4.51477084096e-10
-6.93219674912e-11
-8.08566310234e-12
-7.17621259802e-13
-5.11435102625e-14
-3.16599955559e-15
-1.13561374512e-16
-3.30264280852e-18
-1.48544071303e-19
-8.0223291447e-21
-6.03227454262e-07
-4.76861309951e-07
-3.40496099083e-07
-2.17639801411e-07
-1.23055890868e-07
-6.07332027779e-08
-2.57403361837e-08
-9.21824183148e-09
-2.73850598744e-09
-6.61246990884e-10
-1.26622995084e-10
-1.87979949196e-11
-2.13132297298e-12
-1.85595850044e-13
-1.32494813039e-14
-8.16880282372e-16
-2.74173470759e-17
-8.27304475402e-19
-3.84934966038e-20
-2.07911348781e-21
-2.03087762651e-07
-1.59643243201e-07
-1.12906280344e-07
-7.11169404488e-08
-3.94270209982e-08
-1.89811554076e-08
-7.81312813901e-09
-2.70707454514e-09
-7.76044638821e-10
-1.80659211247e-10
-3.33980621358e-11
-4.80342855818e-12
-5.30339631794e-13
-4.54554936906e-14
-3.27204109439e-15
-1.99051772179e-16
-6.27019102589e-18
-1.97391553595e-19
-9.48240899151e-21
-5.10490493102e-22
-6.31759168783e-08
-4.94050100305e-08
-3.46408130542e-08
-2.15325002007e-08
-1.17281891515e-08
-5.52087614953e-09
-2.21309938803e-09
-7.44001371781e-10
-2.06413565028e-10
-4.64520131811e-11
-8.30891201764e-12
-1.15969101707e-12
-1.24878119896e-13
-1.0568946159e-14
-7.71613562972e-16
-4.5611568103e-17
-1.36075052129e-18
-4.47733226482e-20
-2.21081046431e-21
-1.17842033217e-22
-1.8272627557e-08
-1.42228719586e-08
-9.89363314516e-09
-6.07736102402e-09
-3.25751122435e-09
-1.50263797016e-09
-5.87979325069e-10
-1.92288247522e-10
-5.17638528245e-11
-1.1288603561e-11
-1.95777280206e-12
-2.65581186873e-13
-2.79280154195e-14
-2.33784254431e-15
-1.72842725832e-16
-9.75030823226e-18
-2.801747173e-19
-9.58717096433e-21
-4.8266593071e-22
-2.51961312596e-23
-4.93881810417e-09
-3.8281600218e-09
-2.64403270687e-09
-1.60703326013e-09
-8.49046075073e-10
-3.84544789109e-10
-1.47204091409e-10
-4.6942150051e-11
-1.22906621303e-11
-2.6033905704e-12
-4.38590042222e-13
-5.79065455043e-14
-5.947825806e-15
-4.90648668053e-16
-3.6177864214e-17
-1.93086512016e-18
-5.43302171351e-20
-1.90363081784e-21
-9.64534374744e-23
-4.84955495132e-24
-1.25161131268e-09
-9.66682751771e-10
-6.63645240652e-10
-3.99632671645e-10
-2.08482430627e-10
-9.28959070082e-11
-3.48678112566e-11
-1.08681427978e-11
-2.77453206217e-12
-5.72161725954e-13
-9.38359557307e-14
-1.20735063262e-14
-1.20995729165e-15
-9.71160405907e-17
-6.88928842583e-18
-3.51854816415e-19
-9.75908551041e-21
-3.40409048718e-22
-1.696556606e-23
-7.98457128631e-25
-2.9828245695e-10
-2.29734302078e-10
-1.56923569454e-10
-9.37522611453e-11
-4.8374358799e-11
-2.12471950482e-11
-7.8366950261e-12
-2.39296077043e-12
-5.97108302702e-13
-1.20147506521e-13
-1.92248643147e-14
-2.41410637264e-15
-2.35903787497e-16
-1.82000155471e-17
-1.18924166331e-18
-5.85703168833e-20
-1.6039748407e-21
-5.30753068704e-23
-2.50173396802e-24
-1.05100085184e-25
-6.8795042656e-11
-5.28530763584e-11
-3.59341352543e-11
-2.13131317034e-11
-1.08854896983e-11
-4.71782774272e-12
-1.71186678348e-12
-5.1273668233e-13
-1.25212977221e-13
-2.46129968291e-14
-3.84649092012e-15
-4.71710665385e-16
-4.4978498796e-17
-3.33067852537e-18
-1.96108095511e-19
-8.84594530354e-21
-2.4273464993e-22
-7.26101327974e-24
-3.01737462125e-25
-1.05409912044e-26
-1.79950777857e-11
-1.37794905642e-11
-9.31577038864e-12
-5.47942084559e-12
-2.76747403013e-12
-1.18245171381e-12
-4.21767537803e-13
-1.23817064979e-13
-2.95726291097e-14
-5.6737017398e-15
-8.65237279946e-16
-1.03470665849e-16
-9.62291458479e-18
-6.85514157767e-19
-3.62757073803e-20
-1.31407360523e-21
-3.42311885545e-23
-9.47443838675e-25
-3.39527714893e-26
-1.04936403904e-27
-2.06472339538e-12
-2.4552442413e-13
-1.14677158773e-12
-1.58057144642e-13
-5.7343598718e-13
-9.39911803565e-14
-2.74472374487e-13
-5.12587490364e-14
-1.2891048623e-13
-2.63525843781e-14
-5.95593144978e-14
-1.29467979651e-14
-2.68299919836e-14
-6.09007804028e-15
-1.17357649666e-14
-2.7583028125e-15
-4.94465439449e-15
-1.19643377046e-15
-2.00852443328e-15
-4.98983590971e-16
-7.89962432662e-16
-2.01042261055e-16
-3.02750900277e-16
-7.86628021492e-17
-1.1443208973e-16
-3.02249334763e-17
-4.29138180397e-17
-1.14625667904e-17
-1.59126100401e-17
-4.29345965195e-18
-5.78975646445e-18
-1.57498776227e-18
-2.04966060371e-18
-5.61221146284e-19
-7.00776188158e-19
-1.92910639805e-19
-2.30089846887e-19
-6.36630866034e-20
-7.23059882844e-20
-2.01122634726e-20
-2.16968746613e-20
-6.06982967419e-21
-6.20685857027e-21
-1.74766672643e-21
-1.68873547781e-21
-4.78830737581e-22
-4.35397682527e-22
-1.24307422725e-22
-1.05671356291e-22
-3.03454863782e-23
-2.3860272387e-23
-6.87316220828e-24
-4.91593689041e-24
-1.41696266346e-24
-8.93139754003e-25
-2.56639594136e-25
-1.33984657621e-25
-3.76054188745e-26
-1.51417105847e-26
-3.94486447306e-27
-1.2080770305e-27
-2.7267114155e-28
-1.04991176289e-28
-2.05493400969e-29
)
;

boundaryField
{
    inletfuel
    {
        type            calculated;
        value           nonuniform 0();
    }
    inletair
    {
        type            calculated;
        value           nonuniform 0();
    }
    outlet
    {
        type            calculated;
        value           uniform 0;
    }
    axis
    {
        type            empty;
    }
    leftside
    {
        type            calculated;
        value           uniform 0;
    }
    burnerwall
    {
        type            calculated;
        value           nonuniform 0();
    }
    front
    {
        type            wedge;
    }
    back
    {
        type            wedge;
    }
    procBoundary1to0
    {
        type            processor;
        value           uniform 0;
    }
}


// ************************************************************************* //
