/*--------------------------------*- C++ -*----------------------------------*\
  =========                 |
  \\      /  F ield         | OpenFOAM: The Open Source CFD Toolbox
   \\    /   O peration     | Website:  https://openfoam.org
    \\  /    A nd           | Version:  7
     \\/     M anipulation  |
\*---------------------------------------------------------------------------*/
FoamFile
{
    version     2.0;
    format      ascii;
    class       volScalarField;
    location    "0.02";
    object      epsilon;
}
// * * * * * * * * * * * * * * * * * * * * * * * * * * * * * * * * * * * * * //

dimensions      [0 2 -3 0 0 0 0];

internalField   nonuniform List<scalar> 
815
(
192.866888962
195.200748413
200.323668037
173.214203196
174.942544597
178.864389476
155.255833445
156.604375645
159.743216138
138.706421543
139.778431658
142.3440589
123.031079644
123.918148458
126.072736975
108.138352877
108.885142958
110.721204453
93.882164226
94.5439459978
96.1521378896
80.3364609432
80.9194161463
82.3228393931
67.5077130436
68.0317166503
69.2568890461
55.5784206038
56.0261858284
57.0576739167
44.6949886824
45.063567684
45.8959469593
35.0870451107
35.3677240883
35.9934358714
26.9364835719
27.1307110944
27.5625212223
20.3631934905
20.4817393287
20.7507647299
15.3747263165
15.4359287571
15.5836499453
11.8551422211
11.8791170518
11.9482301194
9.56899169031
9.5730624
9.59746916531
8.22136508896
8.21599175611
8.21796808135
7.51256961402
7.50330823284
7.49503293399
7.18974903389
7.17887902809
7.16584093137
7.07115539312
7.05953803049
7.0440955659
7.04730687946
7.03504287158
7.01788846624
7.06163616978
7.04876567417
7.03032151647
7.08969371487
7.07623217696
7.05643264999
7.12116623693
7.10694428107
7.08582958946
7.14838147592
7.13352056336
7.11155695741
7.16587283535
7.15042187531
7.1276981314
7.17034290637
7.15433514245
7.13065237553
7.18559630432
7.16917739281
7.14455077951
7.5052580261
7.48815201591
7.46300190648
10.3169546615
10.3016971679
10.2784436627
205.876648901
182.96751973
162.880475928
144.784281362
128.031906491
112.347096278
97.5572134517
83.5572305818
70.3451029922
57.9883492448
46.6545791557
36.5680929263
27.9602490002
20.9978459584
15.7191210478
12.0123387457
9.62199595289
8.22347814113
7.49233357116
7.15952936926
7.03597139623
7.00855318806
7.02004667721
7.04528567301
7.07370988952
7.09888124644
7.11464550884
7.11702236367
7.13033536382
7.44861775117
10.2662969016
10.6724017898
8.0745078734
7.57531654586
7.59728565478
9.50121928497
29.9915636007
208.977266487
214.590728841
224.463371501
233.664763211
246.571035144
263.721114326
277.026141654
273.367106966
244.180911189
195.552178809
141.348962432
87.7992089411
35.2690761538
14.9309500772
9.16107710108
7.78834079695
7.50539479442
7.70156307978
10.5203090962
36.8262347509
261.722600818
188.935910641
193.720214881
195.332701597
197.365870268
201.668554286
203.92834277
195.215783835
169.441994871
130.184818573
87.9112295817
49.8144195096
21.7910540442
11.5311340111
8.37783874728
7.62879182681
7.47093322199
7.87094036505
11.8076780923
44.7918077956
316.897394542
166.986991253
168.262239186
164.815487995
159.726907171
155.568501257
150.710297207
139.590761395
118.077983738
88.2179599285
57.2634785667
31.2544601832
15.5602046528
9.82426825077
7.98333176404
7.53917985496
7.46592493102
8.11090752815
13.3840061163
54.1650611508
372.782325247
147.582320459
146.606673598
140.125959952
130.843270145
121.709834352
112.774862312
100.89494573
83.307032848
61.105696332
39.096106637
21.778033199
12.4346429677
8.91962967685
7.77332854186
7.48248797258
7.48084219047
8.42114639526
15.2797766075
65.3430575114
429.522414106
129.993348445
127.769978517
119.793902771
108.466968587
96.8464825479
85.9509554098
74.2520848173
59.9341016923
43.4933244545
28.0020339773
16.5492873248
10.6714696055
8.39112682295
7.64132022867
7.43648773148
7.50690934279
8.79577341794
17.5273955046
78.8352628193
488.130118238
113.813607827
111.076917285
102.695847607
90.8115366929
78.3902436587
66.9366861182
55.9228182679
44.2072949796
31.940751603
21.0208311592
13.3982575743
9.56115102872
8.04594509932
7.53882518247
7.39020375075
7.53802653498
9.22609234665
20.1614018406
95.1733480984
549.609113962
98.7624619328
95.9940681161
87.9233346724
76.4501636984
64.3221150688
53.2075918094
43.1497660616
33.489572762
24.2240033645
16.4793473068
11.3573518263
8.81186374293
7.79943063667
7.44689536955
7.34022906095
7.57079547747
9.70530857261
23.2299130001
114.839929484
614.14515159
84.6282813281
82.1165808091
74.793214391
64.3226093372
53.1621162243
42.942144811
34.0014957747
26.0196895265
18.9594404715
13.444064545
9.98255978785
8.29034778943
7.61209452187
7.35958522029
7.28707449359
7.60412974741
10.2327343453
26.7983332534
138.208071035
681.137930714
71.3258933535
69.197976997
62.8510801838
53.7083071451
43.8974243722
34.9003112273
27.1865689222
20.6592478705
15.2913361664
11.3763210337
9.03997850701
7.91998866172
7.46212796307
7.27567288928
7.23280916259
7.6397958503
10.8173993997
30.9850159715
165.648563355
749.70157777
58.8678284151
57.1518986594
51.8674330849
44.1973575806
35.922890998
28.3265026324
21.9094834569
16.7046797428
12.6912503422
9.94823201776
8.38524474938
7.64874482526
7.33597890829
7.1955809197
7.18020107167
7.68208573213
11.4846728338
36.0385381037
197.382274638
818.818983928
47.3965343187
46.0553581474
41.8229769708
35.6467126833
28.9613907687
22.8308526634
17.7255966181
13.7339541569
10.8249899845
8.94906753824
7.92151672442
7.4416081524
7.22619790809
7.1209689875
7.13251226579
7.73956878888
12.2798162784
42.1637839596
233.577070998
887.725590213
37.1406625486
36.1151864392
32.863084301
28.1106431325
22.9629671097
18.2629136998
14.4107997962
11.5007494406
9.48182322835
8.24385050642
7.58611191849
7.27827584097
7.1305832947
7.05460523069
7.09393305272
7.82463123288
13.2538152148
49.5695848747
274.429501609
956.067683472
28.3562580863
27.5890531997
25.2059955912
21.7346715677
17.9833905365
14.5859396867
11.8524609793
9.85422074693
8.52720867714
7.74750665548
7.34165967497
7.14940146774
7.05034242337
6.99976980149
7.06882152291
7.95043941509
14.4646102208
58.4903145847
320.069858921
1023.99423589
21.2380982166
20.6817576578
19.0293363355
16.6415587358
14.0767554721
11.7797523446
9.9692671434
8.68827163083
7.86968446928
7.40589240288
7.16681896314
7.05153632531
6.98774940616
6.95913054683
7.06113456969
8.13221918739
15.9804905226
69.2004967874
370.736179715
1092.06577068
15.8431753686
15.4598386417
14.3876535105
12.854909562
11.2218627593
9.78034133174
8.66963846982
7.90897804391
7.43898795879
7.18120794486
7.04801510371
6.98291130479
6.94410350642
6.9341771873
7.07436949558
8.38735959677
17.8793231902
82.0129493129
426.812824238
1161.34716346
12.0635967672
11.8165923935
11.1701615329
10.2592378976
9.29956121577
8.46694491778
7.84044345357
7.42540770375
7.17624213966
7.04404809909
6.97439865578
6.9407886743
6.91879203813
6.92483289597
7.11159827069
8.73567418055
20.2550578172
97.3657414554
489.225540333
1233.06417131
9.63535020631
9.48956668235
9.13210094703
8.63609694983
8.12000370095
7.6809278293
7.35836626585
7.15220944694
7.03115358318
6.96976610475
6.93567586502
6.92076548282
6.90942492973
6.92975712825
7.17569923389
9.19825496809
23.2128671391
115.774090508
559.24979602
1308.73860332
8.22124614803
8.14384859449
7.96473941398
7.7198037759
7.46803228958
7.258550638
7.10814413029
7.01617762961
6.96264813533
6.93782430199
6.92203887838
6.91749254563
6.91262120489
6.94710805487
7.26999077617
9.79996190898
26.895862611
138.007490001
638.953291185
1390.22419979
7.48508667716
7.44823963042
7.36792644522
7.2595555762
7.14928673232
7.06004797561
6.99716769497
6.96132873994
6.93986859817
6.93217048495
6.92491650715
6.92570343139
6.92485654828
6.97519702853
7.39876160452
10.5700496558
31.482751885
165.030873879
730.737071481
1479.61447987
7.15064187281
7.13433019318
7.10248401797
7.06028600112
7.01755428053
6.98444051599
6.96116752699
6.94986126231
6.94190231637
6.94134401497
6.93757595182
6.94092801225
6.94310489791
7.01311804384
7.56879350418
11.5520763999
37.2600507118
198.334599456
838.020422673
1579.88313884
7.02609572891
7.01832844889
7.00718042325
6.99321125959
6.97891769901
6.96888500913
6.9613191373
6.95934722616
6.95625064246
6.95822262636
6.95558870652
6.9601403531
6.96548230469
7.06158761492
7.79207880536
12.8174985699
44.6855534342
240.084059587
964.905499182
1694.51316149
6.9976363079
6.99245980615
6.98876351422
6.98517888228
6.98126217914
6.97942165576
6.97716620893
6.97817234817
6.97647099894
6.97913510882
6.97672391597
6.98198564895
6.99164003498
7.12391305529
8.09056901817
14.4922542578
54.5280366026
293.566944736
1117.00861123
1828.40040405
7.00811126034
7.00313853841
7.00145681853
7.000939772
7.00010420423
7.00058017839
6.99969568762
7.00136119749
6.99988258476
7.00261721201
7.00020616182
7.00625463361
7.02252334109
7.20694430082
8.50368540678
16.8044784178
68.1124254345
363.758031015
1301.10397565
1986.50356122
7.03239238585
7.0269255244
7.0254332206
7.02545636482
7.02523811568
7.02608318156
7.02539184054
7.02704238016
7.0255605428
7.02823219466
7.02592292995
7.03324066101
7.05992025909
7.32085662269
9.08939689543
20.0930695327
87.3315688282
457.103064161
1524.12291895
2173.48437978
7.05975097758
7.05368418441
7.05199711326
7.05191982876
7.05175561066
7.05255379872
7.05193885397
7.0535715129
7.05227818575
7.05507246534
7.05324267205
7.06273031671
7.10510853595
7.47547968122
9.91208814783
24.7731763754
114.467339375
579.869737126
1789.35300723
2389.29452915
7.08426783942
7.07778351092
7.07590884554
7.07573467781
7.0755970216
7.07639463066
7.07599472549
7.07774961503
7.07693359505
7.08004495327
7.07916791726
7.09148207229
7.15336704827
7.6549075919
10.8978150687
30.5272114468
148.445250519
728.222431271
2085.08140467
2620.41829218
7.0996114979
7.09283833402
7.09086330831
7.09064817453
7.09066310004
7.09148550086
7.09147076979
7.09342453955
7.09324211969
7.09689131552
7.09696718184
7.11187310752
7.18829167001
7.7924582375
11.6864006612
35.3086898057
178.524546088
869.70351253
2370.60948176
2814.78813998
7.10136242124
7.09423087839
7.09216913921
7.09190364
7.0920255297
7.09283780401
7.09305211523
7.09511791616
7.09526024741
7.09920584634
7.09950151334
7.11385156333
7.18402642375
7.75505668763
11.5160800695
35.1803002738
186.478974144
946.477590037
2564.7569732
2853.30386705
7.11394142478
7.10644489766
7.10422051881
7.10391794759
7.1039171381
7.10467428241
7.10478648318
7.10668295305
7.10677377307
7.11030498671
7.11026666533
7.12043351439
7.16593747085
7.56600080129
10.3033837225
28.2975437313
155.412338059
884.522900052
2534.26165426
2588.16821612
7.43238320257
7.42526745333
7.42314763003
7.42292785097
7.42284110796
7.42359230223
7.42361440627
7.42537489799
7.42547975162
7.42862732486
7.42868854455
7.4352736664
7.45900737095
7.68579557062
9.30546303397
20.1453410301
102.685734782
671.407647838
2165.59826695
1984.63447146
10.2541044766
10.2504527795
10.2496859028
10.2507690226
10.251533418
10.2537881076
10.2555155962
10.2593257034
10.2629953551
10.2686243583
10.2759646879
10.284059086
10.3118328436
10.4387640573
11.3596943951
17.2520551727
61.649969167
424.606662139
1508.35010137
1164.36369307
418.184973148
563.073225882
493.52651906
666.866533228
558.1508073
770.442035591
610.073420145
862.888546723
652.513055032
944.598224684
690.5656218
1020.50657984
728.698587943
1095.97120621
769.665196613
1175.308154
814.818102245
1259.12987992
863.857105794
1347.50967615
916.092105279
1439.04692713
970.455372432
1531.88042585
1026.28303395
1624.98551599
1083.29671121
1718.20828488
1142.18158211
1813.71356622
1203.39218307
1912.06233923
1267.56932876
2014.36593526
1335.82769401
2122.32564962
1409.28485977
2238.87171542
1490.07148749
2367.82331559
1579.82457952
2513.65109109
1680.88847632
2681.70579006
1794.56218989
2875.48643635
1921.44314835
3096.01843358
2059.44842197
3339.67657159
2199.46116064
3593.32192862
2316.03730983
3824.48200341
2345.79548878
3941.46360699
2184.27796369
3766.43887592
1767.92278423
3193.30407546
1187.76704442
2365.17235555
631.688609986
1493.69568682
)
;

boundaryField
{
    inletfuel
    {
        type            turbulentMixingLengthDissipationRateInlet;
        mixingLength    0.005;
        phi             phi;
        k               k;
        value           nonuniform 0();
    }
    inletair
    {
        type            turbulentMixingLengthDissipationRateInlet;
        mixingLength    0.005;
        phi             phi;
        k               k;
        value           nonuniform 0();
    }
    outlet
    {
        type            inletOutlet;
        inletValue      uniform 200;
        value           nonuniform List<scalar> 
26
(
10.3169546615
10.3016971679
10.2784436627
10.2662969016
10.2541044766
10.2504527795
10.2496859028
10.2507690226
10.251533418
10.2537881076
10.2555155962
10.2593257034
10.2629953551
10.2686243583
10.2759646879
10.284059086
10.3118328436
10.4387640573
11.3596943951
17.2520551727
61.649969167
424.606662139
200
200
200
200
)
;
    }
    axis
    {
        type            empty;
    }
    leftside
    {
        type            epsilonWallFunction;
        value           nonuniform List<scalar> 
32
(
563.073225882
666.866533228
770.442035591
862.888546723
944.598224684
1020.50657984
1095.97120621
1175.308154
1259.12987992
1347.50967615
1439.04692713
1531.88042585
1624.98551599
1718.20828488
1813.71356622
1912.06233923
2014.36593526
2122.32564962
2238.87171542
2367.82331559
2513.65109109
2681.70579006
2875.48643635
3096.01843358
3339.67657159
3593.32192862
3824.48200341
3941.46360699
3766.43887592
3193.30407546
2365.17235555
1493.69568682
)
;
    }
    burnerwall
    {
        type            epsilonWallFunction;
        value           nonuniform 0();
    }
    front
    {
        type            wedge;
    }
    back
    {
        type            wedge;
    }
    procBoundary1to0
    {
        type            processor;
        value           nonuniform List<scalar> 
27
(
212.952344825
215.968214709
222.498715582
229.947947974
13.3635738944
8.55726957395
7.67730397328
7.54391279019
8.72743019675
24.1045915889
161.408956126
242.626639875
261.02495088
282.504340388
311.055201392
345.929911654
374.765750038
380.160014656
351.475269148
299.111929186
238.02672093
164.78841751
65.2876058375
21.7675617381
21.7675617381
340.550596773
473.119877122
)
;
    }
}


// ************************************************************************* //
