/*--------------------------------*- C++ -*----------------------------------*\
  =========                 |
  \\      /  F ield         | OpenFOAM: The Open Source CFD Toolbox
   \\    /   O peration     | Website:  https://openfoam.org
    \\  /    A nd           | Version:  7
     \\/     M anipulation  |
\*---------------------------------------------------------------------------*/
FoamFile
{
    version     2.0;
    format      ascii;
    class       volScalarField;
    location    "0.02";
    object      H2;
}
// * * * * * * * * * * * * * * * * * * * * * * * * * * * * * * * * * * * * * //

dimensions      [0 0 0 0 0 0 0];

internalField   nonuniform List<scalar> 
815
(
1.49732401026e-07
1.51124245237e-07
1.54520233219e-07
1.45130215113e-07
1.45256150571e-07
1.458757157e-07
1.4935630659e-07
1.4855028698e-07
1.47134533455e-07
1.6124514348e-07
1.59709796335e-07
1.56716221201e-07
1.81003409197e-07
1.78834609015e-07
1.74492374811e-07
2.09760121947e-07
2.06965163746e-07
2.01315980142e-07
2.49499586326e-07
2.45999291425e-07
2.38904533455e-07
3.02780432706e-07
2.9841053924e-07
2.89559055155e-07
3.7216631648e-07
3.66693826879e-07
3.55629616649e-07
4.5872666626e-07
4.51887056788e-07
4.38075055457e-07
5.59297680759e-07
5.5085725158e-07
5.3382356081e-07
6.62170840293e-07
6.52093784936e-07
6.31734165576e-07
7.43851711216e-07
7.32500412665e-07
7.09477075902e-07
7.72447410847e-07
7.60708369083e-07
7.36744802285e-07
7.23427726654e-07
7.12515587598e-07
6.90087912971e-07
6.00137713021e-07
5.91122380006e-07
5.72531130569e-07
4.36944375558e-07
4.30372249091e-07
4.16789731752e-07
2.78865311849e-07
2.74632702605e-07
2.65880753957e-07
1.56735355866e-07
1.5432046746e-07
1.49331608772e-07
7.81954534926e-08
7.69671132561e-08
7.44361990672e-08
3.49447151906e-08
3.43824058328e-08
3.32306885272e-08
1.41016303611e-08
1.38706552989e-08
1.3398355738e-08
5.1811416003e-09
5.09480572148e-09
4.91890034291e-09
1.74578776137e-09
1.71624526048e-09
1.65636204275e-09
5.43414798741e-10
5.34092972837e-10
5.15241775735e-10
1.57475680118e-10
1.54719031307e-10
1.49154850884e-10
4.26496100881e-11
4.188946929e-11
4.03588370591e-11
1.0819897574e-11
1.06241333383e-11
1.02338630359e-11
2.57212922675e-12
2.52517518193e-12
2.43247842549e-12
5.70067067391e-13
5.59633032576e-13
5.39088533034e-13
1.15316847986e-13
1.13164685779e-13
1.08982789339e-13
1.60063306186e-07
1.4756380576e-07
1.4601016287e-07
1.53442529641e-07
1.69433212696e-07
1.94586583128e-07
2.30383327172e-07
2.78903529847e-07
3.42294085223e-07
4.21385102857e-07
5.13119468753e-07
6.06730632223e-07
6.80796372554e-07
7.06387742206e-07
6.61205829073e-07
5.48255083302e-07
3.98881793496e-07
2.54276836822e-07
1.42697560951e-07
7.10656330885e-08
3.16953646397e-08
1.27686996498e-08
4.68421444845e-09
1.57632048673e-09
4.90036730192e-10
1.4172992515e-10
3.83212579119e-11
9.7145563668e-12
2.30921344299e-12
5.11797681412e-13
1.03429254684e-13
2.12821072239e-06
4.90698743265e-07
7.33201093326e-08
6.46496233589e-09
3.02629686658e-10
6.39342961276e-12
8.16982814228e-14
1.73890927195e-07
2.13299435146e-07
2.8277603229e-07
3.87911210799e-07
5.41316699358e-07
8.01510010272e-07
1.35316211593e-06
2.62544425112e-06
5.33395468037e-06
9.95200168611e-06
1.37845864445e-05
8.34635008141e-06
3.00193860463e-06
9.46167734542e-07
2.08768619811e-07
2.96567522843e-08
2.49360873244e-09
1.1082740656e-10
2.26907117408e-12
3.25440768173e-14
1.53065551702e-07
1.74774575259e-07
2.18440064433e-07
2.86568806104e-07
3.78013710313e-07
5.03416060918e-07
7.1940295862e-07
1.17361283942e-06
2.12435834216e-06
3.7688637045e-06
5.22561455531e-06
3.27998828873e-06
1.26519900487e-06
3.94671100327e-07
8.36124575743e-08
1.13129431123e-08
9.10959081224e-10
3.86278910103e-11
7.79141454116e-13
1.29461305755e-14
1.45514585901e-07
1.54684752413e-07
1.80401993619e-07
2.24688173784e-07
2.83618597598e-07
3.5305216938e-07
4.44617889086e-07
6.04495733774e-07
9.20860404143e-07
1.46769380114e-06
1.96909954229e-06
1.27498986497e-06
5.21183980302e-07
1.60585882838e-07
3.28078707742e-08
4.23869734955e-09
3.28060520957e-10
1.33301882106e-11
2.68997281511e-13
5.29035792564e-15
1.48485508551e-07
1.48734290999e-07
1.61984101517e-07
1.90201580894e-07
2.29795256035e-07
2.73561011155e-07
3.18787097503e-07
3.7690564722e-07
4.76232055799e-07
6.40847679092e-07
7.79837699514e-07
5.14154672319e-07
2.20045695391e-07
6.66467365006e-08
1.31330763598e-08
1.6223189272e-09
1.20727365362e-10
4.70159100444e-12
9.6139807161e-14
2.22822426194e-15
1.60929244799e-07
1.54753783275e-07
1.59631209978e-07
1.77375193389e-07
2.05054657918e-07
2.35831017294e-07
2.63246636318e-07
2.86966027498e-07
3.13992010061e-07
3.48673077729e-07
3.56797207761e-07
2.30259134318e-07
9.94057848153e-08
2.90804959771e-08
5.48308040128e-09
6.46102550875e-10
4.60407312348e-11
1.70994987861e-12
3.58045011092e-14
9.56269527152e-16
1.82927498047e-07
1.71879522858e-07
1.71348000857e-07
1.82898826942e-07
2.03812134452e-07
2.27917329888e-07
2.47959472209e-07
2.58962139901e-07
2.58778259341e-07
2.43631826764e-07
2.02111342946e-07
1.19177239534e-07
4.8735740176e-08
1.33710660146e-08
2.37700472784e-09
2.65632896914e-10
1.79977868954e-11
6.3293755232e-13
1.36967497736e-14
4.10409260465e-16
2.15480660161e-07
2.00225685356e-07
1.96127422577e-07
2.04458780759e-07
2.22119312929e-07
2.42816806738e-07
2.58497860921e-07
2.61213682088e-07
2.43821112799e-07
2.00945381376e-07
1.37055513414e-07
6.98036239813e-08
2.54973372297e-08
6.36249334954e-09
1.04915028785e-09
1.10346836722e-10
7.05344145177e-12
2.33571337848e-13
5.26856818219e-15
1.73069512269e-16
2.60218634576e-07
2.40563168145e-07
2.33517782184e-07
2.39949026562e-07
2.55726046727e-07
2.73329312772e-07
2.83028180006e-07
2.74421183572e-07
2.38750546487e-07
1.75030856584e-07
1.01154797408e-07
4.37648190071e-08
1.38370366383e-08
3.07089168362e-09
4.62947343644e-10
4.54483824234e-11
2.71941367337e-12
8.46138013328e-14
2.0026213697e-15
7.09112761375e-17
3.18858183804e-07
2.93687149611e-07
2.82883060583e-07
2.86601180638e-07
2.98956004235e-07
3.10233329708e-07
3.08644799721e-07
2.82991024094e-07
2.27402161177e-07
1.49410171219e-07
7.50841123261e-08
2.7889577413e-08
7.59708963582e-09
1.48372651676e-09
2.02275807398e-10
1.83816043762e-11
1.0219276012e-12
2.98579396365e-14
7.44319961582e-16
2.80817308136e-17
3.91895288951e-07
3.59117919223e-07
3.42056940514e-07
3.39724501568e-07
3.43893881395e-07
3.42446878239e-07
3.2270148638e-07
2.75955047062e-07
2.03231176447e-07
1.20281827256e-07
5.35877199111e-08
1.74316869732e-08
4.13921619846e-09
7.12076118251e-10
8.73417271127e-11
7.29689462229e-12
3.73751661568e-13
1.0245093156e-14
2.69950803943e-16
1.07759231925e-17
4.7615874929e-07
4.32845788852e-07
4.05346770843e-07
3.9128197796e-07
3.80192877095e-07
3.58744572927e-07
3.16115204365e-07
2.49474159778e-07
1.67600647108e-07
8.97424024865e-08
3.59603300022e-08
1.04495891535e-08
2.20340801256e-09
3.37374968687e-10
3.72837739129e-11
2.85144723693e-12
1.33524940832e-13
3.43858244606e-15
9.61641974103e-17
4.0438446562e-18
5.61370653073e-07
5.04505262465e-07
4.61596123466e-07
4.29313856539e-07
3.96322515373e-07
3.50611590983e-07
2.86163931373e-07
2.07063875104e-07
1.2665849765e-07
6.16206253514e-08
2.24544187169e-08
5.92765098919e-09
1.13123063886e-09
1.56513961982e-10
1.57082251221e-11
1.10068530479e-12
4.69298422314e-14
1.14231692587e-15
3.39942156716e-17
1.49928894348e-18
6.27646217457e-07
5.55983732046e-07
4.94365212553e-07
4.39939220572e-07
3.82955213914e-07
3.15428912284e-07
2.37224516695e-07
1.56966778163e-07
8.7492885553e-08
3.88568727822e-08
1.29917447981e-08
3.15778912584e-09
5.54448627065e-10
7.04585806032e-11
6.50250998178e-12
4.20053896298e-13
1.63234804146e-14
3.79740954434e-16
1.20107074813e-17
5.52173969857e-19
6.48723019062e-07
5.6538727268e-07
4.86987512428e-07
4.13044260115e-07
3.37793620234e-07
2.58389205732e-07
1.78896676328e-07
1.08370962807e-07
5.52244948952e-08
2.25083119549e-08
6.95714454203e-09
1.57309083689e-09
2.57474746038e-10
3.05001316323e-11
2.62421400189e-12
1.5773641328e-13
5.61624967234e-15
1.26667697756e-16
4.23919304442e-18
2.01705639373e-19
6.04935901311e-07
5.18620972834e-07
4.3253650485e-07
3.49573231453e-07
2.68700299576e-07
1.91161983317e-07
1.22184747092e-07
6.80411593137e-08
3.18614123006e-08
1.19870531816e-08
3.44759899654e-09
7.30863305254e-10
1.1263688984e-10
1.25874832488e-11
1.02228551407e-12
5.77222649023e-14
1.89727963383e-15
4.21318968977e-17
1.48386223459e-18
7.25875129854e-20
4.99886655664e-07
4.22025192885e-07
3.41431576154e-07
2.63648133523e-07
1.91168296542e-07
1.27078356448e-07
7.53975773808e-08
3.88330661648e-08
1.68154180929e-08
5.87477193369e-09
1.58125060382e-09
3.16198446722e-10
4.62329523081e-11
4.91863750189e-12
3.80786594644e-13
2.03557053375e-14
6.2257482042e-16
1.38171814425e-17
5.09719138745e-19
2.55017857449e-20
3.62543960444e-07
3.01901562502e-07
2.3769474899e-07
1.76185716348e-07
1.21205204414e-07
7.57772667931e-08
4.20284163666e-08
2.01641254592e-08
8.12936753797e-09
2.65315977051e-09
6.71759327529e-10
1.27345884843e-10
1.77674388364e-11
1.81173031537e-12
1.3466996051e-13
6.85324653589e-15
1.96496635884e-16
4.41856622127e-18
1.70166357725e-19
8.67591622214e-21
2.304155206e-07
1.8959657711e-07
1.45814769379e-07
1.04316659399e-07
6.85371697743e-08
4.05933362185e-08
2.12046042763e-08
9.54670323943e-09
3.60771687616e-09
1.1062654979e-09
2.64728943803e-10
4.77815554317e-11
6.39007459162e-12
6.27697090366e-13
4.502569005e-14
2.18839071639e-15
5.92278944031e-17
1.36582814159e-18
5.47922563496e-20
2.84011545289e-21
1.28934443221e-07
1.05005710516e-07
7.91692361088e-08
5.49563406088e-08
3.47065732309e-08
1.96113867871e-08
9.71772646385e-09
4.1341823348e-09
1.47371476332e-09
4.26890617894e-10
9.69758031307e-11
1.67290625933e-11
2.15231708208e-12
2.04454602008e-13
1.42012736895e-14
6.60210897615e-16
1.69815025072e-17
4.05799296246e-19
1.69357656754e-20
8.91066504157e-22
6.40373610166e-08
5.16904249404e-08
3.83230265307e-08
2.59325269912e-08
1.58319989597e-08
8.58846523834e-09
4.0627395272e-09
1.64339667017e-09
5.55785928828e-10
1.5285338971e-10
3.30988315832e-11
5.47594676548e-12
6.79828795408e-13
6.2633802117e-14
4.22166023899e-15
1.87757296404e-16
4.62266261272e-18
1.1548335814e-19
5.00999858528e-21
2.67254406591e-22
2.84881730466e-08
2.28176411772e-08
1.66763666862e-08
1.10420846054e-08
6.54777517412e-09
3.42797493195e-09
1.55652647108e-09
6.01905956451e-10
1.94120240394e-10
5.09211051165e-11
1.05503592181e-11
1.67910996936e-12
2.01666983343e-13
1.80605068436e-14
1.18249345945e-15
5.02655984935e-17
1.19402599676e-18
3.14125102069e-20
1.41578713562e-21
7.64864228713e-23
1.14512998332e-08
9.10968205381e-09
6.57603045282e-09
4.27336647916e-09
2.47074843318e-09
1.25374859212e-09
5.48971446015e-10
2.03889071708e-10
6.29920521163e-11
1.58252068007e-11
3.14790857748e-12
4.83233258984e-13
5.62659683103e-14
4.90592881734e-15
3.12019382247e-16
1.26531711207e-17
2.92643117352e-19
8.15495287744e-21
3.81586828978e-22
2.0848085634e-23
4.19291573126e-09
3.31523967918e-09
2.36739910787e-09
1.51330758392e-09
8.55734751974e-10
4.22358408693e-10
1.79030000533e-10
6.41155777519e-11
1.905093056e-11
4.6000929905e-12
8.81111815519e-13
1.30759796435e-13
1.47849956291e-14
1.25627975165e-15
7.75237914994e-17
2.99047069454e-18
6.8062520641e-20
2.01754445639e-21
9.78893166215e-23
5.39594653639e-24
1.40876107161e-09
1.10765266804e-09
7.83428448837e-10
4.93476150753e-10
2.73602359829e-10
1.31723147778e-10
5.42280197228e-11
1.87893061467e-11
5.38754009102e-12
1.25420897087e-12
2.31921228334e-13
3.33373843035e-14
3.66513555337e-15
3.03592968954e-16
1.81346776805e-17
6.63053367645e-19
1.50373011747e-20
4.74947867352e-22
2.38335071442e-23
1.31968368249e-24
4.37300333342e-10
3.42068603717e-10
2.39862857736e-10
1.49102478406e-10
8.12185220558e-11
3.82341115072e-11
1.53287233349e-11
5.15342408008e-12
1.43005710415e-12
3.21829655178e-13
5.75781059542e-14
8.02948733356e-15
8.59101807664e-16
6.93489559098e-17
3.99585515059e-18
1.38015467263e-19
3.16097943377e-21
1.06124794672e-22
5.4786678814e-24
3.0227909274e-25
1.2624279511e-10
9.82918113474e-11
6.83790937828e-11
4.20051767572e-11
2.25169353869e-11
1.03872496772e-11
4.06508121062e-12
1.32947089309e-12
3.5796400923e-13
7.80649637354e-14
1.35407049032e-14
1.83463734503e-15
1.91194914467e-16
1.50358943625e-17
8.33223110607e-19
2.71444624031e-20
6.3291362359e-22
2.23379897056e-23
1.17477942422e-24
6.38525858226e-26
3.40748568119e-11
2.64199825981e-11
1.82494984087e-11
1.10925821332e-11
5.86104274965e-12
2.65471012913e-12
1.01635910235e-12
3.24123253466e-13
8.48791169559e-14
1.79788611204e-14
3.02915505476e-15
3.99339172862e-16
4.05711620623e-17
3.10824612026e-18
1.65577418236e-19
5.0923381096e-21
1.20048785115e-22
4.34704594863e-24
2.29110797654e-25
1.21033952539e-26
8.62856912411e-12
6.66642952934e-12
4.57709689809e-12
2.75640242074e-12
1.43809656489e-12
6.40835257191e-13
2.40564393488e-13
7.49868379553e-14
1.91468214705e-14
3.94842517684e-15
6.47620592779e-16
8.32123954483e-17
8.25467931988e-18
6.17355841315e-19
3.17733413908e-20
9.21109339252e-22
2.12131331898e-23
7.57940840438e-25
3.89772425131e-26
1.96191982465e-27
2.04966668775e-12
1.57916149843e-12
1.07879039634e-12
6.44557068404e-13
3.32612176605e-13
1.46103850133e-13
5.38960802148e-14
1.64585758676e-14
4.10766173351e-15
8.26554600048e-16
1.32280810514e-16
1.65966105182e-17
1.61072515906e-18
1.18050167477e-19
5.94042348364e-21
1.63887140508e-22
3.46944851958e-24
1.14648701109e-25
5.50380264102e-27
2.54940698167e-28
4.53915994779e-13
3.48808751172e-13
2.37168753043e-13
1.40676808528e-13
7.18569738208e-14
3.11458671188e-14
1.13030379099e-14
3.38575388872e-15
8.26976465824e-16
1.6256743717e-16
2.54104441474e-17
3.11499648697e-18
2.95964868595e-19
2.12952741756e-20
1.06076545561e-21
2.86683086047e-23
5.36556817659e-25
1.52421877926e-26
6.32244828379e-28
2.53699715995e-29
9.16077251252e-14
7.01329512301e-14
4.74108117331e-14
2.78853121443e-14
1.40845426208e-14
6.01780844009e-15
2.14655470204e-15
6.30135311627e-16
1.50493688112e-16
2.88712357441e-17
4.40150828728e-18
5.26229191597e-19
4.8827924856e-20
3.4409608328e-21
1.69969718599e-22
4.66265155583e-24
8.13021062054e-26
1.96190970977e-27
6.84073364204e-29
2.54301983287e-30
4.05732379145e-15
2.46036298307e-16
2.13811413761e-15
1.43942178585e-16
1.02293000314e-15
7.87114109904e-17
4.74355889423e-16
4.0131038913e-17
2.18101612656e-16
1.95539694324e-17
9.93467347475e-17
9.18860904856e-18
4.42871954444e-17
4.15678750682e-18
1.92035338277e-17
1.81646011854e-18
8.02035546316e-18
7.62171935348e-19
3.2283657403e-18
3.0825209681e-19
1.25756663855e-18
1.20766390506e-19
4.77180355993e-19
4.6082317526e-20
1.78618314956e-19
1.73196774018e-20
6.6395740614e-20
6.44288323964e-21
2.44162597974e-20
2.37230984476e-21
8.81788726529e-21
8.57145034818e-22
3.10115690665e-21
3.0134456127e-22
1.05426733978e-21
1.02334251179e-22
3.44558373112e-22
3.33954395933e-23
1.07857626387e-22
1.04374657931e-23
3.22641743502e-23
3.11655498754e-24
9.2063811986e-24
8.87562973737e-25
2.50053494132e-24
2.40480564029e-25
6.44122013997e-25
6.17598229824e-26
1.56420980171e-25
1.49364866388e-26
3.54238309005e-26
3.36280787673e-27
7.36169460171e-27
6.93383554164e-28
1.36496366735e-27
1.27185646119e-28
2.12764347018e-28
1.93587395629e-29
2.55182338487e-29
2.19238935484e-30
2.20046356169e-30
1.70703189312e-31
2.13167313368e-31
1.52247161219e-32
)
;

boundaryField
{
    inletfuel
    {
        type            fixedValue;
        value           nonuniform 0();
    }
    inletair
    {
        type            fixedValue;
        value           nonuniform 0();
    }
    outlet
    {
        type            zeroGradient;
    }
    axis
    {
        type            empty;
    }
    leftside
    {
        type            zeroGradient;
    }
    burnerwall
    {
        type            zeroGradient;
    }
    front
    {
        type            wedge;
    }
    back
    {
        type            wedge;
    }
    procBoundary1to0
    {
        type            processor;
        value           nonuniform List<scalar> 
27
(
1.6623834645e-07
1.6943503834e-07
1.76783657744e-07
1.8781366356e-07
4.38892325931e-06
1.05734310575e-06
1.66087543975e-07
1.54149634539e-08
7.62736934694e-10
1.69022180197e-11
1.99529652133e-13
2.13510399357e-07
2.78293025556e-07
3.86429327552e-07
5.5596563298e-07
8.4493826263e-07
1.44706270182e-06
2.89056167587e-06
6.34562168122e-06
1.36737337429e-05
2.58620319319e-05
3.52352939014e-05
2.07916577653e-05
6.76625199074e-06
6.76625199074e-06
8.53534263352e-15
4.67792472522e-16
)
;
    }
}


// ************************************************************************* //
