/*--------------------------------*- C++ -*----------------------------------*\
  =========                 |
  \\      /  F ield         | OpenFOAM: The Open Source CFD Toolbox
   \\    /   O peration     | Website:  https://openfoam.org
    \\  /    A nd           | Version:  7
     \\/     M anipulation  |
\*---------------------------------------------------------------------------*/
FoamFile
{
    version     2.0;
    format      ascii;
    class       volScalarField;
    location    "0.02";
    object      H2O;
}
// * * * * * * * * * * * * * * * * * * * * * * * * * * * * * * * * * * * * * //

dimensions      [0 0 0 0 0 0 0];

internalField   nonuniform List<scalar> 
815
(
0.0455526990941
0.0455441411558
0.0455388105285
0.042874884558
0.0428376933078
0.0427700641026
0.0403713392034
0.040308858431
0.0401862847775
0.0379533335279
0.0378698565913
0.0377017794173
0.0355763188345
0.035476564481
0.0352734033149
0.0332113271566
0.0331001473835
0.0328722655255
0.0308378318885
0.0307198626596
0.0304772341589
0.0284382434247
0.0283180724471
0.0280703249983
0.0260085179851
0.0258903432598
0.0256465339367
0.0235579017708
0.0234456532525
0.0232142420473
0.0211105158408
0.0210080808547
0.0207970286733
0.0187123104598
0.0186230087038
0.0184389884657
0.0164302402569
0.0163564671626
0.0162043388323
0.0143485194223
0.0142910944956
0.0141726599746
0.0125512226423
0.0125092264458
0.012422752034
0.0110999905951
0.0110711864597
0.0110121249175
0.0100092528874
0.00999081976395
0.00995297990835
0.00924885455315
0.00923778336438
0.0092150292767
0.00875778370749
0.00875153637266
0.00873868948876
0.00846406535506
0.00846074263857
0.00845391715243
0.00830132342288
0.00829964880474
0.00829622493419
0.00821778331571
0.00821699190391
0.00821537152548
0.00817830551284
0.00817795023637
0.00817722289146
0.00816146614966
0.00816131390695
0.00816100200104
0.00815546512119
0.00815540204737
0.00815527166982
0.00815434278792
0.00815431690834
0.00815426223427
0.00815532454992
0.00815531365602
0.00815528947872
0.00815722256556
0.00815721725309
0.00815720420686
0.0081595708778
0.0081595673849
0.00815955778507
0.00816220965395
0.00816220650044
0.00816219753485
0.00816500783691
0.00816500438539
0.00816499452413
0.0455417031398
0.0426877819264
0.0400283044582
0.0374808729556
0.0350034032369
0.0325675840706
0.0301515891806
0.0277370096683
0.0253181184455
0.022902192355
0.0205121096706
0.0181902758133
0.0159983884863
0.0140120489975
0.0123054281645
0.0109319818117
0.00990167818541
0.00918422280552
0.00872131164054
0.00844468665617
0.00829159264313
0.00821317923593
0.00817623766119
0.00816057848261
0.00815509449082
0.00815418785833
0.00815525638486
0.00815718626666
0.00815954462122
0.00816218528343
0.0081649811888
0.0132627522649
0.00980912922826
0.00858633801301
0.00839409191527
0.00903729179308
0.0121827435866
0.0220820705443
0.0455678814746
0.0457319734252
0.0461032881081
0.0466781615357
0.0473425269601
0.0479204282296
0.048250092425
0.0481909388689
0.0474748130954
0.0455262810485
0.0399472088396
0.0269991004221
0.0167291483875
0.0115825510209
0.00926382957064
0.00846515025605
0.00842837823783
0.00920276064856
0.0125589468578
0.0225938041037
0.0425335648124
0.0423335271082
0.0422118691986
0.0421729857754
0.0421072277667
0.0418196524315
0.0411065256017
0.0397926381329
0.037676126104
0.034442328428
0.0289252977203
0.0202100846914
0.0138163875488
0.0104314643808
0.00889132330254
0.00839256639112
0.00847573250884
0.00937305837334
0.0129356859951
0.0230877190172
0.0397148120251
0.039195155199
0.03864913225
0.038098675242
0.0374594230375
0.0365534487251
0.0351804049133
0.0331781926221
0.030428835759
0.0268150985446
0.0219194820109
0.016037780444
0.011914221163
0.00966051931398
0.00864553773531
0.00835446315102
0.00853131431249
0.0095467901953
0.013328446861
0.0236031298727
0.037036161085
0.0362538530879
0.0353611440172
0.0344002421052
0.0333219064332
0.0319866147075
0.0302240599096
0.0279053931788
0.0249871127889
0.0214933135463
0.0174341617614
0.0134085264437
0.0106626837395
0.00914787590818
0.00848667391396
0.00833869651479
0.00859097401428
0.00972385667206
0.0137530674352
0.0241790369425
0.0344573248705
0.0334723148591
0.0323127651159
0.0310394243573
0.0296401402787
0.0280239476948
0.0260647733207
0.0236737492926
0.0208601694515
0.0177364911208
0.0145115625007
0.0117025171026
0.00982973161737
0.00880762855997
0.00838535375456
0.0083361385762
0.0086511189578
0.00990360548808
0.0142204855698
0.0248173517775
0.0319502021322
0.0308222141904
0.0294747357989
0.0279839899067
0.0263716085574
0.024595407597
0.0225788620517
0.020272662195
0.0177174635324
0.0150638798316
0.0125658662273
0.0105685007695
0.00927093278761
0.00858259099141
0.00832131512409
0.00834036151469
0.00870875431413
0.0100847652456
0.014733133303
0.0254947837774
0.0294911451323
0.0282770707459
0.0268173231561
0.025199796154
0.0234738332681
0.0216396101414
0.0196668032892
0.0175406926794
0.0153169787206
0.0131437719661
0.0112379839338
0.00979959902797
0.00889428504567
0.00843427155847
0.00828082951396
0.00834710809387
0.00876191485553
0.0102669187483
0.0152875262841
0.0261864763626
0.0270609161477
0.025814682777
0.0243139342388
0.0226544550483
0.0209060494026
0.0191014449991
0.0172468678171
0.0153537822565
0.0134807111465
0.0117482440771
0.0103096311674
0.00927003847923
0.0086396804948
0.00833657656679
0.00825480325377
0.0083538843075
0.00881002072012
0.0104513756752
0.0158786988431
0.0268802384466
0.024651863987
0.0234234582682
0.0219463105977
0.020320966397
0.0186300630881
0.0169279493487
0.0152454695439
0.0136099569272
0.012073652591
0.0107215310855
0.00964749314932
0.00890106411511
0.00846717467617
0.00827195938394
0.00823750020885
0.00835971943335
0.00885396602989
0.0106431017557
0.0165060546998
0.0275806564698
0.0222691621974
0.0211038084693
0.019707185258
0.0181810999184
0.0166140686706
0.0150717033869
0.0135975722769
0.012224942667
0.0109946374315
0.00995949587728
0.00916991690493
0.00864272922398
0.00835027758916
0.00822894922405
0.00822559823846
0.00836467552364
0.00889636373122
0.0108528430975
0.0171704120633
0.0283020337004
0.0199335485258
0.0188706248453
0.0176024938021
0.0162282045168
0.0148357809967
0.013493299964
0.0122472226741
0.0111294565166
0.0101685657207
0.00939320275517
0.00882559615442
0.00846271550429
0.00827152165212
0.00820028096241
0.00821734105124
0.00836975236942
0.00894139300381
0.0110885629676
0.0178761689872
0.0290619363416
0.0176840431561
0.016755611857
0.0156530311475
0.0144685538565
0.0132841974018
0.0121637575029
0.0111501092119
0.0102699423908
0.00954099910231
0.00897645433224
0.00858069482107
0.00833935855932
0.00821930381766
0.00818140747764
0.00821203467761
0.00837646772409
0.00899337941583
0.0113579462602
0.018630784144
0.0298769568394
0.0155774118626
0.014805420441
0.0138919713971
0.0129186474012
0.0119573848777
0.0110636322658
0.0102731322251
0.0096060413464
0.00907281502666
0.00867651399419
0.00841111349529
0.00825727404813
0.00818568688406
0.00816946374911
0.00820948083781
0.00838636454792
0.00905682445565
0.011668961696
0.0194401297763
0.0307631518814
0.0136817312967
0.0130746808502
0.0123576821976
0.0115989171932
0.0108578361635
0.010178989954
0.0095905387674
0.00910724971148
0.00873405898022
0.00846805969538
0.00829818123436
0.00820488614414
0.00816502842212
0.008162547321
0.00820971361372
0.0084010299466
0.00913640499841
0.012029373706
0.0203093258523
0.0317317196296
0.0120623140467
0.011613935861
0.0110840515868
0.0105254413157
0.00998439781328
0.00949544630685
0.00907969368708
0.00874719237081
0.00849916329765
0.00832970943926
0.00822663050839
0.00817323696896
0.00815321608361
0.00815935659838
0.00821289231131
0.00842203840475
0.00923669837675
0.0124458758194
0.021242410255
0.0327933728187
0.0107645745867
0.0104539918749
0.0100857895767
0.00969846296401
0.00932598011378
0.00899356103549
0.00871622880701
0.00850029957344
0.00834476112738
0.00824292330452
0.00818399209768
0.00815546977292
0.00814727011651
0.00815899781391
0.00821922974259
0.00845091892138
0.00936225916489
0.0129259704848
0.0222475757573
0.0339571945164
0.00979371660486
0.00959220407728
0.00935232406009
0.00910016563801
0.00885911991397
0.00864664345075
0.00847279378877
0.00834108467279
0.00824948795203
0.00819201794655
0.00816046114551
0.00814652698769
0.00814509643685
0.00816086979347
0.00822895039115
0.00848901433842
0.00951702547678
0.0134755292496
0.0233312284347
0.0352276257809
0.00911899120457
0.00899652249383
0.0088500796879
0.00869617847586
0.00854991528129
0.00842263157354
0.00832055668775
0.00824533539102
0.00819482717812
0.00816447941267
0.00814877438722
0.00814288137221
0.00814529633406
0.00816460078369
0.00824231929536
0.00853766417352
0.00970519653965
0.014102096478
0.0245033505056
0.0366075412783
0.0086843400131
0.0086145326355
0.00853073514408
0.00844273750586
0.00835963982071
0.00828829447999
0.00823224074599
0.00819206822449
0.00816603033964
0.00815108716552
0.00814393772777
0.00814223900098
0.00814700041946
0.00817000569473
0.00825965374525
0.00859817337634
0.00993057604129
0.0148118473466
0.0257691980723
0.0380950678448
0.00842499422843
0.00838761853609
0.00834262885299
0.00829547162214
0.00825126274388
0.0082138389241
0.00818504418581
0.00816498242957
0.00815244858666
0.00814563038791
0.00814278999125
0.00814322165782
0.00814972092167
0.00817705885702
0.00828142013219
0.00867232478258
0.0101988247656
0.0156150926031
0.0271375281273
0.0396889506541
0.00828170753551
0.00826286881212
0.00824016134428
0.00821643390856
0.00819437441869
0.00817597559318
0.00816212164168
0.00815274980263
0.00814713006887
0.00814429532731
0.00814349729911
0.00814507571187
0.00815324231077
0.00818590954529
0.00830839181394
0.00876287037069
0.0105184673798
0.0165260504577
0.0286144084728
0.0413849831452
0.0082084961721
0.00819953107894
0.00818872498805
0.00817748325681
0.00816713222791
0.00815863463626
0.00815238238415
0.00814828882782
0.00814595984106
0.00814494628837
0.00814508963613
0.00814744117833
0.00815754587145
0.0081969216448
0.00834190578783
0.00887444026059
0.0109034153319
0.0175658676345
0.0302083341676
0.0431791484709
0.00817413290284
0.0081700860195
0.00816521752516
0.00816018272415
0.00815560038055
0.00815190450649
0.00814925610512
0.00814759108022
0.00814672174101
0.0081464938928
0.00814710771383
0.00815019469279
0.00816277249213
0.00821074093953
0.00838418090318
0.00901481775146
0.0113760855587
0.0187636844542
0.0319245217252
0.045060372157
0.00815967447929
0.00815792999857
0.00815584155745
0.00815369972525
0.00815177919591
0.00815026328809
0.00814921297948
0.00814859213215
0.00814832900062
0.00814843619444
0.00814936699407
0.00815334161226
0.00816915890547
0.00822817992258
0.00843794607473
0.0091934306528
0.0119609735267
0.0201414814461
0.0337495715761
0.046998843283
0.00815471731655
0.00815399115284
0.00815312971336
0.00815225861624
0.00815149376765
0.008150908347
0.00815052295321
0.00815032255247
0.00815029868361
0.00815056820962
0.00815180854659
0.00815691614928
0.00817687533069
0.00824980919796
0.00850539124813
0.00941829948007
0.0126746134451
0.0216874964014
0.0356234461118
0.0489219596065
0.00815403027702
0.00815373108301
0.00815338249372
0.00815303938438
0.00815274866499
0.00815253762803
0.00815241208633
0.00815237029848
0.00815243996453
0.00815281450459
0.00815439208591
0.00816081520835
0.0081855010032
0.00827404524406
0.00858084653584
0.009669062505
0.0134516165815
0.0232524849025
0.0373445948884
0.0506452067256
0.008155186461
0.00815505711748
0.0081549119349
0.00815477662841
0.00815466994762
0.0081546007848
0.00815457004153
0.00815458356398
0.00815469032209
0.00815513970168
0.00815701800619
0.00816462494127
0.0081935242638
0.00829580948398
0.00864659088719
0.00987904476137
0.0140732561408
0.0244353475053
0.0384989369502
0.0518519089542
0.00815714869804
0.00815708275394
0.0081570132023
0.00815695474247
0.00815691491337
0.00815689568332
0.00815689595779
0.00815692494945
0.00815703955918
0.00815750937952
0.00815948334955
0.00816747225132
0.00819767594293
0.00830371147971
0.00866391196206
0.00992841904927
0.0142494907621
0.0247637057242
0.0386240515048
0.0522254330099
0.00815951749328
0.00815947254477
0.0081594281461
0.00815939521106
0.00815937724958
0.00815937353417
0.00815938159754
0.00815941055259
0.00815951259689
0.00815993343045
0.00816171192613
0.0081689441509
0.00819638246862
0.00829250547494
0.0086148300862
0.00973707410303
0.0137088942345
0.0238015391282
0.0373135745973
0.0516460536504
0.00816216025077
0.00816211960652
0.00816208081426
0.00816205409249
0.0081620417964
0.00816204184871
0.00816205049018
0.00816207468981
0.00816215550779
0.00816249025537
0.00816391399009
0.00816976765085
0.00819225785055
0.00827181816851
0.0085355297403
0.00942616916675
0.0126449794079
0.0215684323978
0.0346263923568
0.0504717536487
0.0081649538333
0.00816490951363
0.00816486784477
0.00816484021594
0.00816482833855
0.00816482902134
0.00816483687926
0.00816485622662
0.00816491576955
0.0081651608773
0.0081662137185
0.00817063393071
0.0081880291707
0.00825126583564
0.00846276493332
0.00915395153872
0.011565139411
0.0188870841248
0.0316031787812
0.0496999180853
0.0419206873823
0.049090167264
0.0396116421312
0.0466777694279
0.0378967143011
0.0445011816689
0.0368000463593
0.0428724042772
0.0361776629484
0.0417489901548
0.0358709133915
0.0409983038466
0.0357664001747
0.0405074781439
0.0357953539505
0.0402111605188
0.0359419061666
0.0400908521787
0.036204741093
0.0401399711081
0.0365917021481
0.0403601246238
0.037112970602
0.0407531180649
0.037769126942
0.0413182683644
0.0385591471702
0.042052007749
0.0394844671387
0.0429459741393
0.0405470617341
0.0439981506596
0.0417494829935
0.0452074825307
0.043091233604
0.0465711924198
0.0445686476928
0.0480830447315
0.0461755875085
0.0497346109997
0.0479066258903
0.0515186114349
0.0497568809199
0.0534302574431
0.0517303653312
0.0554774682235
0.053837775738
0.0576821057891
0.0560912964285
0.0600781939611
0.0584864937485
0.0626951490122
0.0609412548635
0.0655042210881
0.0632785651071
0.0683982490606
0.0653555777947
0.0713021359029
0.0671732332291
0.074236023302
0.0689143345232
0.0772391616966
0.0703828589077
0.0796707343032
)
;

boundaryField
{
    inletfuel
    {
        type            fixedValue;
        value           nonuniform 0();
    }
    inletair
    {
        type            fixedValue;
        value           nonuniform 0();
    }
    outlet
    {
        type            zeroGradient;
    }
    axis
    {
        type            empty;
    }
    leftside
    {
        type            zeroGradient;
    }
    burnerwall
    {
        type            zeroGradient;
    }
    front
    {
        type            wedge;
    }
    back
    {
        type            wedge;
    }
    procBoundary1to0
    {
        type            processor;
        value           nonuniform List<scalar> 
27
(
0.0484072286557
0.0484357310896
0.0485097953798
0.0486204793116
0.0155973431603
0.0105650276212
0.00876845677602
0.00837768430664
0.00887982564192
0.0117957070224
0.0215697718937
0.048872820786
0.0494774339619
0.050422965462
0.0517159220153
0.0532956432656
0.0550706006088
0.0569978078212
0.0590684902381
0.0609910949844
0.0617792532797
0.0569199285461
0.0381190881008
0.0211766167777
0.0211766167777
0.0438587127315
0.0509779494186
)
;
    }
}


// ************************************************************************* //
