/*--------------------------------*- C++ -*----------------------------------*\
  =========                 |
  \\      /  F ield         | OpenFOAM: The Open Source CFD Toolbox
   \\    /   O peration     | Website:  https://openfoam.org
    \\  /    A nd           | Version:  7
     \\/     M anipulation  |
\*---------------------------------------------------------------------------*/
FoamFile
{
    version     2.0;
    format      ascii;
    class       volScalarField;
    location    "0.02";
    object      HE;
}
// * * * * * * * * * * * * * * * * * * * * * * * * * * * * * * * * * * * * * //

dimensions      [0 0 0 0 0 0 0];

internalField   nonuniform List<scalar> 
815
(
0.000399343923358
0.0003994131353
0.00039972594409
0.000367275863765
0.000366944086418
0.000366380392849
0.000337781886129
0.000337112499063
0.000335811931044
0.000309724342464
0.000308786292675
0.000306900661067
0.000282529221719
0.000281391705513
0.000279073851903
0.00025583090289
0.000254560626736
0.000251953900295
0.000229379890443
0.00022803760689
0.00022527319121
0.000202977377688
0.00020162026057
0.000198818791534
0.00017659119706
0.00017526966794
0.000172540061095
0.000150346674589
0.000149106205739
0.000146546323807
0.000124536896748
0.000123420563729
0.000121118703509
9.9684611474e-05
9.8727327964e-05
9.67536227745e-05
7.65125283042e-05
7.5737076397e-05
7.41375851248e-05
5.5874806657e-05
5.52852185107e-05
5.40692472274e-05
3.85498099638e-05
3.81306270421e-05
3.72676631201e-05
2.50072875941e-05
2.47292596709e-05
2.41593175125e-05
1.51975049391e-05
1.50264148152e-05
1.46753765191e-05
8.63509454155e-06
8.5368887163e-06
8.33521351653e-06
4.58443990683e-06
4.5318047214e-06
4.42369213168e-06
2.27596514059e-06
2.24953743163e-06
2.19533604942e-06
1.05884740388e-06
1.0463475683e-06
1.02084704021e-06
4.62816328511e-07
4.57302034083e-07
4.46049071006e-07
1.90903439982e-07
1.88605500786e-07
1.83925779877e-07
7.46856902991e-08
7.37778644692e-08
7.1935774671e-08
2.78886851073e-08
2.7546374172e-08
2.68519651661e-08
1.00158988941e-08
9.89048825975e-09
9.63602406744e-09
3.47641536216e-09
3.43208051807e-09
3.34213374743e-09
1.17067866121e-09
1.15553220782e-09
1.12502405652e-09
3.83435687591e-10
3.78439046874e-10
3.68433013636e-10
1.22190440984e-10
1.20596429352e-10
1.1739942045e-10
3.79755364604e-11
3.74731749429e-11
3.64712046636e-11
0.000400294438459
0.000365741254344
0.000334151445807
0.00030442670995
0.000275992505272
0.000248465571632
0.000221559452628
0.000195046993469
0.000168861704275
0.000143094347897
0.000118012521339
9.40884304653e-05
7.19751998951e-05
5.24233458466e-05
3.60995393008e-05
2.33880099489e-05
1.42008727568e-05
8.06304710019e-06
4.27795129202e-06
2.12230119817e-06
9.86475410511e-07
4.30883519105e-07
1.77612435347e-07
6.94446601598e-08
2.59122638669e-08
9.29234316487e-09
3.2209219262e-09
1.08390878475e-09
3.54949767469e-10
1.13093630867e-10
3.51205824123e-11
6.68374692833e-05
1.88374607981e-05
3.9531305799e-06
5.48801445557e-07
4.48550702694e-08
1.9508114594e-09
5.80881328947e-11
0.000401790895553
0.000406479862562
0.000415384467161
0.000429205250901
0.000447343162529
0.000468224936964
0.000490020106935
0.000510426436244
0.000524124995514
0.000519922546485
0.000456752581389
0.000267768093337
0.000109856560968
3.825697634e-05
1.05555927308e-05
2.1396317573e-06
2.87131911214e-07
2.28096790327e-08
9.99844749095e-10
3.40199790688e-11
0.000364653315822
0.000363969479233
0.000365278448411
0.00036910458089
0.00037460575007
0.00037968717944
0.000381764262336
0.000378105094438
0.000364869712758
0.000335684482145
0.000270269554092
0.000149775816235
6.16778295159e-05
2.12527646927e-05
5.72820068018e-06
1.12155186317e-06
1.46005351949e-07
1.13339769121e-08
5.04265218748e-10
1.98072031663e-11
0.000330893795526
0.000325738010069
0.00032085916534
0.000316805924355
0.00031287258874
0.000307057111229
0.000296774462541
0.000279580501183
0.000253252290873
0.000215167663078
0.000157985048447
8.35835394181e-05
3.43596132088e-05
1.16488120768e-05
3.05723285508e-06
5.77777231155e-07
7.30328430487e-08
5.54909892725e-09
2.50940283711e-10
1.13590412431e-11
0.000299457478835
0.000290793892578
0.000281112500886
0.000271082226247
0.000260330218834
0.000247311778495
0.000229897128065
0.000206262714907
0.000175556800718
0.000137756116036
9.25758280263e-05
4.71515270627e-05
1.92083935934e-05
6.36694909957e-06
1.62019319388e-06
2.95152080914e-07
3.61705947477e-08
2.68572110366e-09
1.2340990247e-10
6.34545987877e-12
0.000269759477757
0.000258517940124
0.000245336507995
0.00023102821629
0.000215616149191
0.000198172036108
0.00017723353897
0.000151682115052
0.000121616870721
8.85087452643e-05
5.49915944654e-05
2.70689982943e-05
1.08304317901e-05
3.48531877438e-06
8.55861394835e-07
1.50037292469e-07
1.77827896335e-08
1.28689975181e-09
6.02050371388e-11
3.46317726799e-12
0.000241391209138
0.000228436484798
0.000212948290249
0.000195878799555
0.000177625515172
0.000157873011864
0.000135862034649
0.000111111814388
8.42554404614e-05
5.73061553822e-05
3.33303362006e-05
1.58451279323e-05
6.167066392e-06
1.91350445714e-06
4.51367822082e-07
7.60322897128e-08
8.69595919251e-09
6.12008309399e-10
2.93173857903e-11
1.86652353586e-12
0.000214021024327
0.000200129270648
0.000183400691662
0.000164903134155
0.000145343382989
0.000124918734386
0.000103474305683
8.10172842428e-05
5.83865208915e-05
3.746509114e-05
2.06301251658e-05
9.44538214442e-06
3.5460311149e-06
1.05471411467e-06
2.38124352134e-07
3.85038503399e-08
4.24305736002e-09
2.9018697919e-10
1.43650754135e-11
1.00569170395e-12
0.000187391534716
0.000173257074119
0.000156226484475
0.000137451206913
0.000117862273088
9.80277524861e-05
7.82240952558e-05
5.87637459439e-05
4.04595368311e-05
2.4720573918e-05
1.2996161099e-05
5.71625903245e-06
2.05775494664e-06
5.84488298952e-07
1.26025378917e-07
1.95512350662e-08
2.07423873289e-09
1.38027684929e-10
7.13482167946e-12
5.46755369467e-13
0.000161397705407
0.000147630969205
0.000131097355369
0.000112998843878
9.43977162496e-05
7.60832747149e-05
5.85795489729e-05
4.23289532566e-05
2.79781212609e-05
1.63967061058e-05
8.27342472701e-06
3.49239791122e-06
1.20222529873e-06
3.25655884086e-07
6.70230453917e-08
9.97802760084e-09
1.01952575565e-09
6.61311444283e-11
3.60368944072e-12
3.00417170225e-13
0.000136093203709
0.000123219658806
0.000107845099819
9.11788940156e-05
7.43271027063e-05
5.81649505597e-05
4.33030575143e-05
3.01781791782e-05
1.92190195533e-05
1.08507065644e-05
5.26950054441e-06
2.13538929237e-06
7.02996202733e-07
1.81744960086e-07
3.57557528148e-08
5.11507339641e-09
5.03470314286e-10
3.18809149005e-11
1.84898857191e-12
1.65937624424e-13
0.000111709825371
0.00010016353085
8.64698856643e-05
7.17936614609e-05
5.72045994985e-05
4.35555722555e-05
3.14268280308e-05
2.11717589496e-05
1.30192854533e-05
7.092690646e-06
3.31864114507e-06
1.29220905615e-06
4.07560796956e-07
1.00818826913e-07
1.90077771968e-08
2.6172277108e-09
2.48387503393e-10
1.54045108064e-11
9.56737739973e-13
9.10950132247e-14
8.86708512353e-05
7.87810054441e-05
6.71359134106e-05
5.48038058736e-05
4.27513527044e-05
3.17335607293e-05
2.22357568793e-05
1.45040886286e-05
8.61730819509e-06
4.5301117197e-06
2.0422884203e-06
7.6489164536e-07
2.31650722531e-07
5.49868492742e-08
9.96579225453e-09
1.32400861272e-09
1.21390184952e-10
7.40710174061e-12
4.9239662831e-13
4.89800959919e-14
6.75636015355e-05
5.95261020257e-05
5.01214295448e-05
4.02745960531e-05
3.08042258776e-05
2.23293728268e-05
1.52175282384e-05
9.61709801269e-06
5.52000879927e-06
2.79853074047e-06
1.21536015533e-06
4.3823472984e-07
1.276971683e-07
2.91691139805e-08
5.0984539132e-09
6.552824307e-10
5.81553305218e-11
3.50640210287e-12
2.48039533094e-13
2.54369340974e-14
4.90467729808e-05
4.28933822033e-05
3.57248434295e-05
2.82935833737e-05
2.12494342885e-05
1.50615134426e-05
9.99133596402e-06
6.1199316712e-06
3.39270863066e-06
1.65801314307e-06
6.93587069051e-07
2.40958534797e-07
6.76638780736e-08
1.49102741315e-08
2.52051008419e-09
3.14042595049e-10
2.70154686283e-11
1.61521450299e-12
1.2065914378e-13
1.26314160193e-14
3.36862589964e-05
2.92805913419e-05
2.415774827e-05
1.88827561675e-05
1.39396782093e-05
9.66909779744e-06
6.24702973685e-06
3.70953109739e-06
1.98619984156e-06
9.35657571799e-07
3.7713133368e-07
1.26314408738e-07
3.42301564561e-08
7.29088530075e-09
1.19463052329e-09
1.44503541103e-10
1.20594952835e-11
7.1745997226e-13
5.61885232385e-14
5.96166501529e-15
2.17824575103e-05
1.88389182379e-05
1.54131104908e-05
1.1902175958e-05
8.64409086739e-06
5.87129394112e-06
3.69605769977e-06
2.12851294946e-06
1.10130259398e-06
5.0037416659e-07
1.94462158272e-07
6.28440877288e-08
1.64560865236e-08
3.39352011981e-09
5.39881164945e-10
6.34591335038e-11
5.14074968942e-12
3.05473202731e-13
2.49226555391e-14
2.6658757367e-15
1.32061725989e-05
1.13740428731e-05
9.23699911841e-06
7.05302850818e-06
5.0425922857e-06
3.35561207821e-06
2.05942217967e-06
1.15113449211e-06
5.76158532423e-07
2.52756906881e-07
9.48160319132e-08
2.95980540564e-08
7.49896236029e-09
1.49941495653e-09
2.31926978014e-10
2.65060814763e-11
2.08544639914e-12
1.24297627588e-13
1.05076248606e-14
1.12857969438e-15
7.48915001307e-06
6.4270632795e-06
5.18443021176e-06
3.91677916912e-06
2.75824585932e-06
1.79943076157e-06
1.07763348261e-06
5.85383499115e-07
2.83847520542e-07
1.20415049671e-07
4.3663090197e-08
1.31841272507e-08
3.23626568671e-09
6.28291516046e-10
9.4586123608e-11
1.05130231056e-11
8.0380134396e-13
4.82728719797e-14
4.20863235282e-15
4.52549512435e-16
3.9692457124e-06
3.39513115748e-06
2.72143618397e-06
2.03532788241e-06
1.41266401368e-06
9.04291613111e-07
5.29090168259e-07
2.79744033105e-07
1.31639233787e-07
5.40991296736e-08
1.89930123605e-08
5.55591404577e-09
1.32306177299e-09
2.49719750162e-10
3.66200712983e-11
3.95854819633e-12
2.94333709782e-13
1.78966060115e-14
1.60308639361e-15
1.72223132635e-16
1.96718615467e-06
1.67733676889e-06
1.33640847003e-06
9.89914730942e-07
6.77673026407e-07
4.26095094718e-07
2.43893884187e-07
1.25723204824e-07
5.75199170681e-08
2.29431724795e-08
7.81241512893e-09
2.21745996355e-09
5.12949653064e-10
9.42337479127e-11
1.34689164784e-11
1.41575833118e-12
1.02466347046e-13
6.33923174576e-15
5.81664711322e-16
6.23622082917e-17
9.13453384058e-07
7.76450127135e-07
6.15048206827e-07
4.51432542476e-07
3.05043495272e-07
1.88591537723e-07
1.05751234267e-07
5.32348178813e-08
2.372284568e-08
9.20099771701e-09
3.04393899952e-09
8.39593588083e-10
1.88892596062e-10
3.3810581491e-11
4.71183200964e-12
4.81415985503e-13
3.39572677078e-14
2.14836596436e-15
2.01510088316e-16
2.1552526493e-17
3.98626531619e-07
3.3780841899e-07
2.66092832937e-07
1.9360842198e-07
1.29228409014e-07
7.86363365367e-08
4.32536884553e-08
2.12955095776e-08
9.25884368387e-09
3.49771475324e-09
1.1259690137e-09
3.02207360293e-10
6.6198814243e-11
1.15547936578e-11
1.5701063326e-12
1.55837965744e-13
1.07304468873e-14
6.97798844671e-16
6.68241412753e-17
7.13139656896e-18
1.6417776497e-07
1.38705063142e-07
1.08667864913e-07
7.84043272578e-08
5.17276413861e-08
3.10071651022e-08
1.6749382256e-08
8.0757315328e-09
3.43062302184e-09
1.26407517477e-09
3.96483066051e-10
1.03665734167e-10
2.2129012681e-11
3.76877658909e-12
4.99162305742e-13
4.80819217603e-14
3.23915234951e-15
2.17605838051e-16
2.12639596288e-17
2.26504868545e-18
6.41431386613e-08
5.4021637544e-08
4.21013594718e-08
3.01283422674e-08
1.96582286296e-08
1.16158194885e-08
6.16778208182e-09
2.91525805574e-09
1.21140017528e-09
4.35864653993e-10
1.33343086109e-10
3.39947544519e-11
7.0764780796e-12
1.17633513942e-12
1.51747799359e-13
1.4168158128e-14
9.36767878408e-16
6.52988426226e-17
6.50796938102e-18
6.91613736423e-19
2.39133094356e-08
2.00760182059e-08
1.55650964088e-08
1.10499266163e-08
7.13309078045e-09
4.15706891078e-09
2.17121647789e-09
1.00684662937e-09
4.09602244526e-10
1.44036241348e-10
4.30136602878e-11
1.0699859143e-11
2.1730214473e-12
3.52577847855e-13
4.42457596849e-14
3.99862036226e-15
2.60557944448e-16
1.88971902119e-17
1.91789645185e-18
2.02696932161e-19
8.56378427791e-09
7.16686557277e-09
5.5274348747e-09
3.8938050086e-09
2.48739446227e-09
1.43044442412e-09
7.35271473637e-10
3.34737965317e-10
1.3341475185e-10
4.58864534917e-11
1.33866365267e-11
3.2513721765e-12
6.44582412414e-13
1.02096916083e-13
1.24530715896e-14
1.08802941467e-15
7.01047429391e-17
5.27643432856e-18
5.43237835334e-19
5.67219613358e-20
2.96422129022e-09
2.4730044595e-09
1.89757648108e-09
1.32681345186e-09
8.39038144887e-10
4.76349756556e-10
2.41093265913e-10
1.07822561987e-10
4.21296840051e-11
1.41833021871e-11
4.04514159387e-12
9.60037156088e-13
1.85906861613e-13
2.87481170347e-14
3.40724413403e-15
2.87645236536e-16
1.83161175059e-17
1.41494035881e-18
1.46633934272e-19
1.49749146221e-20
9.96528402758e-10
8.2902418369e-10
6.33180925955e-10
4.39651451581e-10
2.75404785557e-10
1.54465094062e-10
7.70409952184e-11
3.38748829834e-11
1.29888226222e-11
4.28472144211e-12
1.1961968392e-12
2.77741859597e-13
5.26071380883e-14
7.95182415814e-15
9.16529959437e-16
7.44428045948e-17
4.61954206111e-18
3.58726573518e-19
3.68690899809e-20
3.6213588552e-21
3.26099916619e-10
2.70649984932e-10
2.05876927516e-10
1.42064541198e-10
8.82260075699e-11
4.89280789098e-11
2.40715391535e-11
1.04163939875e-11
3.92410011682e-12
1.26991294779e-12
3.47577873956e-13
7.90763051801e-14
1.46773218001e-14
2.17380845199e-15
2.44612096727e-16
1.91254215653e-17
1.12447304076e-18
8.42248683103e-20
8.36342958369e-21
7.67156143705e-22
1.03818003068e-10
8.59734767981e-11
6.51442636631e-11
4.46856853123e-11
2.75191372404e-11
1.50948174971e-11
7.32722678833e-12
3.12133730169e-12
1.15565837383e-12
3.67040254161e-13
9.85372095919e-14
2.19769631833e-14
4.00050742866e-15
5.81189941082e-16
6.42215903029e-17
4.87630047922e-18
2.6724887934e-19
1.84425046076e-20
1.68336074336e-21
1.38627248344e-22
3.22010674891e-11
2.65839647882e-11
2.00457729323e-11
1.36525343527e-11
8.32725284331e-12
4.51182400396e-12
2.15813508457e-12
9.038707369e-13
3.28492661746e-13
1.02260123283e-13
2.68934304035e-14
5.87192166174e-15
1.04670278927e-15
1.48948536514e-16
1.61844240797e-17
1.21120818959e-18
6.30950480174e-20
3.94632327986e-21
3.33416791312e-22
2.69803452307e-23
7.15615047625e-12
1.46988760938e-12
5.24911864121e-12
1.17577894678e-12
3.51815367829e-12
8.6815334797e-13
2.19245624122e-12
5.8142935171e-13
1.29248041489e-12
3.62043738055e-13
7.35388687848e-13
2.15749249951e-13
4.11470148442e-13
1.26106942198e-13
2.30383969318e-13
7.36171457378e-14
1.29886698176e-13
4.30680862828e-14
7.36676138465e-14
2.51341558148e-14
4.16384842231e-14
1.44629584252e-14
2.31159475656e-14
8.09252373516e-15
1.24501614838e-14
4.3527216147e-15
6.43961450438e-15
2.23082588386e-15
3.17267338825e-15
1.08521200694e-15
1.48198266852e-15
4.9941640115e-16
6.54819724806e-16
2.17117678562e-16
2.73617566268e-16
8.91940617394e-17
1.08249684344e-16
3.46848950261e-17
4.06392420069e-17
1.2806661957e-17
1.45229941811e-17
4.50525350238e-18
4.9569089938e-18
1.51618134623e-18
1.62100241383e-18
4.89664441902e-19
5.08968731266e-19
1.52052400017e-19
1.53512768885e-19
4.53776756818e-20
4.43302284364e-20
1.29563859454e-20
1.21763942679e-20
3.51202640932e-21
3.13684355872e-21
8.88660909313e-22
7.28492272057e-22
1.99820887285e-22
1.43350170269e-22
3.70088812261e-23
2.3170450385e-23
5.47526813309e-24
4.35585611359e-24
9.13191341621e-25
)
;

boundaryField
{
    inletfuel
    {
        type            fixedValue;
        value           nonuniform 0();
    }
    inletair
    {
        type            fixedValue;
        value           nonuniform 0();
    }
    outlet
    {
        type            zeroGradient;
    }
    axis
    {
        type            empty;
    }
    leftside
    {
        type            zeroGradient;
    }
    burnerwall
    {
        type            zeroGradient;
    }
    front
    {
        type            wedge;
    }
    back
    {
        type            wedge;
    }
    procBoundary1to0
    {
        type            processor;
        value           nonuniform List<scalar> 
27
(
0.000434148360972
0.000434750437743
0.000436212647928
0.000438355753228
0.000111271632714
3.20204760984e-05
6.95877344096e-06
1.00515535961e-06
8.52141580887e-08
3.73046671454e-09
9.92282979032e-11
0.00044319551071
0.000454642796924
0.00047284892624
0.000499017231603
0.000533664139832
0.000576738403146
0.000628279627099
0.000687697964496
0.000748666653187
0.000793339060692
0.000747812064417
0.000469284886673
0.000191373497762
0.000191373497762
1.02749560183e-11
1.90017719589e-12
)
;
    }
}


// ************************************************************************* //
