/*--------------------------------*- C++ -*----------------------------------*\
  =========                 |
  \\      /  F ield         | OpenFOAM: The Open Source CFD Toolbox
   \\    /   O peration     | Website:  https://openfoam.org
    \\  /    A nd           | Version:  7
     \\/     M anipulation  |
\*---------------------------------------------------------------------------*/
FoamFile
{
    version     2.0;
    format      ascii;
    class       volScalarField;
    location    "0.02";
    object      k;
}
// * * * * * * * * * * * * * * * * * * * * * * * * * * * * * * * * * * * * * //

dimensions      [0 2 -2 0 0 0 0];

internalField   nonuniform List<scalar> 
815
(
1.35610351705
1.36474197677
1.38431395201
1.2399602396
1.24598369944
1.26032452738
1.13340647011
1.1378206644
1.14883329066
1.03430980813
1.03761778651
1.04632823295
0.939668674313
0.942332268539
0.949600602237
0.848719075831
0.850993303257
0.857342669727
0.760503716614
0.76268283397
0.768619822168
0.675199889484
0.677327875859
0.682982279377
0.592755788892
0.594929528551
0.600416772003
0.514213416166
0.516306877442
0.521455808884
0.440605500458
0.442545118182
0.447188706529
0.373712644647
0.375364917141
0.379267396498
0.315291954754
0.316569950373
0.319591432974
0.266912166122
0.267787610753
0.269916004638
0.229427071094
0.229941308751
0.231282794967
0.202666588238
0.202903567761
0.203644367814
0.18529957841
0.185359479304
0.185693047041
0.175280478812
0.175235445409
0.175317898291
0.17032822639
0.170226042989
0.17016297031
0.168428112441
0.168294190259
0.168146565443
0.16808739995
0.167935787589
0.167739327708
0.168411758611
0.168246838583
0.168017000529
0.168955892314
0.168780711326
0.168528245401
0.169551713261
0.169368000932
0.169094481094
0.170132744989
0.169938505329
0.169645950931
0.170615617536
0.170413104582
0.170109173529
0.170923541574
0.170713527988
0.170399617632
0.170981519934
0.170764300053
0.170437340165
0.170849693826
0.170627373533
0.170287828946
0.171475644702
0.171245867743
0.170903904526
0.182397637067
0.182204573441
0.181918548923
1.40562015129
1.27512658785
1.15934356624
1.05389280969
0.955374136871
0.862170137909
0.773152994268
0.687526299939
0.605087516974
0.526103699964
0.451570990079
0.383089590698
0.322642913925
0.272124667982
0.232724803713
0.204490507208
0.186132359171
0.175507211527
0.170207701383
0.168107432391
0.167651360547
0.167898230552
0.168389166291
0.168939570197
0.169475471524
0.169930389449
0.170215411932
0.170244640132
0.170086271335
0.170698492705
0.181742415424
0.184132656963
0.177580466745
0.176633235528
0.175836423407
0.186664829776
0.329717343305
1.45142311676
1.43944251112
1.47696379427
1.50824998153
1.5472340586
1.59415155785
1.61730090381
1.56581572807
1.40567409966
1.15853186038
0.87950520664
0.59312229615
0.304770270836
0.201262187215
0.179089367237
0.176792190797
0.175814579365
0.17586441351
0.19219837782
0.374892741405
1.7453379582
1.29614319081
1.3093678039
1.30531707124
1.29626484084
1.28895028694
1.26636644739
1.19257376863
1.04245027541
0.830527501347
0.602649510193
0.39285335203
0.237181624392
0.187919162804
0.177282928607
0.176323908639
0.175150417735
0.176191900844
0.199310817507
0.428745876701
2.05297183032
1.17167007459
1.16773615165
1.13905823491
1.09701391064
1.05260822006
1.00017835661
0.91684832821
0.785124675503
0.614825025888
0.441025881682
0.295233695122
0.209063702916
0.182988603061
0.176971632207
0.175964569447
0.174625421893
0.176846097299
0.208276905156
0.493626478823
2.36802737948
1.06034136836
1.04543310677
1.00151508084
0.939246155595
0.872390811856
0.803013264009
0.718372301135
0.606646509043
0.474220328118
0.346562380561
0.248427226993
0.197693056941
0.181474387783
0.177029211868
0.175545011407
0.174140317191
0.177793851364
0.219454982952
0.572628066273
2.69279192077
0.958477085002
0.937867309847
0.886429462082
0.814102600325
0.736030898563
0.659177655854
0.578085292312
0.485057398368
0.383767833694
0.291582167142
0.225552914123
0.192740432085
0.180871169633
0.176863618357
0.174948516565
0.173604009462
0.178970436172
0.233237996692
0.669519850201
3.03240462666
0.863862356885
0.841656091238
0.788602661171
0.713865145349
0.632814010791
0.555133694598
0.480157008341
0.403207557345
0.325898656264
0.259097678294
0.213177083556
0.189713898028
0.18009966327
0.176283023966
0.174141153993
0.172978849215
0.180322838165
0.250049020724
0.788020328171
3.39014673867
0.774817360223
0.753869567465
0.70336116264
0.63161376204
0.553358803047
0.479324279114
0.411638837783
0.347772858936
0.288018179745
0.238508409818
0.204923558508
0.186930796314
0.178896124825
0.175330662618
0.173161115574
0.172276048985
0.181844239455
0.270395591202
0.931109660821
3.76379233876
0.689944097138
0.672035878295
0.626760972086
0.561529135409
0.489851951504
0.422287194544
0.362312501602
0.308864547865
0.26164563032
0.223784451813
0.198163289062
0.18400046015
0.177350930665
0.174135099508
0.172078300336
0.171533358388
0.183584795219
0.29486358204
1.1005074202
4.14646732583
0.608504921552
0.594406831964
0.555796509845
0.499071220364
0.436141779975
0.3766368558
0.32446298493
0.279532839222
0.24151142904
0.211910960421
0.19204838954
0.180994308234
0.175627701238
0.172819719535
0.170961514943
0.170799227966
0.185655951404
0.324349068957
1.29724780022
4.53024419039
0.530335630057
0.520087000749
0.488595604101
0.44119864408
0.387992568624
0.337300625645
0.292941785528
0.255476684968
0.224807948407
0.201667690755
0.186452601963
0.178062416289
0.173854510526
0.171476419943
0.169868472126
0.170126107845
0.188260078087
0.360609076081
1.52085387947
4.90771443167
0.456153985124
0.449243259412
0.424619259179
0.386542374268
0.343221725495
0.301555972963
0.265018692816
0.234563408499
0.210353191892
0.192718578547
0.18145328957
0.175322156519
0.172124031879
0.170179756976
0.168850693316
0.16957715884
0.191712259765
0.405005156159
1.77024688992
5.27400324506
0.387471817028
0.383139718327
0.364698119464
0.335379262052
0.301559640562
0.268739152931
0.239915964032
0.216218448921
0.197921396667
0.185095359523
0.177151252426
0.172866180136
0.170521709021
0.168999892089
0.167958513785
0.169225046812
0.196356221611
0.458819679425
2.04438345607
5.62718368661
0.326373366198
0.323845467376
0.310685641206
0.28919245709
0.264072573564
0.239541298289
0.218048708027
0.200674728686
0.187671685071
0.178906618429
0.173623805478
0.170778929853
0.169132598008
0.168003000856
0.167238214089
0.169136327928
0.20257037694
0.523392670479
2.34186377233
5.9679958137
0.274962699218
0.273594934057
0.264726195699
0.249871549646
0.232319871232
0.215125916944
0.200166979866
0.188335252584
0.179758911648
0.174196319361
0.170906452946
0.169127070264
0.16802807309
0.167237939846
0.166722035184
0.169376521071
0.210796467156
0.600216330512
2.66194858422
6.30010880896
0.23465993097
0.233999009539
0.228443389727
0.21888766565
0.207479629079
0.19631528144
0.186717085066
0.179322402225
0.174126941063
0.170882229961
0.168975479289
0.167941139253
0.167245785855
0.166727670109
0.166422804348
0.170009628016
0.221544834993
0.690914849284
3.00485416736
6.62914643187
0.205675309528
0.205415938919
0.202223735101
0.19657673911
0.189776071088
0.183152617757
0.177543649007
0.173352168874
0.170488484651
0.16877051096
0.167747207904
0.167201763067
0.166781056692
0.166462975345
0.166333330043
0.171103655615
0.235450777279
0.797836472504
3.37390109865
6.96151454674
0.186780306157
0.186737362243
0.185103925504
0.182098780575
0.178439432724
0.174902465442
0.17195515535
0.169830697291
0.168408255942
0.167599697096
0.167092080125
0.166844347377
0.166593052294
0.166408135327
0.166431517503
0.172732573927
0.253239033292
0.923688054222
3.77432520342
7.30476694613
0.175815479801
0.175873287357
0.17516444873
0.173764640105
0.17202493041
0.170358994384
0.168988797751
0.168047954014
0.167418423517
0.167096517841
0.166861418785
0.166779857607
0.166620529175
0.16651415909
0.166689919912
0.175003046674
0.275910206974
1.0726335721
4.2151516765
7.66758913358
0.170314126087
0.170394850357
0.170162232077
0.169621579872
0.168916745935
0.168249771627
0.167701093133
0.167356421176
0.167111629162
0.167021566801
0.166914867457
0.166916937363
0.166797748647
0.166729904603
0.16708487512
0.178067404211
0.304690425825
1.2497437853
4.70643135973
8.05894229482
0.168092543403
0.168148864928
0.168115224588
0.167966724687
0.167742658451
0.167536375346
0.167356929799
0.167271239882
0.167187228859
0.167193096142
0.167138161734
0.167176568834
0.167066219539
0.167011789484
0.167610536845
0.182188922278
0.341487788278
1.46283298727
5.26198234338
8.49053827332
0.16756252223
0.167575455607
0.167596612822
0.167590754536
0.167550743232
0.167521038989
0.167479065869
0.167486017944
0.167456329933
0.167494254448
0.167454614853
0.167504113305
0.167385095755
0.167332340368
0.168294466886
0.187817977968
0.389231807091
1.72289952577
5.89697179686
8.97429028974
0.167762342888
0.16773241131
0.167749776215
0.167776528911
0.167787891727
0.167809037351
0.167805161214
0.167836227397
0.167818788546
0.16786355816
0.167824754615
0.167873278996
0.167736270893
0.16768658516
0.169221864333
0.195749146629
0.452674317427
2.0460332635
6.63059884397
9.52468252011
0.168222973939
0.168159575376
0.16815764589
0.168178984356
0.168193542794
0.168219733637
0.168219001173
0.168250900371
0.168232556332
0.168276097769
0.168234127513
0.168276748714
0.168117149395
0.168090770289
0.170570617758
0.20741026941
0.539724877505
2.45522084008
7.48233566513
10.150859214
0.168752202109
0.168665723569
0.16864616828
0.168654870494
0.168661404639
0.168681115405
0.168676014898
0.168703688644
0.168683226112
0.168724276659
0.168679763999
0.168714904565
0.168532094863
0.168577637866
0.17262664889
0.224903881166
0.660920294212
2.97653591687
8.46414457645
10.8522683169
0.169268918577
0.169166645474
0.169135856907
0.169134928389
0.169135530787
0.169149897096
0.169143108532
0.169169010368
0.169150647959
0.169192672523
0.169150264246
0.169180246206
0.168979728051
0.16918368034
0.175747826233
0.250756690188
0.827388607119
3.6269569998
9.56085794269
11.6011772996
0.169713076168
0.169601746109
0.169564778676
0.169559351569
0.169557855704
0.169570666759
0.16956625659
0.169593774175
0.169582743918
0.169629198246
0.169595602116
0.169623004983
0.16941517822
0.169848796326
0.179664030557
0.282817056171
1.02746284339
4.3626414818
10.6849106858
12.3177902567
0.169991713963
0.169874913718
0.169835021236
0.169827880851
0.169827899973
0.169840762229
0.169842208128
0.169873107598
0.169872279521
0.169927238583
0.169904287644
0.16993761258
0.169718345696
0.170328493338
0.18272216689
0.308491563324
1.19334181848
5.00058972898
11.6315303122
12.7886504759
0.170011308938
0.169888240509
0.169846191359
0.169837794608
0.169839168509
0.169851917733
0.169857001031
0.169890029748
0.169894662258
0.169955056189
0.169937453234
0.169973968825
0.169727882747
0.170160026897
0.181450916849
0.304759242264
1.22056197246
5.25847783695
12.0574615452
12.5698552161
0.169840861998
0.169710546289
0.169664977523
0.169655526487
0.169654921936
0.169666922511
0.169670679774
0.169701409901
0.169705941075
0.169761159353
0.169746423194
0.16977292334
0.169520599636
0.169520261119
0.176126806518
0.263159263998
1.02165862128
4.81761573233
11.4797578859
11.1443158655
0.170447715898
0.170314421829
0.170266553027
0.170255907569
0.170253045943
0.170262940057
0.170264227123
0.170289932703
0.170292568956
0.170338492483
0.170326915256
0.170346891441
0.170135798227
0.169913338785
0.1726883668
0.218619127895
0.704212933386
3.66917551412
9.57349902425
8.43709264673
0.181524431821
0.18141312505
0.181373919897
0.181369274337
0.181370470542
0.181385202921
0.181394573008
0.181425143575
0.18144560698
0.181495160684
0.181525128161
0.181560460359
0.181504497398
0.181393181807
0.183095111928
0.206431662835
0.464295922031
2.38699671639
6.61953822413
4.96106596518
1.52219939531
1.03307958321
1.78293722392
1.15636393806
1.99913221711
1.27308090269
2.17209666483
1.37286106733
2.31573501674
1.45811222221
2.44757550147
1.53514591757
2.58068222861
1.6098734054
2.7224048497
1.68662181771
2.87381684511
1.76585734209
3.0320755063
1.84752271575
3.19344190459
1.93024322187
3.35326249728
2.01235605213
3.51071547301
2.09306351524
3.66631187809
2.17235032866
3.82106340256
2.25210940376
3.97700754875
2.33280184665
4.13637238703
2.41530076016
4.3023445873
2.50087583051
4.47892114599
2.59166019015
4.67067845451
2.69030583981
4.88137441048
2.79974329121
5.11605932431
2.92327688255
5.37667974388
3.06256368112
5.66311655252
3.21732996589
5.96847247955
3.38413125561
6.27074463718
3.5535512224
6.52010225088
3.70454459974
6.5894488105
3.7798143967
6.23066934019
3.66708844921
5.22935270999
3.28495075518
3.7076897121
2.68906548403
2.15322862688
1.97892350499
)
;

boundaryField
{
    inletfuel
    {
        type            turbulentIntensityKineticEnergyInlet;
        intensity       0.05;
        value           nonuniform 0();
    }
    inletair
    {
        type            turbulentIntensityKineticEnergyInlet;
        intensity       0.05;
        value           nonuniform 0();
    }
    outlet
    {
        type            inletOutlet;
        inletValue      uniform 1;
        value           nonuniform List<scalar> 
26
(
0.182397637067
0.182204573441
0.181918548923
0.181742415424
0.181524431821
0.18141312505
0.181373919897
0.181369274337
0.181370470542
0.181385202921
0.181394573008
0.181425143575
0.18144560698
0.181495160684
0.181525128161
0.181560460359
0.181504497398
0.181393181807
0.183095111928
0.206431662835
0.464295922031
2.38699671639
1
1
1
1
)
;
    }
    axis
    {
        type            empty;
    }
    leftside
    {
        type            kqRWallFunction;
        value           nonuniform List<scalar> 
32
(
1.03307958321
1.15636393806
1.27308090269
1.37286106733
1.45811222221
1.53514591757
1.6098734054
1.68662181771
1.76585734209
1.84752271575
1.93024322187
2.01235605213
2.09306351524
2.17235032866
2.25210940376
2.33280184665
2.41530076016
2.50087583051
2.59166019015
2.69030583981
2.79974329121
2.92327688255
3.06256368112
3.21732996589
3.38413125561
3.5535512224
3.70454459974
3.7798143967
3.66708844921
3.28495075518
2.68906548403
1.97892350499
)
;
    }
    burnerwall
    {
        type            kqRWallFunction;
        value           nonuniform 0();
    }
    front
    {
        type            wedge;
    }
    back
    {
        type            wedge;
    }
    procBoundary1to0
    {
        type            processor;
        value           nonuniform List<scalar> 
27
(
1.47569839068
1.4874447986
1.51343600355
1.54350677963
0.194614619183
0.178878133501
0.177441787377
0.17597996645
0.182436303866
0.291364035102
1.18145718082
1.5959536307
1.67281317657
1.75849365083
1.86343923427
1.98237396302
2.06891850869
2.05875630885
1.91164426284
1.66134422208
1.36064488266
0.985077843766
0.459409057211
0.232422209843
0.232422209843
1.25555106455
0.919844536225
)
;
    }
}


// ************************************************************************* //
