/*--------------------------------*- C++ -*----------------------------------*\
  =========                 |
  \\      /  F ield         | OpenFOAM: The Open Source CFD Toolbox
   \\    /   O peration     | Website:  https://openfoam.org
    \\  /    A nd           | Version:  7
     \\/     M anipulation  |
\*---------------------------------------------------------------------------*/
FoamFile
{
    version     2.0;
    format      ascii;
    class       volScalarField;
    location    "0.02";
    object      N2;
}
// * * * * * * * * * * * * * * * * * * * * * * * * * * * * * * * * * * * * * //

dimensions      [0 0 0 0 0 0 0];

internalField   nonuniform List<scalar> 
815
(
0.762887136955
0.762887463524
0.762886658674
0.763192832062
0.763196543817
0.763203114022
0.763478068293
0.76348473818
0.763497743051
0.763753045984
0.763762152516
0.763780444415
0.764022878312
0.764033862687
0.764056206914
0.764290854885
0.764303151824
0.764328339151
0.764559273517
0.764572349101
0.764599229625
0.764830064171
0.76484339507
0.76487086952
0.76510361078
0.765116721861
0.765143764603
0.765378798824
0.765391248106
0.765416907361
0.765652860746
0.765664213529
0.7656875989
0.765920627978
0.765930515257
0.765950884964
0.766174660548
0.766182818232
0.766199636463
0.766405694671
0.766412035186
0.766425108892
0.766604581302
0.766609210322
0.766618739522
0.766764723687
0.766767892324
0.766774387748
0.76688475698
0.766886780084
0.766890932064
0.76696820484
0.766969416757
0.766971906895
0.767021938546
0.767022620411
0.767024022198
0.767053976933
0.767054338443
0.767055080837
0.76707166842
0.767071850025
0.767072221215
0.76708071585
0.767080801409
0.767080976538
0.767084972103
0.767085010419
0.767085088848
0.767086775814
0.767086792226
0.767086825853
0.767087409601
0.767087416433
0.767087430564
0.76708751855
0.767087521402
0.767087527435
0.767087401706
0.767087402961
0.767087405745
0.767087186502
0.767087187166
0.767087188773
0.767086922609
0.767086923082
0.76708692433
0.767086626838
0.767086627279
0.767086628468
0.767086313366
0.767086313848
0.767086315153
0.762884357242
0.763210920092
0.763514429698
0.76380445257
0.764085890428
0.764362013481
0.764635310426
0.764907837602
0.76518019551
0.765451510472
0.765719169876
0.765978414938
0.766222403086
0.766442836138
0.766631666151
0.766783200072
0.766896560077
0.766975277599
0.767025917999
0.767056084613
0.767072723311
0.767081213429
0.76708519506
0.7670868715
0.76708744976
0.767087535635
0.767087409549
0.767087190975
0.767086926033
0.767086630085
0.767086316913
0.766442198553
0.766880143764
0.767034217406
0.767059964025
0.76698867418
0.766636736511
0.765528702692
0.762877079467
0.762848940246
0.762791952295
0.762704647959
0.762598248176
0.762491955722
0.762404753831
0.762355026337
0.762378924379
0.762552467886
0.763179133555
0.764743345928
0.76602297792
0.766664813585
0.766951860283
0.767050230098
0.767056483304
0.766970157584
0.766594565094
0.76547129201
0.763225126442
0.763240788964
0.763243985134
0.763233033087
0.763219338399
0.763224895621
0.763274011232
0.763389121281
0.763597562739
0.763942349209
0.764573281964
0.765618891837
0.766401424548
0.766813511713
0.766999482623
0.767059645808
0.767051344302
0.766951066373
0.766552308957
0.765415870992
0.763547382516
0.763600996424
0.763655291091
0.76370711365
0.763765429364
0.76385054541
0.763986465364
0.764193898398
0.76448939872
0.764890571626
0.765452757231
0.766149324266
0.766642510477
0.76691016728
0.767029970623
0.767064506601
0.76704515839
0.766931558103
0.766508244233
0.765358070423
0.763852720496
0.763937224582
0.76403280493
0.764134382725
0.764247204768
0.764387223693
0.764574769628
0.764826252968
0.765148699937
0.765541542292
0.76600631277
0.766475520634
0.766796519746
0.766972538852
0.767049114715
0.767066491161
0.767038437364
0.766911645516
0.766460602908
0.765293548082
0.764145909338
0.764254061054
0.76438110831
0.764520129869
0.764672345303
0.764848122462
0.765062383721
0.765326382976
0.765640313161
0.765992319207
0.766359176439
0.766681433835
0.766896150512
0.76701284171
0.767061009182
0.767066815107
0.76703162504
0.766891422738
0.766408187729
0.76522210967
0.764430255341
0.764554975591
0.764703993236
0.764868799646
0.765046909671
0.765243096232
0.765466320177
0.765722805058
0.766008597374
0.766306925651
0.766588881074
0.766814882894
0.766961396275
0.767038920201
0.767068365309
0.767066315351
0.767025098158
0.766871065555
0.76635076082
0.765146364317
0.764708502952
0.76484315115
0.7650052049
0.765184925259
0.765376771902
0.765580692448
0.765800190526
0.766037195716
0.76628569572
0.766529015083
0.76674249813
0.766903478223
0.767004546638
0.767055830866
0.767072952392
0.767065537857
0.767019109633
0.766850648292
0.766288731182
0.765069074959
0.764982841694
0.765121209052
0.765288025011
0.765472696065
0.765667417288
0.765868458617
0.766075084955
0.766286063923
0.766494894557
0.766688002477
0.766848102207
0.766963507204
0.767033315275
0.767066859573
0.767075899039
0.767064793394
0.767013738074
0.766830032213
0.766222648219
0.764991575272
0.765254118541
0.765390512892
0.765554694293
0.765735537909
0.765923816967
0.766113383688
0.766300703667
0.766482683037
0.766653475072
0.766803559539
0.766922462233
0.767004846571
0.767052635759
0.767074130193
0.76707788608
0.767064192376
0.767008876054
0.76680864856
0.766152553365
0.764913323512
0.765521718179
0.765651035413
0.765806139274
0.765975755561
0.76615001159
0.766321523002
0.766485346852
0.766637721465
0.766774083805
0.766888561308
0.766975618829
0.767033573148
0.767065669643
0.767078981203
0.76707928583
0.767063712203
0.767004210929
0.766785270538
0.766078325227
0.764832701645
0.765783284535
0.765901115035
0.766041767208
0.76619426795
0.766348813666
0.766497777022
0.766635928109
0.766759682925
0.766865868414
0.766951341066
0.767013725917
0.767053505538
0.76707443994
0.767082233263
0.767080281289
0.767063221433
0.766999253496
0.766758983887
0.765999449338
0.764747738787
0.766034451365
0.766137234641
0.766259328082
0.766390515301
0.766521679869
0.766645704351
0.766757794652
0.766854975938
0.766935298295
0.766997352327
0.767040736227
0.767067135669
0.76708025841
0.7670843881
0.767080937309
0.767062535984
0.766993504986
0.766728914081
0.765915080963
0.76465658159
0.766268937893
0.766354266288
0.76645523046
0.766562805648
0.766669015336
0.766767698085
0.766854880251
0.76692833289
0.766986925994
0.767030371259
0.767059398255
0.767076196322
0.767084008799
0.767085759492
0.767081269768
0.76706147719
0.766986455874
0.766694164658
0.765824563074
0.764557440316
0.766479291037
0.766546268534
0.766625360411
0.766709036487
0.766790722252
0.766865485535
0.766930211691
0.766983281149
0.767024178221
0.767053265568
0.76707180559
0.767081975227
0.767086315984
0.767086557941
0.767081274719
0.767059868021
0.766977583777
0.766653868904
0.765727328188
0.764449068948
0.766658448405
0.766707822175
0.766766148913
0.766827610499
0.766887101181
0.766940812211
0.766986420582
0.767022833575
0.767049942895
0.76706842798
0.767079654328
0.767085463787
0.76708763603
0.767086930271
0.767080937633
0.767057536168
0.76696638073
0.766607282917
0.765622931064
0.764330274105
0.766801604591
0.766835731472
0.766876168932
0.766918682098
0.766959534746
0.76699595453
0.767026296119
0.767049879552
0.767066835915
0.767077918767
0.767084323487
0.767087419833
0.76708830062
0.767086979139
0.767080238815
0.767054315003
0.76695234179
0.766553572338
0.765510460288
0.764200042798
0.766908401711
0.766930491085
0.766956770355
0.766984375958
0.767010742463
0.76703395789
0.767052925978
0.767067272619
0.767077232953
0.767083472684
0.76708689462
0.767088402176
0.767088543559
0.767086774389
0.767079156586
0.767050057873
0.766935030029
0.766492084041
0.765389202581
0.764057879955
0.766982413564
0.766995802387
0.767011801686
0.767028603448
0.76704455712
0.767058425046
0.767069531237
0.767077703079
0.767083181635
0.767086468743
0.767088167254
0.767088800376
0.76708852124
0.767086359479
0.767077663606
0.767044617272
0.766913978015
0.766421976265
0.765258042931
0.763903464738
0.767029950557
0.767037559606
0.767046687509
0.767056265801
0.767065302861
0.767073053607
0.767079135474
0.76708348814
0.767086305302
0.767087919706
0.767088690042
0.767088867583
0.767088330874
0.767085756222
0.767075725698
0.767037848532
0.766888761498
0.766342559303
0.765116394174
0.763737007058
0.767058225663
0.767062286694
0.767067171869
0.767072288782
0.767077081918
0.767081135552
0.767084251029
0.767086418901
0.767087771421
0.767088505767
0.7670888096
0.767088755718
0.767088026942
0.767084968051
0.76707329134
0.767029552831
0.766858747726
0.766252679954
0.764963276731
0.763558647346
0.767073794552
0.767075834796
0.767078292521
0.767080858957
0.767083243273
0.767085230275
0.76708672498
0.767087734915
0.767088339555
0.767088643503
0.767088726624
0.767088547721
0.767087633459
0.767083978506
0.767070274291
0.767019422535
0.766822983111
0.766150747418
0.764798011753
0.763368856153
0.767081719361
0.767082687276
0.767083853234
0.767085065421
0.767086180829
0.767087095838
0.767087768462
0.767088208295
0.767088457948
0.767088565618
0.767088547049
0.7670882831
0.767087152436
0.767082746965
0.767066525072
0.767006939701
0.766779911158
0.76603439539
0.764619648446
0.763168082308
0.767085421908
0.767085857746
0.767086381672
0.767086923082
0.767087415476
0.767087812311
0.767088096394
0.767088274687
0.767088367329
0.767088390511
0.767088320891
0.767087975262
0.767086568062
0.76708120121
0.767061795464
0.766991233475
0.766727023428
0.765900362688
0.764427602567
0.762957564941
0.767086968897
0.767087156626
0.767087381088
0.767087610994
0.767087816909
0.767087979262
0.767088091588
0.767088157774
0.767088185404
0.767088172567
0.767088068134
0.767087623427
0.767085853832
0.76707925035
0.767055780155
0.766971248987
0.766661578995
0.765746189611
0.764223373556
0.762740639921
0.767087490592
0.767087569021
0.767087661815
0.767087755391
0.767087837357
0.76708789996
0.76708794106
0.76708796226
0.767087964303
0.767087933897
0.767087795083
0.767087223697
0.767084990705
0.767076830571
0.767048234166
0.766946088907
0.766581727813
0.76557319228
0.76401367989
0.762525431633
0.767087552985
0.767087585771
0.767087623746
0.767087660889
0.767087692187
0.767087714799
0.76708772817
0.767087732469
0.767087724517
0.767087682589
0.767087506135
0.767086787593
0.767084025774
0.767074119074
0.767039791927
0.766918031578
0.766494786737
0.765398071723
0.763821076755
0.762332588506
0.767087417568
0.767087432277
0.767087448603
0.767087463629
0.767087475341
0.767087482864
0.76708748617
0.767087484612
0.767087472689
0.767087422469
0.767087212402
0.767086361423
0.767083128188
0.767071684107
0.767032436267
0.766894537491
0.766425230907
0.765265712516
0.763691902811
0.762197549421
0.767087195572
0.767087203575
0.7670872119
0.767087218793
0.767087223432
0.76708722568
0.767087225726
0.767087222563
0.767087209825
0.767087157348
0.767086936587
0.767086042877
0.767082663719
0.767070800084
0.767030498564
0.766889014177
0.766405514976
0.765228975384
0.763677907171
0.762155749739
0.767086929541
0.767086935351
0.76708694105
0.767086945277
0.767086947631
0.767086948265
0.767086947518
0.767086944405
0.767086933096
0.767086886109
0.76708668722
0.767085878167
0.767082808413
0.76707205387
0.767035990258
0.766910424315
0.766466008251
0.765336650499
0.763824564313
0.762220589731
0.767086633396
0.767086638798
0.767086643954
0.767086647566
0.767086649352
0.76708664961
0.767086648829
0.767086646264
0.767086637339
0.767086599985
0.767086440785
0.767085785963
0.767083269814
0.767074368377
0.767044862722
0.766945210734
0.766585054142
0.765586540039
0.764125280914
0.762352009112
0.76708632053
0.767086326415
0.767086331955
0.767086335711
0.767086337475
0.767086337678
0.767086336994
0.767086334979
0.767086328436
0.767086301111
0.767086183404
0.767085688951
0.767083742825
0.767076667727
0.767053003811
0.766975667674
0.766705877199
0.765886578038
0.764463596437
0.762438386512
0.763308241512
0.762505856698
0.763566558108
0.762775720547
0.763758441211
0.763019308518
0.763881166158
0.763201629634
0.763950845916
0.763327417032
0.763985238548
0.763411510272
0.763997027844
0.763466532609
0.76399389421
0.763499786261
0.763977596444
0.763513331441
0.763948269399
0.763507899075
0.763905030272
0.76348330862
0.76384674084
0.763439360924
0.763773340741
0.763376136826
0.763684949915
0.763294039857
0.763581412275
0.763194009025
0.763462509891
0.763076272079
0.763327958882
0.762940948112
0.763177815745
0.76278834827
0.763012491002
0.762619170283
0.76283267135
0.762434357073
0.762638963711
0.762234722987
0.762431914046
0.762020803421
0.762211072715
0.761791711522
0.761975242085
0.761545000056
0.761723057936
0.761276860438
0.761455014993
0.76098399878
0.761180300433
0.760669629567
0.76091872253
0.760345743025
0.760686269019
0.76002074508
0.760482840191
0.759692388498
0.760287981507
0.759356285638
0.760123626162
0.759084150763
)
;

boundaryField
{
    inletfuel
    {
        type            fixedValue;
        value           nonuniform 0();
    }
    inletair
    {
        type            fixedValue;
        value           nonuniform 0();
    }
    outlet
    {
        type            zeroGradient;
    }
    axis
    {
        type            empty;
    }
    leftside
    {
        type            zeroGradient;
    }
    burnerwall
    {
        type            zeroGradient;
    }
    front
    {
        type            wedge;
    }
    back
    {
        type            wedge;
    }
    procBoundary1to0
    {
        type            processor;
        value           nonuniform List<scalar> 
27
(
0.762560643523
0.762556567237
0.76254631296
0.762531146901
0.766127780364
0.766778549874
0.76700977283
0.767061152719
0.767006206007
0.766680000564
0.765586072951
0.762496775388
0.762415236864
0.762287423026
0.762109844499
0.761886670216
0.761626560572
0.761334180328
0.761012595125
0.760701647278
0.760526847094
0.761047730421
0.763313654691
0.765437990103
0.765437990103
0.763091208041
0.762294378251
)
;
    }
}


// ************************************************************************* //
