/*--------------------------------*- C++ -*----------------------------------*\
  =========                 |
  \\      /  F ield         | OpenFOAM: The Open Source CFD Toolbox
   \\    /   O peration     | Website:  https://openfoam.org
    \\  /    A nd           | Version:  7
     \\/     M anipulation  |
\*---------------------------------------------------------------------------*/
FoamFile
{
    version     2.0;
    format      ascii;
    class       volScalarField;
    location    "0.02";
    object      nut;
}
// * * * * * * * * * * * * * * * * * * * * * * * * * * * * * * * * * * * * * //

dimensions      [0 2 -1 0 0 0 0];

internalField   nonuniform List<scalar> 
815
(
0.00085816444853
0.000858740865741
0.000860952988157
0.000798867085197
0.000798678128622
0.000799251392121
0.00074467359982
0.000744022811048
0.000743590973983
0.000694140250005
0.000693229700964
0.000692211885471
0.00064591768034
0.0006449346636
0.000643729320759
0.000599502068844
0.000598585467459
0.000597476166619
0.000554449630531
0.000553728310348
0.000552976563596
0.000510733727707
0.000510255468882
0.00050996578549
0.00046842570794
0.000468233120128
0.000468473641483
0.000428176783442
0.000428220320511
0.000428907327898
0.000390916054531
0.00039113983318
0.000392147841469
0.000358237709376
0.000358544243902
0.000359674977138
0.000332144746439
0.000332445691591
0.000333513813507
0.000314871505844
0.00031510597313
0.000315984424945
0.000308123226915
0.000308278858188
0.000308929925222
0.000311817190378
0.000311916044498
0.000312380371947
0.000322942493664
0.000323013907349
0.000323353130006
0.000336330053806
0.000336377104739
0.000336612756842
0.000347557967197
0.000347569556406
0.000347695507784
0.000355105943672
0.000355078291859
0.000355100552286
0.000359602288539
0.000359544573146
0.000359490208741
0.000362213095457
0.000362134236975
0.000362028284466
0.000363817726873
0.000363726599087
0.000363590662079
0.000364938263392
0.000364840597651
0.000364683551295
0.00036581979635
0.000365715348344
0.000365543278645
0.000366498628268
0.000366390807454
0.000366212602711
0.000366924894733
0.000366814689141
0.000366632063234
0.000366944963256
0.000366832151872
0.000366642445228
0.000365601614393
0.000365485872412
0.000365287490057
0.000352599563684
0.00035245855641
0.000352235339792
0.000290221380141
0.000290036247791
0.000289780472369
0.000863716802382
0.000799788419112
0.000742673268377
0.00069042097628
0.000641610196844
0.000595479219486
0.00055145998769
0.000509139865975
0.000468430351028
0.00042958041753
0.00039336915367
0.000361194310345
0.000335077863272
0.000317397563367
0.000310098450725
0.000313300611821
0.000324056773358
0.000337114085944
0.000348003665368
0.00035524818226
0.000359527908788
0.000361998169373
0.000363522087034
0.000364591611081
0.000365434012807
0.00036609576397
0.000366510991742
0.000366514427121
0.000365149805703
0.000352067709026
0.000289561808826
0.000285918319282
0.000351493123758
0.000370669261593
0.000366270327081
0.00033005640505
0.0003262323203
0.000907259526042
0.000869000855079
0.00087465488534
0.000876185257015
0.000873800893778
0.000867274990969
0.000849773952042
0.000807193312075
0.000728282853213
0.000617725904013
0.000492523224562
0.000360612192513
0.000237024712024
0.000244162769373
0.000315090692865
0.000361180020078
0.000370662576021
0.000361426147613
0.000316019182414
0.000343478261238
0.00104751523978
0.000800265258654
0.000796509358738
0.000785054104244
0.00076622785985
0.000741441105319
0.000707756244944
0.000655689283475
0.000577207745796
0.000476859240771
0.000371815740125
0.000278835690446
0.000232341265144
0.000275621205544
0.000337632579846
0.000366782962719
0.000369564298448
0.000354966827784
0.000302788757436
0.000369354871462
0.00119698806864
0.000739895771557
0.000729365634149
0.000708494274709
0.000678092118174
0.000640994578197
0.000597385239907
0.000541976964439
0.000469840916074
0.000385645770417
0.00030569823885
0.000250993428784
0.000252804314384
0.000306754103165
0.000353073924254
0.000369631409077
0.000367598581927
0.000347027602267
0.000291701467857
0.000404874260043
0.00135381909526
0.000685645429993
0.000670936266758
0.000644226959612
0.000606806147416
0.000562780451883
0.000514606943481
0.00046033315482
0.000397587066682
0.000331223502537
0.000276485165803
0.000255048184989
0.000282873343269
0.000332296957978
0.00036284852129
0.000370658075611
0.000364830113634
0.000337835098564
0.000283671952159
0.000451635756413
0.00151936552817
0.000636040612938
0.000619578707755
0.000590331774628
0.000549924781013
0.000503443514363
0.000454984661793
0.000405058451097
0.000353309060721
0.000304759355196
0.000273259236233
0.000276668743879
0.00031330255326
0.00035088186158
0.000368426720856
0.000370420635361
0.000361327353944
0.00032774122242
0.000279333953399
0.000511739458213
0.00169543523922
0.000590116039113
0.000573968466093
0.000545012047253
0.000505049377945
0.000459761570071
0.000414355853381
0.000371039378593
0.000330983157729
0.000299269541079
0.00028742177581
0.000305263739192
0.000338790033724
0.000362820022741
0.00037098796441
0.000369308185312
0.000357248862462
0.000317194888886
0.000279107881154
0.000587221575175
0.00188202581726
0.000547078046618
0.000532832290905
0.000506401667155
0.000469642356
0.00042844575015
0.000388622339523
0.000353424580047
0.000325030617872
0.000308202668046
0.000310677567779
0.000332773862488
0.000356891700407
0.000369301843577
0.000371520690917
0.00036764921814
0.000352818054959
0.000306642436537
0.000283265796849
0.000679440229485
0.00207597820472
0.000506238062188
0.000494990165859
0.000472698475919
0.000441187750071
0.000406228074221
0.000373744320211
0.000347465048944
0.000329971569981
0.000324970519946
0.000335252279064
0.000354035647866
0.000367542510587
0.00037188210506
0.000370818854268
0.000365713940834
0.000348249235816
0.000296431416163
0.000291996065846
0.00078866951514
0.00227176779592
0.000467222210518
0.000459532991421
0.000442345276338
0.000417374679286
0.000389994833328
0.000365812752216
0.000348512554128
0.000340403231637
0.000343298929212
0.000355260980349
0.00036719473953
0.000372261210352
0.000372019625438
0.00036945022575
0.000363690718793
0.000343662830276
0.000286772429457
0.000305573786914
0.000914325267294
0.00246375380949
0.000429997673215
0.000425955121743
0.000414235070319
0.000396382563969
0.000377153414474
0.000361479643934
0.00035251128074
0.000351646986416
0.000358394571645
0.0003679334346
0.000373133002506
0.000373075613545
0.000370814203358
0.000367777760157
0.00036168580491
0.000339082434404
0.000277741227484
0.000324749618977
0.00105465238672
0.00264736104976
0.000395110771329
0.000394389627658
0.000387995727451
0.0003772395721
0.00036607716257
0.000358472833027
0.00035661094038
0.000360551613761
0.000367885964442
0.000373518305932
0.000374079455957
0.000371748580996
0.00036899091963
0.000366032133573
0.000359754039165
0.000334395522879
0.000269370736009
0.00035012573588
0.00120748009816
0.00281997043703
0.000363808717507
0.000365819624402
0.000364251405649
0.000360117425973
0.000356419075737
0.000355905197576
0.000359478332573
0.000365848991892
0.000371822912996
0.000374027438769
0.000372316015319
0.00036951669872
0.000367009076834
0.00036437002969
0.000357898163526
0.000329388108582
0.000261812833712
0.000382218146237
0.00137068111185
0.00298082208103
0.000338082748631
0.000342122280829
0.000344652170443
0.000346308658402
0.00034899365373
0.000354053501773
0.000361028104119
0.000367794805805
0.000371734719294
0.00037182052997
0.00036954455051
0.000367148197116
0.000365163145164
0.000362904898124
0.000356095540746
0.000323836033936
0.000255321652561
0.000421515768056
0.00154213000624
0.00313041572945
0.000320386678089
0.000325740056829
0.000331445940669
0.000337661952719
0.00034507433484
0.000353583359891
0.000361713025914
0.000367428091406
0.000369543909908
0.000368759366534
0.000366803099505
0.000365077454313
0.000363637682674
0.000361707191757
0.000354286029638
0.000317497164134
0.000250252865844
0.000468542415335
0.00172019176639
0.00327106982594
0.000312808220128
0.000318761301206
0.000326444781595
0.000335440937551
0.000345245862166
0.000354647343869
0.00036191754684
0.000365924287374
0.00036682640965
0.000365964376281
0.00036460536708
0.000363513189845
0.000362523939544
0.000360797016087
0.00035235500269
0.00031014464035
0.000247066972564
0.000523852635058
0.00190393382038
0.00340561594484
0.000315594929019
0.000321379767542
0.000329493848643
0.000338993727122
0.000348548288353
0.000356567729508
0.000361836326483
0.000364234235841
0.000364531889388
0.000363926203685
0.000363116799506
0.000362506161706
0.00036183091855
0.000360137642588
0.000350133655856
0.000301623141198
0.000246325446806
0.000588388405005
0.00209410321345
0.00353723815199
0.000325864590482
0.000330718559258
0.000337678230805
0.000345572420869
0.000352913238602
0.000358443482189
0.000361652531892
0.000362939862998
0.000363030138661
0.00036271938312
0.000362297595871
0.000362002334693
0.000361505057501
0.000359644649756
0.00034741569015
0.000291934589539
0.00024864230187
0.000663256913524
0.00229253148741
0.00366946141893
0.000338391213972
0.000341831893878
0.000346707208531
0.000352013288481
0.000356631010439
0.000359851016732
0.000361578098553
0.000362249998577
0.000362305191778
0.000362204641589
0.000362009809701
0.000361893686879
0.000361457107627
0.000359203692565
0.000343975353344
0.000281260886181
0.000254737314329
0.000750313263421
0.00250264823907
0.00380605738393
0.000348776340427
0.0003508341007
0.000353690646841
0.00035669307922
0.000359190802005
0.000360864220403
0.00036173623497
0.000362105504274
0.000362163441359
0.000362174927079
0.000362091234667
0.000362059072112
0.000361586408092
0.000358684849726
0.000339592235669
0.000269981706117
0.000265391762243
0.000851764002079
0.00272812853043
0.00395048146766
0.000355626715548
0.000356678707178
0.000358134644162
0.000359638951423
0.000360864177254
0.000361683849979
0.000362116091285
0.000362333864979
0.000362384997624
0.000362439582355
0.000362398174399
0.000362389648846
0.000361797926278
0.000357952680778
0.000334055392598
0.000258598731747
0.00028167572664
0.000971031942523
0.00297362828991
0.00410665286302
0.000359651788781
0.000360105403639
0.000360769391387
0.000361464768717
0.00036203215873
0.000362424815743
0.000362636926363
0.000362769793858
0.00036280262872
0.000362864112023
0.000362829722931
0.000362806838593
0.00036201360006
0.000356861690232
0.000327136383792
0.000247692897254
0.00030513499153
0.00111275380086
0.00324351439206
0.00427757654714
0.000361976276096
0.000362114997089
0.000362381537544
0.000362683156939
0.000362935788673
0.000363123005959
0.000363223609101
0.000363305720167
0.000363318807085
0.000363373918786
0.000363331468191
0.000363267633248
0.000362174122082
0.000355238919424
0.000318549107902
0.000237961292646
0.000338216164349
0.00128339616274
0.00354235021367
0.00446552184178
0.000363422769968
0.000363406755015
0.000363485702242
0.000363604809211
0.000363711172165
0.000363799717415
0.000363842519111
0.000363893937326
0.000363891442474
0.000363937650751
0.000363881418706
0.000363751520247
0.000362220772976
0.000352841027894
0.00030792416259
0.00023039761728
0.000384911633062
0.00149145805002
0.00387261996336
0.00466830013872
0.000364450299967
0.000364360111509
0.000364353005205
0.00036438940729
0.000364428963854
0.000364470305333
0.000364484128185
0.000364518096237
0.00036450654063
0.000364545346127
0.000364472778306
0.000364245279733
0.00036208284741
0.000349365918604
0.000295068685248
0.000226563592553
0.000450162612497
0.00174441829057
0.00423047040813
0.00487671113926
0.000365264585088
0.000365137109537
0.000365091531788
0.000365091524383
0.000365102627185
0.000365123324878
0.000365125855184
0.000365153151347
0.000365140836143
0.000365177601203
0.000365089249049
0.000364728072299
0.000361693751939
0.000344604052482
0.000280451184135
0.000228436697213
0.000538244987467
0.00204172327207
0.0045976955809
0.00506963799501
0.000365913260025
0.000365768139346
0.000365705569637
0.000365691161588
0.000365691823726
0.000365705861152
0.000365707506017
0.000365735506664
0.000365730100243
0.000365769689016
0.000365670114538
0.000365153111489
0.000361107603955
0.000339177866491
0.000266578642646
0.000235812362556
0.000640041969524
0.00235221765951
0.00492789319864
0.00521119706482
0.000366322362036
0.00036616847102
0.000366098454667
0.000366078778186
0.00036607809005
0.00036609108289
0.000366098076668
0.000366130425037
0.000366136271347
0.000366184835245
0.00036608201219
0.000365458052464
0.000360640418745
0.000335075470188
0.00025712494477
0.000242575809664
0.000717917089975
0.00258769885939
0.00513636887899
0.00522933221174
0.000366316477137
0.000366154038149
0.000366079197176
0.000366056705608
0.000366056336586
0.000366069368558
0.000366080219029
0.000366115972899
0.000366128594745
0.000366185311068
0.000366094213256
0.000365512758299
0.000360895091894
0.000336025800043
0.00025730970542
0.000237605635882
0.000719005658364
0.00262937342706
0.00510161946687
0.00498373607452
0.000364935905622
0.000364760480703
0.000364678771856
0.000364653675505
0.000364651118248
0.000364663841088
0.00036467423305
0.000364708990699
0.000364723806051
0.000364779937722
0.000364718576517
0.000364311539418
0.000360922913937
0.000341837223074
0.000270965223936
0.000220257697973
0.000604461470899
0.00236155324059
0.00468011488901
0.00431873777767
0.000351800771794
0.000351587363265
0.000351490101935
0.000351456557029
0.00035144884968
0.000351454131895
0.000351458398918
0.000351481176649
0.000351487095926
0.000351527687112
0.000351477008329
0.000351248094595
0.000349263240523
0.000338071552757
0.000288423528493
0.000213522772878
0.000434650704834
0.00180465088491
0.00380895646573
0.00322810472245
0.000289211090846
0.000288959428264
0.000288856158304
0.000288810841809
0.0002887931163
0.000288776521849
0.000288757710204
0.00028874777257
0.000288709645068
0.000288709012834
0.000288598061976
0.000288483180046
0.000287528849312
0.000283684328938
0.000265600789611
0.000222307591152
0.000314701913909
0.00120770078496
0.00261454271357
0.00190240885143
0.000498674517993
0.000170586708544
0.000579701093961
0.000180464866891
0.000644427386344
0.000189327868798
0.000696015166211
0.000196580747956
0.000739658120827
0.000202571006095
0.000780745968469
0.000207838511902
0.000822552532384
0.000212827046008
0.000866654667308
0.000217834261735
0.000912220888668
0.000222886215481
0.000957812771678
0.000227976557132
0.00100189315302
0.000233019156138
0.00104280245394
0.000237917994837
0.00108085298619
0.000242637448281
0.00111674469085
0.000247187456421
0.00115047144688
0.000251682359047
0.00118290033281
0.000256151063157
0.0012148147263
0.000260643306856
0.00124710335979
0.000265225175443
0.0012811221978
0.000270003513175
0.00131763567504
0.000275103759545
0.00135743137559
0.000280655747014
0.00140144078806
0.000286794807521
0.0014498141501
0.000293563084288
0.00150219381736
0.000300905537172
0.00155674679799
0.000308625991132
0.00160903111669
0.000316279862671
0.00165198375101
0.000322953163626
0.00166590618195
0.000326231533976
0.00159957280918
0.000321332280269
0.00139211491636
0.000304130489551
0.00104164084693
0.000275158207577
0.000660571379903
0.00023596000483
)
;

boundaryField
{
    inletfuel
    {
        type            calculated;
        value           nonuniform 0();
    }
    inletair
    {
        type            calculated;
        value           nonuniform 0();
    }
    outlet
    {
        type            calculated;
        value           nonuniform List<scalar> 
26
(
0.000290221380141
0.000290036247791
0.000289780472369
0.000289561808826
0.000289211090846
0.000288959428264
0.000288856158304
0.000288810841809
0.0002887931163
0.000288776521849
0.000288757710204
0.00028874777257
0.000288709645068
0.000288709012834
0.000288598061976
0.000288483180046
0.000287528849312
0.000283684328938
0.000265600789611
0.000222307591152
0.000314701913909
0.00120770078496
0.00045
0.00045
0.00045
0.00045
)
;
    }
    axis
    {
        type            empty;
    }
    leftside
    {
        type            nutkWallFunction;
        Cmu             0.09;
        kappa           0.41;
        E               9.8;
        value           nonuniform List<scalar> 
32
(
1.44524639852e-05
1.59425604372e-05
1.72731486093e-05
1.83578080932e-05
1.92505129397e-05
2.00324047058e-05
2.07696095451e-05
2.15058744755e-05
2.22454063042e-05
2.2987227634e-05
2.37191572533e-05
2.44277496807e-05
2.51078542415e-05
2.57609426358e-05
2.64034907773e-05
2.70395528215e-05
2.76759742027e-05
2.83220755454e-05
2.89926718132e-05
2.97050863829e-05
3.04770573661e-05
3.13270308384e-05
3.22602084698e-05
3.32680730692e-05
3.43226397936e-05
3.53625281924e-05
3.62644008068e-05
3.67044051172e-05
3.60366457128e-05
3.36894249665e-05
2.96984712003e-05
2.42217107852e-05
)
;
    }
    burnerwall
    {
        type            nutkWallFunction;
        Cmu             0.09;
        kappa           0.41;
        E               9.8;
        value           nonuniform 0();
    }
    front
    {
        type            wedge;
    }
    back
    {
        type            wedge;
    }
    procBoundary1to0
    {
        type            processor;
        value           nonuniform List<scalar> 
27
(
0.000920354818279
0.00092200735589
0.000926495093582
0.000932459663059
0.00025507671278
0.000336528465433
0.000369101304512
0.000369464156171
0.000343224795801
0.000316967415
0.000778306850654
0.000944810179705
0.000964840151428
0.000985142360708
0.00100469794038
0.00102241111774
0.00102794383309
0.00100342740905
0.00093575443213
0.000830477797589
0.000700013444091
0.000529976885296
0.000290944982936
0.000223351038809
0.000223351038809
0.000416609937428
0.000160953409604
)
;
    }
}


// ************************************************************************* //
