/*--------------------------------*- C++ -*----------------------------------*\
  =========                 |
  \\      /  F ield         | OpenFOAM: The Open Source CFD Toolbox
   \\    /   O peration     | Website:  https://openfoam.org
    \\  /    A nd           | Version:  7
     \\/     M anipulation  |
\*---------------------------------------------------------------------------*/
FoamFile
{
    version     2.0;
    format      ascii;
    class       volScalarField;
    location    "0.02";
    object      O2;
}
// * * * * * * * * * * * * * * * * * * * * * * * * * * * * * * * * * * * * * //

dimensions      [0 0 0 0 0 0 0];

internalField   nonuniform List<scalar> 
815
(
0.191160670295
0.19116883106
0.191174650333
0.193564862386
0.193598673533
0.193660295607
0.195812661262
0.195869142339
0.195980013106
0.1979837349
0.198059044891
0.198210718791
0.200118092628
0.200208002292
0.200391141427
0.202241777296
0.202341933201
0.202547240107
0.204373265204
0.204479504633
0.204698024121
0.206528412246
0.206636613811
0.206859697131
0.208710907871
0.208817298518
0.209036805769
0.210912494004
0.211013540548
0.211221866193
0.213111527219
0.213203734195
0.2133937199
0.215266714779
0.215347096617
0.215512741213
0.217317842815
0.217384245028
0.217521177642
0.219189138653
0.219240824392
0.219347425141
0.220804922818
0.22084272009
0.220920550693
0.222109678292
0.222135600834
0.222188755486
0.223090355683
0.223106943365
0.223140995861
0.223774026647
0.223783988357
0.223804462734
0.224215536571
0.224221157091
0.22423271529
0.224479603551
0.224482592414
0.224488732239
0.224625914365
0.224627420441
0.224630499773
0.224701023916
0.224701735514
0.224703192489
0.2247365263
0.224736845644
0.224737499416
0.224751681605
0.224751818373
0.224752098554
0.224757096846
0.224757153439
0.224757270399
0.224758128488
0.224758151644
0.224758200546
0.224757270225
0.224757279909
0.224757301394
0.224755589751
0.224755594415
0.224755605885
0.224753506127
0.224753509152
0.224753517514
0.224751163385
0.2247511661
0.224751173879
0.224748678759
0.224748681729
0.224748690286
0.191173485117
0.193735409164
0.196122968387
0.198410094322
0.200634544396
0.20282174229
0.204991310557
0.207159826832
0.209332482046
0.21150278144
0.213650194812
0.215736614087
0.217706552432
0.219491985131
0.221026144939
0.222260881851
0.223187161983
0.223832182272
0.224248349712
0.224497035364
0.224634665875
0.224705163683
0.224738384982
0.224752478996
0.224757429347
0.224758267073
0.224757330807
0.224755621665
0.224753528989
0.224751184518
0.224748701863
0.220226083502
0.223291398848
0.22437541813
0.224545388793
0.223973988869
0.221180517945
0.212389226706
0.191153074272
0.191012393167
0.190689092354
0.190187597343
0.189611340385
0.189118589602
0.188853780474
0.188940982914
0.189616803576
0.191391376518
0.196403120437
0.207981439206
0.217135015193
0.22171343225
0.223773545785
0.224482450357
0.224514848833
0.223827058847
0.220846487047
0.211934903852
0.193876502364
0.194061539674
0.194178648779
0.194224589988
0.19429845007
0.194575261352
0.195236979501
0.196438961879
0.198359317086
0.201275869017
0.206225925147
0.214017967667
0.219719244875
0.22273337647
0.224103382262
0.224546654936
0.224472776273
0.223675863882
0.220512004543
0.211496409971
0.196406766149
0.196877955683
0.197374537091
0.197877180496
0.198461991391
0.199288595701
0.200535910642
0.202347723983
0.20482759237
0.208077694473
0.212467806611
0.21772803676
0.221408387563
0.223417504008
0.224321401601
0.224580448232
0.224423453936
0.223521646139
0.220163308655
0.211038799693
0.198811512455
0.199517979703
0.200324776568
0.201194102742
0.202170328785
0.20337857626
0.204970954547
0.207061714233
0.209688154241
0.212826747198
0.216466169803
0.220068287241
0.222521368075
0.223873151644
0.224462578045
0.22459451555
0.22437055233
0.223364495122
0.219786329533
0.210527414969
0.201126845384
0.202014951393
0.203060630435
0.204209240182
0.205471693215
0.206929521976
0.208695346173
0.21084789865
0.213377586525
0.216182332254
0.219073912668
0.221588749805
0.223263188033
0.224176015331
0.224552775719
0.224596895633
0.224317238174
0.223204970485
0.219371326641
0.209960538548
0.20337796839
0.204394201854
0.205608151327
0.206951148749
0.208403652445
0.210003395241
0.211818707777
0.213893161971
0.216189424874
0.21857164473
0.220811720252
0.222600652031
0.223761455136
0.224376561932
0.224609865822
0.224593246836
0.224266138814
0.223044168587
0.218916105847
0.209358851904
0.205586115411
0.206679448608
0.207993875125
0.209450170995
0.211003829328
0.21265453586
0.214429273381
0.216340833107
0.218338695218
0.220289546915
0.221998750755
0.223287407563
0.224097596788
0.224508836499
0.224645978921
0.224587315435
0.224218971261
0.222882432669
0.218423742519
0.208744448678
0.207768590405
0.208890610534
0.210241580748
0.211735157731
0.213308415311
0.214931795303
0.216599540105
0.218301115653
0.219983696009
0.221538857841
0.22282916931
0.223760694293
0.224324932638
0.224595976301
0.224669171219
0.224581302702
0.224176239129
0.222718591973
0.217898652931
0.208128186281
0.209932300908
0.211038104184
0.212367614871
0.213830210248
0.215351423272
0.216882273456
0.218394938595
0.219864748091
0.221244666814
0.222458363259
0.223421696109
0.224090569026
0.224478979743
0.224653583283
0.224684546486
0.224576078194
0.224137156896
0.222548249618
0.217341391931
0.207506020018
0.212072634524
0.213121577341
0.214378488312
0.215751625902
0.217161248743
0.218548266214
0.219873455112
0.221106881734
0.222211856513
0.223140971826
0.223849141177
0.224321544807
0.224583345633
0.224691887116
0.224695080089
0.224571607151
0.224099424836
0.222361886332
0.216751262708
0.206865264655
0.214170980955
0.215127663743
0.216268863758
0.21750534259
0.218757820545
0.219965008697
0.221085106274
0.222089439326
0.222952378979
0.223648273746
0.224157323327
0.224482476299
0.224653628644
0.224717384618
0.224702358614
0.224567023578
0.224059353252
0.22215245313
0.216124381673
0.206190324872
0.216192273257
0.217027867992
0.218020043261
0.219085697723
0.220150975054
0.221158453974
0.222069574216
0.222860370519
0.223514958636
0.224021601608
0.224376504209
0.224592734952
0.224700204991
0.224734149279
0.224707018032
0.224560994967
0.224013115476
0.221913139651
0.215454134893
0.20546646157
0.218085458996
0.218780231185
0.219602182348
0.220477832416
0.221342412605
0.222146024847
0.222856532771
0.223455851699
0.223934651478
0.224290277359
0.224528259897
0.224666088238
0.224730176065
0.224744747519
0.224709244289
0.224552157606
0.223956719612
0.221636873643
0.21473530715
0.204679407803
0.219789282171
0.220335591847
0.22098074556
0.221663339692
0.222329854357
0.222940204608
0.223469079309
0.223903240837
0.224238314865
0.224476994215
0.224629312632
0.224712896097
0.224748587673
0.224750879797
0.224709009145
0.224539101718
0.223886011197
0.221316757388
0.21396334596
0.203819211422
0.221244946353
0.221648442751
0.222125209216
0.222627715855
0.223114292627
0.223553881222
0.223927516517
0.224226196482
0.224448875746
0.224600914936
0.224693334584
0.224741172199
0.224759113544
0.224753705827
0.22470616886
0.224520425283
0.223796920881
0.220946841263
0.213134658681
0.202876353077
0.222411538478
0.22269101571
0.223022286949
0.223370689114
0.223705649881
0.224004486062
0.224253703619
0.224447653528
0.224587284839
0.224678651679
0.224731488372
0.224757047234
0.224764412761
0.224754019649
0.224700530902
0.224494766012
0.22368539904
0.220520457177
0.212241963955
0.201842762686
0.223284312968
0.223465628893
0.223681430891
0.223908229189
0.224124973826
0.22431596727
0.224472178783
0.224590471409
0.224672694807
0.224724253959
0.224752548746
0.224765041111
0.224766352488
0.224752354316
0.224691892791
0.224460927762
0.223547944492
0.220032386709
0.211279568985
0.200714494264
0.223890875666
0.22400105846
0.224132788381
0.22427119698
0.224402700816
0.224517103356
0.224608813237
0.2246763666
0.224721703732
0.224748930323
0.224763014431
0.22476830502
0.224766179184
0.224749039109
0.224680017004
0.224417718544
0.223380825444
0.219475927257
0.210238606563
0.199488993984
0.22428161125
0.224344407622
0.224419776741
0.224498906409
0.224573609947
0.22463772801
0.224688084972
0.224724159757
0.224747531246
0.224760938603
0.22476735314
0.224768887844
0.224764667382
0.224744237834
0.22466462052
0.224363978088
0.22318066246
0.21884559335
0.209114407754
0.198167925098
0.224514748885
0.224548365743
0.224588824546
0.224631223749
0.224670961833
0.224704590841
0.224730456828
0.224748471303
0.224759721916
0.224765840749
0.224768392563
0.224768020402
0.224762251623
0.224737972998
0.224645288514
0.224298122385
0.222942427509
0.218132227443
0.207899195142
0.196752402
0.224643555971
0.224660497124
0.22468091441
0.22470224466
0.224722070717
0.224738602112
0.22475104607
0.224759461445
0.224764506459
0.224767051918
0.224767773022
0.224766375725
0.224759124042
0.224730111915
0.22462133389
0.224217707093
0.22265854951
0.217323202124
0.206587579774
0.195246160702
0.224709374389
0.224717434727
0.22472714911
0.22473725344
0.224746555244
0.224754189636
0.224759805351
0.224763481378
0.224765572889
0.22476648458
0.224766362186
0.224764275419
0.224755301627
0.224720331379
0.224591569139
0.224118620038
0.222316673511
0.216399736976
0.205172017387
0.193652769221
0.224740276819
0.224743914214
0.224748289767
0.224752814276
0.22475693156
0.224760251753
0.224762630573
0.224764126093
0.224764907481
0.224765114328
0.224764570998
0.224761829941
0.224750659424
0.224708057847
0.224554023632
0.223993948773
0.221896891013
0.215335952858
0.203647875707
0.191982062902
0.224753291072
0.224754858246
0.224756734469
0.224758658659
0.224760383963
0.224761745702
0.224762689211
0.22476324716
0.224763484378
0.224763390801
0.224762564738
0.224759034927
0.224744987255
0.224692569726
0.224506273771
0.22383532036
0.221377447478
0.214112328942
0.202027054868
0.190260516796
0.224757767741
0.224758419408
0.224759192667
0.224759974793
0.224760661661
0.224761187498
0.2247615338
0.224761714175
0.224761736602
0.224761497749
0.224760396327
0.224755860143
0.224738133962
0.22467336023
0.224446374585
0.223635611613
0.220743658742
0.212739311319
0.200362873999
0.188552608761
0.224758408048
0.224758675881
0.224758988165
0.224759295791
0.224759556638
0.224759746132
0.224759859005
0.224759896896
0.224759835384
0.224759502861
0.224758101766
0.224752397195
0.224730473222
0.224651835682
0.224379361537
0.223412905917
0.220053596682
0.211349443375
0.198834328356
0.187022204768
0.224757392972
0.224757508106
0.224757637546
0.224757758405
0.224757853867
0.224757915873
0.224757943547
0.224757931715
0.224757836947
0.224757437815
0.224755769588
0.224749013635
0.224723347548
0.224632506409
0.224320972846
0.223226417747
0.219501512952
0.210298939979
0.197809160239
0.185950541625
0.224755654724
0.224755712836
0.22475577426
0.224755826022
0.224755861377
0.224755878481
0.224755878239
0.224755852454
0.224755750602
0.224755333268
0.224753580062
0.224746484871
0.224719660338
0.224625488436
0.224305589474
0.223182566774
0.219344994262
0.210007318892
0.197698041324
0.185618817251
0.224753552637
0.224753591832
0.224753630597
0.22475365937
0.224753675031
0.224753678152
0.22475367086
0.224753645032
0.224753554303
0.22475318046
0.224751600854
0.224745177682
0.224720809118
0.224635440655
0.224349179656
0.223352501582
0.219825097515
0.210861810373
0.19886186109
0.186133356618
0.224751206249
0.22475124151
0.224751275166
0.224751298297
0.224751308824
0.224751308526
0.224751300674
0.224751279043
0.224751207152
0.22475090976
0.224749645225
0.224744446386
0.224724472336
0.224653813454
0.224419607538
0.223628620099
0.22076996645
0.212845027563
0.201248326729
0.187176237239
0.224748725605
0.224748764045
0.22474880018
0.22474882406
0.224748834178
0.224748833296
0.224748826124
0.224748808794
0.224748755794
0.224748538012
0.224747602877
0.224743677119
0.224728228004
0.224672066437
0.224484231256
0.223870380787
0.22172898339
0.215226337837
0.203933224782
0.187861695403
0.194771071098
0.188403976037
0.196821799756
0.190546510024
0.198344844484
0.192479509813
0.19931878748
0.193925966088
0.199871491134
0.194923592812
0.20014384806
0.195590185881
0.200236571981
0.196025989247
0.200210751839
0.19628905322
0.200080497389
0.19639581638
0.199846989508
0.196352129817
0.19950326758
0.196156566756
0.199040288558
0.195807521011
0.198457532317
0.19530559481
0.197755902915
0.194653952394
0.196934120586
0.193860016836
0.195990428375
0.192925577261
0.194922558124
0.191851569357
0.193730950651
0.19064045931
0.192418861305
0.189297784986
0.190991741141
0.187831031928
0.189454410399
0.186246665578
0.187811205034
0.184548939136
0.186058561954
0.182730820254
0.184186982177
0.180772894155
0.182185645636
0.1786449456
0.180058491259
0.176320852208
0.177878444703
0.173826149345
0.175802712363
0.171256007914
0.173958153186
0.168677119017
0.17234392658
0.1660715882
0.17079768397
0.163404552665
0.16949351493
0.161245114934
)
;

boundaryField
{
    inletfuel
    {
        type            fixedValue;
        value           nonuniform 0();
    }
    inletair
    {
        type            fixedValue;
        value           nonuniform 0();
    }
    outlet
    {
        type            zeroGradient;
    }
    axis
    {
        type            empty;
    }
    leftside
    {
        type            zeroGradient;
    }
    burnerwall
    {
        type            zeroGradient;
    }
    front
    {
        type            wedge;
    }
    back
    {
        type            wedge;
    }
    procBoundary1to0
    {
        type            processor;
        value           nonuniform List<scalar> 
27
(
0.188597813222
0.188572781801
0.188507502229
0.18840983022
0.21815921592
0.222623344685
0.224214645533
0.224560142404
0.224113882374
0.221524288666
0.212844155056
0.188186994805
0.187652408084
0.186816376156
0.185674660288
0.18428317744
0.182724653353
0.181036841662
0.179224871051
0.177544917351
0.176874698534
0.181249293674
0.198077180664
0.21318725337
0.21318725337
0.193050079218
0.186727672329
)
;
    }
}


// ************************************************************************* //
