/*--------------------------------*- C++ -*----------------------------------*\
  =========                 |
  \\      /  F ield         | OpenFOAM: The Open Source CFD Toolbox
   \\    /   O peration     | Website:  https://openfoam.org
    \\  /    A nd           | Version:  7
     \\/     M anipulation  |
\*---------------------------------------------------------------------------*/
FoamFile
{
    version     2.0;
    format      ascii;
    class       volScalarField;
    location    "0.02";
    object      one_over_tauStar;
}
// * * * * * * * * * * * * * * * * * * * * * * * * * * * * * * * * * * * * * //

dimensions      [0 0 -1 0 0 0 0];

internalField   nonuniform List<scalar> 
815
(
142.278939775
143.091279374
144.770926911
139.749586965
140.463118607
141.9773414
137.03549108
137.690593899
139.102434571
134.156673568
134.763084859
136.091744893
130.979080311
131.55082211
132.810519375
127.459784253
127.996947328
129.187753516
123.490842621
124.005807436
125.137219536
119.022459095
119.50923393
120.571723084
113.925394508
114.389927988
115.382486728
108.118342334
108.547300027
109.451513955
101.469809339
101.858145444
102.660297704
93.9129714773
94.24764216
94.9267191189
85.4536417491
85.7225381941
86.2627721964
76.3068291827
76.5004617045
76.8937563427
67.0246077479
67.1411141985
67.3904898365
58.5039138107
58.5540077933
58.6804965548
51.645909467
51.6513938715
51.6901639348
46.908115452
46.8896631856
46.8789903269
44.1103268219
44.0825064204
44.0503133209
42.6914049855
42.6608622737
42.6208739977
42.0727214817
42.0415730585
41.9988343097
41.8503151437
41.8184755511
41.7736535693
41.80034982
41.7674998728
41.7206965794
41.8189992508
41.7848888403
41.7354455857
41.861251492
41.8254044999
41.773116892
41.9023685747
41.8649422101
41.8106612262
41.9292904243
41.8903364431
41.8341751857
41.9412959235
41.9008679058
41.8423095628
42.0631224889
42.0216589024
41.9608340793
43.7755331986
43.7343288772
43.6746763169
56.5819423454
56.5581243392
56.5192127052
146.528770282
143.547324234
140.546657491
137.428529544
134.056157712
130.347318625
126.21793474
121.567447333
116.287884909
110.251601556
103.342562466
95.4787059628
86.6791053958
77.1773736254
67.5550917818
58.7511900227
51.6999484722
46.8598310523
44.0228853127
42.593255661
41.972411101
41.7475999053
41.6941352246
41.7077315193
41.7436213385
41.7800513109
41.8027586358
41.8096035149
41.9269759251
43.6429614332
56.5071541406
57.9685899012
45.473520934
42.8908195374
43.2078046005
50.8879108909
90.9450394795
143.967536647
149.141788135
152.040906802
154.993104299
159.438008739
165.514253253
171.380230034
174.679927927
173.80713755
168.885676016
160.797004895
148.097109052
115.779531452
74.2108999215
51.1599760078
44.0576741862
42.6926173469
43.7924407994
54.7211287763
98.2163216283
149.950099099
145.825324237
148.007673582
149.70439851
152.322290692
156.530398429
161.110700588
163.773003719
162.623087752
156.828044696
145.947323227
126.866211337
91.9171786452
61.3778773809
47.2622222327
43.2698019661
42.6574552048
44.6707888177
59.2242930652
104.459005821
154.363121111
142.572646235
144.144427921
144.747148239
145.656484779
147.851984499
150.746218175
152.316806212
150.461707157
143.551761201
129.905408548
105.916367067
74.4564524277
53.6982744409
45.1156303587
42.8488851827
42.756663533
45.8608511491
64.2409050095
109.719899535
157.432738195
139.230502936
140.280722538
139.95933254
139.353032829
139.56139589
140.491066097
140.504029823
137.380851845
128.912491909
112.864861017
87.702108667
62.9174955838
49.1584815576
43.9144729476
42.62830678
42.9610093108
47.3597455653
69.6061081156
114.106374217
159.523100326
135.666955699
136.274649206
135.181456404
133.274601869
131.619938689
130.43373262
128.490063949
123.608365949
113.379955328
96.076573837
73.3981792699
55.3794123111
46.3988534412
43.2091053229
42.5106497786
43.2434110393
49.1401901131
75.1294693302
117.749006499
160.990252217
131.787749229
132.009925024
130.259879491
127.245736538
123.910765203
120.613874027
116.505739677
109.678100275
98.0454223844
81.1605346707
62.8675136744
50.4062982209
44.6801838193
42.7699554306
42.441879155
43.5791190398
51.1568169555
80.6136985568
120.779744178
162.141713553
127.500537475
127.367756864
125.036091933
121.070566566
116.27050085
111.036726358
104.856087225
96.3285790058
84.1336137148
69.1133792165
55.4341607414
47.1462322006
43.6024032783
42.4779350046
42.3934118879
43.9466838149
53.3631769544
85.8982075336
123.345162822
163.196669868
122.692254889
122.221082009
119.362091437
114.577558115
108.554910663
101.716767795
93.8720921997
84.2672662563
72.4821765188
60.089518859
50.3836699659
45.0616271132
42.9258308626
42.2681853557
42.3512243641
44.3309159516
55.7294788666
90.8754267719
125.59753355
164.296478989
117.245520784
116.443699982
113.110199574
107.642810731
100.674555928
92.6865729841
83.8109190264
73.9248975391
63.3293706089
53.6942774434
47.0777446172
43.7632843982
42.4930691881
42.1043635452
42.3104284429
44.7299402827
58.2564719208
95.5261139307
127.706534653
165.517145785
111.029478598
109.915782593
106.181510445
100.199614142
92.608797271
84.0000254514
74.8085473591
65.4002718145
56.4643158019
49.3371733892
44.9780234999
42.9603328426
42.2008573675
41.9671378576
42.2729476486
45.1551525487
60.9946232719
99.9390004578
129.799862984
166.874204525
103.930545526
102.542107812
98.5183232861
92.2407972761
84.400218906
75.7267390543
66.8979239209
58.5620056343
51.469165681
46.4419694283
43.6610770687
42.4502352527
41.9873310487
41.8484785207
42.2452822018
45.6399376044
64.0436181323
104.112452654
131.963299951
168.353755113
95.8766015285
94.2828228515
90.1306428786
83.8358509663
76.1633489524
67.9710467114
60.0769609454
53.1989738669
47.9135234218
44.5437830853
42.8277845541
42.1084453107
41.8211509503
41.7479546946
42.239925739
46.2371259717
67.4892517255
108.047019655
134.253868343
169.936110412
86.9019522972
85.2103197592
81.1471331004
75.1713989522
68.112952555
60.9019438983
54.3655539257
49.1121945854
45.4424478644
43.3098577324
42.2898270996
41.8684256207
41.6901901634
41.6692624462
42.2716071373
47.0046816635
71.3962667421
111.765700324
136.691710526
171.617104897
77.2548281392
75.6069690056
71.8964779948
66.6126047397
60.6025805996
54.7658359063
49.8114818658
46.1376296296
43.7842668162
42.5196195556
41.9391070027
41.6986556997
41.5916945837
41.6168536948
42.3562300488
48.0105404272
75.8017295647
115.308946354
139.291300287
173.378460599
67.5271090335
66.0795582367
62.9920484023
58.7375632724
54.0942344647
49.8259525734
46.4375067112
44.1099258711
42.7266051386
42.0292494193
41.7152142434
41.5844439207
41.5252413019
41.5945157596
42.5116942171
49.3315577795
80.6958747376
118.720596568
142.05992482
175.227053533
58.6620926258
57.5333798483
55.2441118445
52.1960582217
49.0085967288
46.234149324
44.1656252138
42.8391260863
42.0971283532
41.7423432926
41.5817529337
41.5163717703
41.4891607299
41.6044615231
42.758054663
51.0505810711
86.0212958251
122.057406903
145.021516946
177.16612385
51.5921853107
50.8232707556
49.3402787088
47.4303271224
45.5104305493
43.9201862952
42.7970700109
42.1185371553
41.7554771472
41.5906623253
41.5129945313
41.4852705297
41.4797288423
41.6476722938
43.117506841
53.2455808772
91.6606003468
125.36011509
148.190392325
179.203709785
46.765031694
46.3096150618
45.4744649379
44.4311826258
43.4169524409
42.6119252182
42.0674548408
41.755770092
41.5930838912
41.524682021
41.4886004118
41.481642136
41.492017818
41.7252092369
43.615681296
55.9910816327
97.4799207002
128.683919621
151.602770547
181.354339731
43.9528625648
43.7158590268
43.3037042886
42.8029108838
42.328803092
41.9662961051
41.7287155735
41.6005600084
41.5331097413
41.5094379554
41.4925217348
41.4967272819
41.5212282899
41.8395002126
44.2824394681
59.3500390394
103.329646093
132.073395591
155.280935643
183.642646937
42.5441795591
42.4329795785
42.2521127661
42.0383236876
41.8398174856
41.6937578126
41.599457425
41.5532160286
41.5265137356
41.5217346476
41.5128402152
41.5233518932
41.5637025856
41.9957307669
45.1570107232
63.3953296575
109.117165768
135.603676855
159.27631535
186.120160501
41.9357320528
41.8861770752
41.8144151382
41.7325722449
41.6572747168
41.6048085694
41.5700838447
41.5565998498
41.545481183
41.5478552665
41.5419602478
41.55684951
41.6181655876
42.2046628737
46.2989849707
68.230476665
114.814403154
139.369080088
163.643546709
188.863732802
41.7163345327
41.6929302729
41.6665967946
41.6386063205
41.6124586033
41.5962571563
41.5837798829
41.5820774897
41.5762552018
41.5810351831
41.5762709802
41.5955709685
41.686892334
42.4867689879
47.8074251163
74.0191094875
120.471068271
143.500027837
168.478381912
192.010078872
41.6643694891
41.6505140554
41.6410031389
41.6326586681
41.6240994696
41.6204587025
41.6153882607
41.6174026667
41.613151923
41.618638266
41.6146809602
41.6400485726
41.776051332
42.8780086104
49.8490155942
81.0032091538
126.215265633
148.174431556
173.905239124
195.744004542
41.6776263878
41.6665845935
41.6625708531
41.6605624071
41.6576582804
41.6578042895
41.6549682937
41.6579238034
41.6541949464
41.6599008152
41.6571960924
41.6918383076
41.8949404599
43.4290753437
52.6450131033
89.3230400327
132.156148709
153.584240852
180.082899057
200.325284011
41.7120831766
41.7014385876
41.6990565
41.6988300647
41.6977115175
41.6988892169
41.696925579
41.7001909372
41.6970670208
41.7032228203
41.7028417304
41.7514400735
42.0511581129
44.1862760466
56.3868690346
98.7775081369
138.369862009
159.891283465
187.16854596
205.998968147
41.7474300331
41.7365994702
41.7346416373
41.7349488422
41.7345033193
41.7360519676
41.7347762759
41.7383503094
41.7362491729
41.743158841
41.7462332093
41.8119576091
42.2277151474
45.0684135578
60.6400979036
107.927390153
144.501075406
166.934056495
195.15696062
212.781621302
41.7693155621
41.7581613648
41.7563397899
41.7568273807
41.7569090263
41.758587296
41.7581426318
41.7620463062
41.7611716118
41.7691353706
41.7751970271
41.8545666768
42.3579725634
45.7484046066
63.9392436436
114.448691246
149.624867742
173.929426515
203.822506136
220.14974249
41.7748611613
41.7631437499
41.7613435808
41.7618441492
41.7622229125
41.7638693556
41.7638793986
41.7679181314
41.7676136774
41.775983327
41.7820292275
41.8573477213
42.3306902852
45.57472845
63.450739447
115.429911653
152.805616873
179.99674463
212.722585975
227.047272265
41.8910211036
41.8790146837
41.8771519484
41.8777010486
41.8778451772
41.8793456489
41.8790791869
41.8826712649
41.8820872944
41.8892648951
41.8926649354
41.9459372265
42.2763290899
44.6337995494
58.4911757374
107.521637375
152.140775137
183.603923371
220.765174916
232.291225426
43.6119221629
43.6042769193
43.6040864343
43.6055224718
43.6057461435
43.6076255397
43.6074267907
43.611185232
43.6111285066
43.6178532152
43.6211791164
43.6546945732
43.8481591499
45.2391402322
53.8863723855
92.1429751151
145.838739722
182.988516588
226.204102074
235.269761894
56.5078597139
56.5224105173
56.5304025138
56.5378274222
56.5416746648
56.5495225946
56.5561377913
56.567624735
56.5814957303
56.5970825135
56.6282229152
56.6617941727
56.8322869566
57.5664573011
62.0590762028
83.5821753166
132.799855752
177.888805892
227.851236193
234.738155234
274.730002304
544.924623199
276.819590762
576.580080098
279.221056291
605.087344727
280.904299095
628.465276058
281.820644358
647.775143369
282.199558729
664.728506637
282.431355013
680.757186596
282.786601499
696.824393049
283.60764214
713.030166879
284.986290742
729.353433113
286.951275659
745.52378914
289.495111811
761.240248604
292.422753362
776.373860984
295.571637418
790.953410035
299.021843286
805.350146683
302.698164468
819.651871918
306.560601035
834.00896976
310.60942266
848.634074099
314.774282651
863.86806435
319.15742385
880.113132884
323.777947488
897.782313763
328.689303955
917.314048836
333.907787144
938.847693831
339.431312736
962.20701754
345.193396712
986.752584645
350.884537628
1011.05139325
355.344463501
1032.20418551
356.114516576
1042.5745459
350.682993974
1026.89739971
338.190187963
971.91256131
320.480739604
879.389462204
293.554983203
754.75486738
)
;

boundaryField
{
    inletfuel
    {
        type            calculated;
        value           nonuniform 0();
    }
    inletair
    {
        type            calculated;
        value           nonuniform 0();
    }
    outlet
    {
        type            calculated;
        value           nonuniform List<scalar> 
26
(
56.5819423454
56.5581243392
56.5192127052
56.5071541406
56.5078597139
56.5224105173
56.5304025138
56.5378274222
56.5416746648
56.5495225946
56.5561377913
56.567624735
56.5814957303
56.5970825135
56.6282229152
56.6617941727
56.8322869566
57.5664573011
62.0590762028
83.5821753166
132.799855752
177.888805892
200
200
200
200
)
;
    }
    axis
    {
        type            empty;
    }
    leftside
    {
        type            calculated;
        value           nonuniform List<scalar> 
32
(
544.924623199
576.580080098
605.087344727
628.465276058
647.775143369
664.728506637
680.757186596
696.824393049
713.030166879
729.353433113
745.52378914
761.240248604
776.373860984
790.953410035
805.350146683
819.651871918
834.00896976
848.634074099
863.86806435
880.113132884
897.782313763
917.314048836
938.847693831
962.20701754
986.752584645
1011.05139325
1032.20418551
1042.5745459
1026.89739971
971.91256131
879.389462204
754.75486738
)
;
    }
    burnerwall
    {
        type            calculated;
        value           nonuniform 0();
    }
    front
    {
        type            wedge;
    }
    back
    {
        type            wedge;
    }
    procBoundary1to0
    {
        type            processor;
        value           nonuniform List<scalar> 
27
(
144.363787062
145.254089885
147.077396263
149.040879982
68.678556031
47.8423873482
43.2702796178
42.8704234718
47.8304075699
82.7132138466
136.597713401
152.090923236
156.108644153
160.727278388
167.010652374
174.598495069
181.245255554
184.764889326
183.97120589
180.149988051
175.032135301
167.350652308
142.171781269
93.6912628635
93.6912628635
271.238750888
514.250285845
)
;
    }
}


// ************************************************************************* //
