/*--------------------------------*- C++ -*----------------------------------*\
  =========                 |
  \\      /  F ield         | OpenFOAM: The Open Source CFD Toolbox
   \\    /   O peration     | Website:  https://openfoam.org
    \\  /    A nd           | Version:  7
     \\/     M anipulation  |
\*---------------------------------------------------------------------------*/
FoamFile
{
    version     2.0;
    format      ascii;
    class       volScalarField;
    location    "0.02";
    object      p;
}
// * * * * * * * * * * * * * * * * * * * * * * * * * * * * * * * * * * * * * //

dimensions      [1 -1 -2 0 0 0 0];

internalField   nonuniform List<scalar> 
815
(
96380.4010007
96380.4065129
96380.395053
96488.289196
96488.2882514
96488.2835032
96608.0554524
96608.0499121
96608.0218238
96738.9390688
96738.9482026
96738.9643624
96880.0097821
96880.0133375
96879.9982589
97029.8422285
97029.8677801
97029.9199845
97188.5572265
97188.5662893
97188.5634926
97353.8435738
97353.8736239
97353.9305699
97526.5402776
97526.5651926
97526.6121818
97705.3534296
97705.3782635
97705.4112895
97889.7737266
97889.8006436
97889.8428745
98078.0183672
98078.0433246
98078.084822
98265.92695
98265.9420081
98265.9670606
98448.3058761
98448.2943009
98448.2495057
98623.964027
98624.0019791
98624.1028858
98793.703002
98793.7163555
98793.7377186
98969.3632306
98969.3842221
98969.4222346
99155.816286
99155.8274767
99155.845905
99345.7896332
99345.8033169
99345.82935
99538.9572239
99538.9637227
99538.9745636
99732.7787793
99732.7674731
99732.7401376
99919.1394025
99919.1404624
99919.1408544
100108.412212
100108.421428
100108.438059
100305.025769
100305.025207
100305.019684
100496.432672
100496.430484
100496.422919
100677.658138
100677.657376
100677.653041
100843.282773
100843.280528
100843.272709
100987.92163
100987.919895
100987.913823
101109.104887
101109.102603
101109.096529
101208.532943
101208.530402
101208.524447
101290.819921
101290.8202
101290.820033
96380.3789523
96488.272601
96607.988835
96738.9809298
96879.985822
97029.9837044
97188.5684665
97354.0057231
97526.6739409
97705.4621604
97889.9061559
98078.1444319
98265.9963947
98448.2074536
98624.2285612
98793.7678948
98969.474586
99155.8725925
99345.8649623
99538.9888238
99732.7039862
99919.1421873
100108.460458
100305.012544
100496.412964
100677.647253
100843.262524
100987.90574
101109.088208
101208.516326
101290.819273
96326.5383
96343.8866298
96360.0506162
96375.2117528
96388.0865602
96397.1224087
96404.5930608
96380.338493
96380.2378206
96380.1266159
96380.0177815
96379.9378647
96379.8984396
96379.9370168
96380.2037004
96380.8270233
96382.2686531
96385.6667513
96395.8505902
96409.134534
96426.3010426
96443.4561921
96458.7006231
96472.9143757
96485.4991287
96494.3293142
96501.2753249
96488.2525017
96488.2025012
96488.1461955
96488.1067336
96488.1202551
96488.2557546
96488.6401813
96489.5664968
96491.409042
96494.6401931
96500.6795833
96510.0921567
96524.1461916
96538.3817541
96553.2435629
96567.0701041
96580.1078922
96592.0824922
96600.5735955
96606.6556366
96607.917662
96607.8111264
96607.7047867
96607.6617883
96607.7626258
96608.1353621
96608.9820613
96610.5970294
96613.3223382
96617.5419938
96624.8372854
96635.1809401
96646.2379474
96658.6195388
96672.2003043
96685.0564851
96696.8022013
96707.681776
96715.6857129
96720.8162034
96739.0228099
96739.1087904
96739.241284
96739.4519875
96739.7772101
96740.2995863
96741.1580961
96742.6141585
96745.1025413
96749.5139307
96757.1012333
96766.1366205
96777.2863556
96789.1896667
96801.1810546
96812.5407861
96822.703649
96832.2020285
96839.5835616
96843.9214869
96879.9650655
96879.9962468
96880.1148918
96880.4155743
96881.0184971
96882.0751794
96883.7771853
96886.2743362
96889.7122241
96894.1625143
96899.5201573
96908.9308183
96918.6906026
96928.7982515
96939.0507235
96948.8193618
96957.3914254
96965.4279669
96971.9477649
96975.6980455
97030.1271109
97030.4191892
97030.8221205
97031.3675941
97032.0749651
97033.0552469
97034.5262759
97036.9297747
97040.9086381
97046.5673427
97052.8057157
97059.7051738
97067.916029
97076.5656908
97085.1992261
97093.4268191
97100.5375887
97107.2310511
97113.6166129
97116.0703944
97188.5924014
97188.7424569
97189.0560463
97189.6507859
97190.6615608
97192.2306959
97194.3950861
97197.0849888
97200.2095954
97204.3029954
97211.0036727
97217.5702018
97224.7203409
97232.0057653
97239.2030368
97246.0166232
97251.7608768
97257.3430469
97263.2927174
97264.3266956
97354.1815596
97354.5764986
97355.1449197
97355.9158155
97356.8756805
97358.1045574
97359.8516826
97362.7084994
97366.9062246
97371.0122421
97376.570164
97382.3490117
97388.5038344
97394.554712
97400.3510534
97405.7648094
97410.3367943
97415.0205167
97419.9281183
97420.1297977
97526.809273
97527.1290088
97527.5911395
97528.2929957
97529.3926498
97531.0980906
97533.4706422
97536.048965
97538.470188
97543.9753455
97548.8062187
97553.7157628
97558.7553851
97563.5036824
97567.8697633
97571.9494547
97575.5265178
97579.3118644
97582.9484401
97582.3427697
97705.590966
97705.9576476
97706.5837404
97707.5707714
97708.9372918
97710.5670304
97712.2730677
97714.7641562
97719.1970054
97722.830186
97726.6392371
97730.4432734
97734.1558888
97737.4680936
97740.4616805
97743.5254542
97746.2969854
97748.5663879
97750.8388887
97750.1139327
97890.0665711
97890.4891781
97891.1589711
97892.1057259
97893.2652346
97894.5732733
97896.5674225
97899.5421833
97902.648834
97905.3108536
97907.9571454
97910.3740236
97912.5944991
97914.5602375
97916.5147878
97918.8092024
97920.7129475
97921.9325386
97923.5562408
97922.5182432
98078.2900617
98078.6507219
98079.1791086
98079.8822759
98080.6311164
98081.5511157
98083.7788748
98085.833489
98087.3809757
98088.741035
98090.0217616
98091.1083246
98092.1717525
98093.2830188
98094.5979462
98096.2328861
98097.2684248
98097.7690872
98098.9674903
98098.03922
98266.0637698
98266.1864484
98266.3821785
98266.7531218
98267.1029002
98268.5750739
98269.2531572
98269.70234
98270.0995648
98270.4342146
98270.8142225
98271.1828961
98271.7043682
98272.4293469
98273.2609388
98274.0474479
98274.2200355
98274.4229296
98275.4605596
98274.7599455
98448.147613
98448.2246624
98448.2603525
98448.8002867
98449.8136573
98450.1542631
98450.1859419
98450.0126474
98449.7527967
98449.4786263
98449.3703208
98449.475888
98449.9017476
98450.5825396
98451.2462434
98451.8282953
98452.0849198
98452.4857913
98453.4423519
98452.8597344
98624.4785864
98624.8684382
98625.3392393
98625.300902
98625.120728
98624.9333269
98624.8138125
98624.7967504
98624.9244586
98625.2082735
98625.7214493
98626.459497
98627.3948805
98628.3760309
98629.1477595
98629.9110486
98630.518684
98631.2466822
98632.3446398
98631.9369424
98793.8402641
98794.0243528
98794.3104668
98794.710532
98795.2357535
98795.9097066
98796.7529224
98797.7756966
98798.9876197
98800.3679444
98801.8977536
98803.4938691
98805.0293189
98806.3850695
98807.4873964
98808.7573077
98809.8636737
98810.9205742
98812.0844726
98811.669205
98969.5926647
98969.8565479
98970.2480261
98970.7947057
98971.5201654
98972.4480083
98973.5951676
98974.9655612
98976.5477111
98978.2933134
98980.1256444
98981.9335935
98983.6248447
98985.2411333
98986.8408025
98988.7485358
98990.3133739
98991.6237152
98992.78427
98992.3616623
99155.9343437
99156.0809828
99156.3049173
99156.6270773
99157.0650204
99157.6381335
99158.3582891
99159.2294094
99160.2393504
99161.3580401
99162.5496386
99163.8041333
99165.1581792
99166.7281147
99168.4428447
99170.4280011
99171.9476859
99173.2287057
99174.2326417
99173.8472476
99345.9450403
99346.1170637
99346.365885
99346.6972571
99347.1091044
99347.5901091
99348.1148337
99348.6510395
99349.1631158
99349.6340142
99350.0785442
99350.5669498
99351.1746617
99351.9788311
99352.834212
99353.995057
99354.853234
99355.8247954
99356.6431898
99356.3896896
99539.0204132
99539.0834008
99539.1672828
99539.2672131
99539.3735408
99539.4739076
99539.5529963
99539.6019873
99539.6197248
99539.6234699
99539.6316457
99539.6655309
99539.7001735
99539.7431387
99539.6782935
99539.9635149
99540.0479435
99540.5595737
99541.1427238
99540.9361663
99732.6241357
99732.4575849
99732.21509
99731.8932491
99731.4905151
99731.0201073
99730.5036129
99729.9791617
99729.4868131
99729.0687563
99728.7404201
99728.5086334
99728.3513953
99728.3117118
99728.2507804
99728.5889087
99728.5606736
99728.8067993
99729.1012562
99728.7554299
99919.1459564
99919.1556806
99919.1703252
99919.1905487
99919.2155012
99919.2435946
99919.2682365
99919.2822347
99919.271182
99919.2309372
99919.159241
99919.0865978
99919.0391269
99919.102429
99919.115918
99919.5836574
99919.626259
99919.8754507
99920.1104555
99919.7447443
100108.509972
100108.612541
100108.759956
100108.95484
100109.199052
100109.49029
100109.823591
100110.192629
100110.585275
100110.990758
100111.381716
100111.732645
100111.993561
100112.19497
100112.11957
100112.408583
100112.135424
100111.960583
100112.232489
100111.872579
100304.996493
100304.963057
100304.915324
100304.853686
100304.779165
100304.694854
100304.603787
100304.511066
100304.417988
100304.331225
100304.250925
100304.190788
100304.144768
100304.184846
100304.013154
100304.292485
100303.778767
100303.626648
100303.087102
100302.546169
100496.391033
100496.344271
100496.27476
100496.178756
100496.051403
100495.888906
100495.685966
100495.439505
100495.143139
100494.797006
100494.396865
100493.953615
100493.46025
100493.018988
100492.252036
100491.972751
100490.845951
100490.973229
100489.029875
100488.287411
100677.634244
100677.603892
100677.554951
100677.48047
100677.371164
100677.216495
100677.004108
100676.724325
100676.366888
100675.928231
100675.39729
100674.764153
100673.980656
100673.139513
100671.790551
100670.930343
100669.054053
100668.852748
100665.88697
100664.956638
100843.240022
100843.191449
100843.118926
100843.017933
100842.882975
100842.70777
100842.483362
100842.19831
100841.832974
100841.364204
100840.753865
100839.97239
100838.944503
100837.826952
100836.104339
100834.791975
100832.29149
100831.336711
100828.105656
100827.00885
100987.887584
100987.846799
100987.784123
100987.693613
100987.567476
100987.395799
100987.165137
100986.859725
100986.456004
100985.932043
100985.247127
100984.38245
100983.206564
100981.942978
100979.825921
100978.124704
100974.943768
100973.076398
100970.333406
100969.660447
101109.069624
101109.027705
101108.963386
101108.870501
101108.741324
101108.566101
101108.331136
101108.021962
101107.612959
101107.084031
101106.386149
101105.511302
101104.287401
101102.990241
101100.829569
101099.038477
101096.164735
101094.228125
101092.206541
101091.424983
101208.498149
101208.457455
101208.395111
101208.306036
101208.182015
101208.016649
101207.79313
101207.504972
101207.117806
101206.630547
101205.966648
101205.20278
101204.039125
101202.971076
101201.089991
101199.458514
101197.104955
101195.630372
101194.170652
101193.702132
101290.816614
101290.809569
101290.794762
101290.774147
101290.734507
101290.68412
101290.58656
101290.469355
101290.247342
101290.008973
101289.570354
101289.156361
101288.445075
101287.688419
101286.785273
101286.256011
101284.28403
101283.918022
101282.312859
101283.566731
96402.8941869
96403.1600469
96499.6520627
96499.9464789
96605.3300886
96605.5170078
96719.8675809
96719.9888607
96843.2625643
96843.3572003
96975.1861529
96975.2647955
97115.5997418
97115.647934
97263.866126
97263.8798377
97419.755836
97419.7438622
97582.0740254
97582.0645465
97750.0050701
97749.9961448
97922.3885782
97922.3582775
98097.9044278
98097.8677722
98274.647537
98274.6136613
98452.7915944
98452.7648383
98631.8877553
98631.8693881
98811.6045772
98811.5821904
98992.3078265
98992.281119
99173.8052161
99173.7848897
99356.3616789
99356.3365598
99540.8809128
99540.8557949
99728.6803931
99728.6463085
99919.6562571
99919.6226366
100111.78011
100111.743715
100302.423805
100302.372595
100488.097896
100488.03766
100664.665231
100664.58186
100826.642268
100826.540692
100969.387185
100969.291198
101091.444961
101091.331447
101193.809328
101193.742259
101283.115056
101283.257917
)
;

boundaryField
{
    inletfuel
    {
        type            zeroGradient;
    }
    inletair
    {
        type            zeroGradient;
    }
    outlet
    {
        type            fixedValue;
        value           uniform 101325;
    }
    axis
    {
        type            empty;
    }
    leftside
    {
        type            zeroGradient;
    }
    burnerwall
    {
        type            zeroGradient;
    }
    front
    {
        type            wedge;
    }
    back
    {
        type            wedge;
    }
    procBoundary1to0
    {
        type            processor;
        value           nonuniform List<scalar> 
27
(
96286.3893599
96286.3775781
96286.3404373
96286.2936932
96239.4739326
96255.9497801
96272.2155918
96287.253399
96299.8696849
96308.9130162
96316.4569856
96286.1950999
96286.0060564
96285.7721776
96285.5149893
96285.2417655
96284.9845278
96284.6824848
96284.5660373
96284.5975649
96285.3629809
96287.8886358
96298.01101
96308.7134004
96308.7134004
96315.0591663
96315.2489043
)
;
    }
}


// ************************************************************************* //
