/*--------------------------------*- C++ -*----------------------------------*\
  =========                 |
  \\      /  F ield         | OpenFOAM: The Open Source CFD Toolbox
   \\    /   O peration     | Website:  https://openfoam.org
    \\  /    A nd           | Version:  7
     \\/     M anipulation  |
\*---------------------------------------------------------------------------*/
FoamFile
{
    version     2.0;
    format      ascii;
    class       volScalarField;
    location    "0.02";
    object      PaSR<psiReactionThermo>:kappa;
}
// * * * * * * * * * * * * * * * * * * * * * * * * * * * * * * * * * * * * * //

dimensions      [0 0 0 0 0 0 0];

internalField   nonuniform List<scalar> 
815
(
9.91039340598e-13
9.96822961524e-13
1.00884814134e-12
9.72727576021e-13
9.77813742627e-13
9.88667417913e-13
9.53175664788e-13
9.57863083253e-13
9.68020867511e-13
9.32567248018e-13
9.36931953408e-13
9.46535435604e-13
9.09951057695e-13
9.14095131268e-13
9.2326326837e-13
8.85055166527e-13
8.88978167787e-13
8.9771222784e-13
8.57098504372e-13
8.60895932538e-13
8.69277415127e-13
8.25817490859e-13
8.29437223623e-13
8.37383285609e-13
7.90271716301e-13
7.93766818308e-13
8.0127062201e-13
7.50014879206e-13
7.53267342356e-13
7.60169949394e-13
7.04155052043e-13
7.07120031084e-13
7.13296825441e-13
6.52335989628e-13
6.54899247454e-13
6.6016073235e-13
5.9464634627e-13
5.96708412322e-13
6.00905714516e-13
5.32542640906e-13
5.34028830612e-13
5.37086632206e-13
4.69659279264e-13
4.70559944609e-13
4.72504746867e-13
4.11903439174e-13
4.12303106602e-13
4.13306349357e-13
3.65297669957e-13
3.65361822984e-13
3.65697369318e-13
3.33018494067e-13
3.32900514928e-13
3.32857106887e-13
3.13949160755e-13
3.13757180466e-13
3.13544050034e-13
3.04316719483e-13
3.0410098437e-13
3.03822481686e-13
3.00166631022e-13
2.9994435242e-13
2.99640653888e-13
2.98724000297e-13
2.98494915746e-13
2.98173280649e-13
2.98449839466e-13
2.98213131765e-13
2.97875675915e-13
2.98637013521e-13
2.98390474936e-13
2.98033136894e-13
2.98976845074e-13
2.98717970198e-13
2.98339770802e-13
2.99299230263e-13
2.99028999452e-13
2.9863637919e-13
2.99511370405e-13
2.99230020592e-13
2.98823712522e-13
2.99603736149e-13
2.99311690865e-13
2.98888010561e-13
3.00440019023e-13
3.00140883114e-13
2.99700804528e-13
3.12280023471e-13
3.11981009529e-13
3.11548320604e-13
4.0058830165e-13
4.00409749605e-13
4.00119352454e-13
1.0214758592e-12
9.99974747834e-13
9.78467091257e-13
9.56271817688e-13
9.32419232645e-13
9.06334197347e-13
8.77429487159e-13
8.45016860424e-13
8.08340386752e-13
7.66536057417e-13
7.18831021302e-13
6.64719091283e-13
6.04399471947e-13
5.39504613535e-13
4.73944435765e-13
4.13972850691e-13
3.65860343658e-13
3.32771432365e-13
3.13374794259e-13
3.03637930864e-13
2.99457065055e-13
2.97988161281e-13
2.97684899566e-13
2.97832907091e-13
2.98126206724e-13
2.98414567524e-13
2.98595939962e-13
2.98650783927e-13
2.99455154743e-13
3.11316646314e-13
4.00021391927e-13
4.04598631774e-13
3.23038304472e-13
3.06020006082e-13
3.08265611234e-13
3.61211139869e-13
6.41132713867e-13
1.03807361221e-12
1.0403913591e-12
1.06128426346e-12
1.08187099681e-12
1.11215189671e-12
1.15326049279e-12
1.19214946299e-12
1.21136442507e-12
1.19818771754e-12
1.15264185233e-12
1.08146447404e-12
9.79709868465e-13
7.64208731136e-13
5.07820567603e-13
3.60345663879e-13
3.13651881976e-13
3.04678743342e-13
3.12274835698e-13
3.87603538171e-13
6.93534855407e-13
1.08464973911e-12
1.01651336134e-12
1.03231934901e-12
1.04395274405e-12
1.0611275836e-12
1.088720457e-12
1.11828211346e-12
1.13317210251e-12
1.11898433039e-12
1.06932832326e-12
9.82727515167e-13
8.44999403054e-13
6.19620802746e-13
4.2691787154e-13
3.34779219012e-13
3.08443210124e-13
3.04442204553e-13
3.18309038089e-13
4.18587216539e-13
7.39484229086e-13
1.11949512313e-12
9.93264326342e-13
1.00480045412e-12
1.00870128239e-12
1.01372817268e-12
1.02694076148e-12
1.04445925435e-12
1.05186756338e-12
1.03375945698e-12
9.78749713461e-13
8.77975465929e-13
7.14533412275e-13
5.11862914947e-13
3.77467727608e-13
3.20668844141e-13
3.05673931768e-13
3.05120582817e-13
3.26489201031e-13
4.53121970104e-13
7.79189999149e-13
1.14419921475e-12
9.69563075921e-13
9.77533433034e-13
9.75007395859e-13
9.69409587875e-13
9.68664576905e-13
9.7246231745e-13
9.69395109272e-13
9.43755692107e-13
8.80787732448e-13
7.6834509432e-13
6.00743202359e-13
4.38778384125e-13
3.47821004576e-13
3.12776070543e-13
3.04225477753e-13
3.06512860957e-13
3.36786880636e-13
4.90146607477e-13
8.1323781073e-13
1.16144457241e-12
9.44474476932e-13
9.4951631884e-13
9.41758176353e-13
9.27230141561e-13
9.13668753228e-13
9.03035368268e-13
8.87074457191e-13
8.50811290884e-13
7.7849099776e-13
6.60629689361e-13
5.09704402744e-13
3.89895083163e-13
3.29612684828e-13
3.08128858466e-13
3.03441825718e-13
3.08431049685e-13
3.49003024714e-13
5.28453607161e-13
8.42358068402e-13
1.17388369838e-12
9.17331691442e-13
9.19918827226e-13
9.07851390564e-13
8.85922505004e-13
8.6106661607e-13
8.36339982275e-13
8.06295707048e-13
7.58093056838e-13
6.78062761516e-13
5.6399333844e-13
4.41142650681e-13
3.57030718416e-13
3.18168223451e-13
3.0520681852e-13
3.02961603641e-13
3.10704853753e-13
3.62816148988e-13
5.66798802562e-13
8.67278932163e-13
1.18380484498e-12
8.87482665427e-13
8.87878020915e-13
8.7210927102e-13
8.43996635151e-13
8.09510708602e-13
7.72049209945e-13
7.28551992859e-13
6.69663038073e-13
5.86512585031e-13
4.84687833679e-13
3.91771858933e-13
3.35177606846e-13
3.10924369009e-13
3.0322793353e-13
3.02598039812e-13
3.13188792735e-13
3.77902867401e-13
6.0417467574e-13
8.88841707358e-13
1.1928276212e-12
8.54121904872e-13
8.52452514515e-13
8.33393583712e-13
8.00072914724e-13
7.57687607987e-13
7.09757093526e-13
6.55374575205e-13
5.89466773307e-13
5.08989144545e-13
4.2431454192e-13
3.57712151923e-13
3.2105146964e-13
3.06328271574e-13
3.01772125332e-13
3.02263616734e-13
3.15781634845e-13
3.94060379962e-13
6.39896931877e-13
9.07973794894e-13
1.20199294843e-12
8.16414642399e-13
8.12698274544e-13
7.90689919812e-13
7.53077689258e-13
7.04644633169e-13
6.49216500256e-13
5.8798257415e-13
5.20069833088e-13
4.47306123922e-13
3.80936117935e-13
3.35161141271e-13
3.12170508785e-13
3.03348033386e-13
3.00607268777e-13
3.01931850396e-13
3.18473927622e-13
4.1130055036e-13
6.73850907529e-13
9.25801858362e-13
1.21186685932e-12
7.73434885219e-13
7.67721176124e-13
7.43195440753e-13
7.02366114291e-13
6.49983945894e-13
5.90507859117e-13
5.27103328909e-13
4.62227775748e-13
4.00483636865e-13
3.51053749106e-13
3.20703096032e-13
3.0662217768e-13
3.01300606452e-13
2.99612148255e-13
3.0162124346e-13
3.21347136605e-13
4.29980318649e-13
7.06666094221e-13
9.4320876866e-13
1.22257945172e-12
7.24401829496e-13
7.16826998808e-13
6.90438380929e-13
6.47782446588e-13
5.938806087e-13
5.34038953669e-13
4.73035759555e-13
4.15322154455e-13
3.66059729616e-13
3.31012184081e-13
3.11551938001e-13
3.03053031683e-13
2.99776354433e-13
2.98739847348e-13
3.01380645691e-13
3.24633385329e-13
4.50798482514e-13
7.38269283266e-13
9.60823885733e-13
1.23404960086e-12
6.6885698689e-13
6.59757300527e-13
6.32487959894e-13
5.89803093522e-13
5.37146714545e-13
4.80623160804e-13
4.25970108341e-13
3.78192107812e-13
3.41342796811e-13
3.17761424897e-13
3.05704149183e-13
3.00627030521e-13
2.98571123022e-13
2.97994116812e-13
3.01299558941e-13
3.28697568483e-13
4.74363975587e-13
7.68554283014e-13
9.79094466203e-13
1.2461557857e-12
6.07108426104e-13
5.97084971588e-13
5.70307433262e-13
5.29802374567e-13
4.81383263703e-13
4.31601310987e-13
3.86270206327e-13
3.49691976261e-13
3.24042392622e-13
3.09080081047e-13
3.01890060238e-13
2.98900536008e-13
2.97610986165e-13
2.97406065756e-13
3.01482329296e-13
3.33937937522e-13
5.01150883545e-13
7.97555548971e-13
9.98207780056e-13
1.25888760032e-12
5.40924431498e-13
5.30847296232e-13
5.06272858826e-13
4.70425631314e-13
4.29184088859e-13
3.88857594785e-13
3.54455570594e-13
3.28839621621e-13
3.12367693719e-13
3.03481925571e-13
2.99380697402e-13
2.97667363986e-13
2.96884546554e-13
2.97010446518e-13
3.02040331263e-13
3.40818944626e-13
5.31460435115e-13
8.25440813602e-13
1.01831164839e-12
1.27213259824e-12
4.74344952074e-13
4.65253661483e-13
4.44684083052e-13
4.15764560471e-13
3.83870534055e-13
3.54357425526e-13
3.30812672798e-13
3.14576270431e-13
3.04890708519e-13
2.99989824848e-13
2.97768546063e-13
2.9683362804e-13
2.96393705632e-13
2.9683563376e-13
3.03097365907e-13
3.49862847452e-13
5.65295483188e-13
8.5242415227e-13
1.03949882812e-12
1.28595880353e-12
4.13711298642e-13
4.06467874768e-13
3.91122539967e-13
3.70352442049e-13
3.48433676754e-13
3.29241386586e-13
3.14869308518e-13
3.05621944974e-13
3.00431396304e-13
2.97941686694e-13
2.9680582361e-13
2.96337485832e-13
2.96128509969e-13
2.9689689586e-13
3.04790522558e-13
3.61628685797e-13
6.023606023e-13
8.78852237437e-13
1.0619824141e-12
1.30040531885e-12
3.6530666793e-13
3.60295702114e-13
3.5030598317e-13
3.37265795738e-13
3.24056639272e-13
3.13061221222e-13
3.05267267993e-13
3.00547132491e-13
2.980139097e-13
2.96862090795e-13
2.96313485281e-13
2.96114861288e-13
2.96062046739e-13
2.97199163839e-13
3.07270273521e-13
3.76637234579e-13
6.41967063284e-13
9.04978769864e-13
1.08589995772e-12
1.31554505091e-12
3.32211568641e-13
3.2921815023e-13
3.23579994965e-13
3.16455668397e-13
3.09484576992e-13
3.03929887844e-13
3.00162550746e-13
2.98004151428e-13
2.96874616272e-13
2.96400983255e-13
2.96146656433e-13
2.96096942106e-13
2.96157466817e-13
2.97746996942e-13
3.10709758912e-13
3.95382452902e-13
6.83326259826e-13
9.31192499691e-13
1.11154543385e-12
1.33149677693e-12
3.12934899215e-13
3.11373644919e-13
3.08595448246e-13
3.0518462257e-13
3.01936995004e-13
2.99447231871e-13
2.9781247502e-13
2.96932794476e-13
2.96468297807e-13
2.96308162024e-13
2.9618897282e-13
2.96219055361e-13
2.96378170169e-13
2.98554054362e-13
3.15310376168e-13
4.18278909524e-13
7.25520616177e-13
9.57812228017e-13
1.13910363512e-12
1.34845112232e-12
3.03316096613e-13
3.02585001674e-13
3.01372928485e-13
2.99926185274e-13
2.98575619966e-13
2.9758115791e-13
2.9693838047e-13
2.96626553038e-13
2.96444669142e-13
2.96415935601e-13
2.96352811664e-13
2.96427455674e-13
2.96695459361e-13
2.99653197669e-13
3.21337330096e-13
4.45816357599e-13
7.68006499991e-13
9.85394907308e-13
1.16896862147e-12
1.36679459019e-12
2.99206966086e-13
2.98881193625e-13
2.98405167453e-13
2.97857811723e-13
2.97351412344e-13
2.96999871633e-13
2.96766529464e-13
2.96679587002e-13
2.96604345117e-13
2.966245958e-13
2.96581961359e-13
2.96686866967e-13
2.97098007547e-13
3.0111651175e-13
3.29194995604e-13
4.7871193997e-13
8.10655247039e-13
1.0146398852e-12
1.20155164268e-12
1.38709630635e-12
2.97768067462e-13
2.97611807508e-13
2.97439342691e-13
2.97255955212e-13
2.97083355026e-13
2.96978409235e-13
2.96896006849e-13
2.9688859691e-13
2.96848726131e-13
2.96884980652e-13
2.96849714768e-13
2.96984601164e-13
2.97600503053e-13
3.03084247047e-13
3.39557463453e-13
5.18133042372e-13
8.5385530274e-13
1.04651213611e-12
1.23756175858e-12
1.41036110328e-12
2.97471195402e-13
2.97374882568e-13
2.97312748832e-13
2.97260040223e-13
2.9720497328e-13
2.97183832629e-13
2.97150459797e-13
2.97167290679e-13
2.97137378533e-13
2.97178018076e-13
2.97147914055e-13
2.97323946285e-13
2.98245231533e-13
3.05803975218e-13
3.53559037857e-13
5.65868360113e-13
8.98523911908e-13
1.08232031125e-12
1.27791152073e-12
1.43793819462e-12
2.97614562907e-13
2.97534494278e-13
2.97507122163e-13
2.97495289983e-13
2.97476915698e-13
2.97480076759e-13
2.97460836272e-13
2.97483256711e-13
2.9745644381e-13
2.97498239035e-13
2.9747644601e-13
2.97715528447e-13
2.99096259182e-13
3.0962463191e-13
3.72699695188e-13
6.23160047532e-13
9.453070104e-13
1.12345346005e-12
1.32375617798e-12
1.47171478384e-12
2.97896451831e-13
2.97817402255e-13
2.97799715931e-13
2.97798699583e-13
2.97791511313e-13
2.97800866181e-13
2.97787132149e-13
2.97811327589e-13
2.97788675962e-13
2.97833539291e-13
2.97827748635e-13
2.98162202538e-13
3.00205676448e-13
3.14864085118e-13
3.98264921222e-13
6.89078630257e-13
9.94424488926e-13
1.17104716361e-12
1.37622376208e-12
1.51345128261e-12
2.98176582859e-13
2.98095385446e-13
2.98079898244e-13
2.98081922487e-13
2.98078943564e-13
2.98090525373e-13
2.98081525765e-13
2.98107853883e-13
2.98092649325e-13
2.98142926394e-13
2.98161347625e-13
2.9861312941e-13
3.0145351651e-13
3.20958194703e-13
4.27256465095e-13
7.53799954662e-13
1.04253160402e-12
1.22380005722e-12
1.43522906415e-12
1.56320731969e-12
2.98351787659e-13
2.9826791814e-13
2.9825303962e-13
2.98256067685e-13
2.98256688471e-13
2.98269080368e-13
2.98266107162e-13
2.98294882394e-13
2.98288735813e-13
2.98346762914e-13
2.98386298109e-13
2.98931996629e-13
3.02373617415e-13
3.25648868035e-13
4.4967167316e-13
8.00193246625e-13
1.08187075771e-12
1.2757757261e-12
1.49904137198e-12
1.61699537664e-12
2.98397064381e-13
2.98308883512e-13
2.98293971501e-13
2.98296960103e-13
2.9829966981e-13
2.98311804523e-13
2.98312168522e-13
2.98341995176e-13
2.98340106059e-13
2.98401251847e-13
2.98440959486e-13
2.98958745564e-13
3.02191036301e-13
3.24449782681e-13
4.46243603587e-13
8.06044184589e-13
1.10469264826e-12
1.32027597633e-12
1.56426411289e-12
1.66667975268e-12
2.99192328171e-13
2.99101664362e-13
2.99086079584e-13
2.99089314216e-13
2.99090273346e-13
2.99101347598e-13
2.99099722095e-13
2.99126336102e-13
2.99122521178e-13
2.99175167531e-13
2.99196878452e-13
2.9956231354e-13
3.01810057565e-13
3.17965898542e-13
4.12425007041e-13
7.47938221658e-13
1.09559321374e-12
1.34558920844e-12
1.62256363539e-12
1.70273680735e-12
3.11086794609e-13
3.11025575303e-13
3.11021172544e-13
3.11030376699e-13
3.11031726712e-13
3.11045294247e-13
3.11043993828e-13
3.11071499172e-13
3.11071224556e-13
3.11120297976e-13
3.11141702488e-13
3.11370507634e-13
3.12674758408e-13
3.22163250292e-13
3.8109257518e-13
6.40305608763e-13
1.0407619402e-12
1.33793685177e-12
1.66043567663e-12
1.71878400629e-12
4.00005768258e-13
4.000939796e-13
4.00144490264e-13
4.00194398568e-13
4.00220583769e-13
4.00275150066e-13
4.00320841727e-13
4.00401541548e-13
4.00497399887e-13
4.00607503761e-13
4.0082052246e-13
4.01047851031e-13
4.02183025082e-13
4.07085517117e-13
4.37338060514e-13
5.82596184775e-13
9.36980922058e-13
1.29457916728e-12
1.66731582752e-12
1.69943360667e-12
1.89337675441e-12
3.34352053956e-12
1.93382873561e-12
3.60215309005e-12
1.96688790454e-12
3.83586968699e-12
1.98922760997e-12
4.02795787714e-12
2.00298801065e-12
4.18610053169e-12
2.01131609382e-12
4.32365069455e-12
2.01775930171e-12
4.45190616075e-12
2.02459350705e-12
4.57842632679e-12
2.0343102729e-12
4.70421620725e-12
2.04754707734e-12
4.82924980702e-12
2.06451002055e-12
4.95163207048e-12
2.08513096829e-12
5.06924030173e-12
2.10811037328e-12
5.18121348524e-12
2.13235862552e-12
5.2878302051e-12
2.15849692646e-12
5.39183609511e-12
2.18604178936e-12
5.49393068864e-12
2.2147612249e-12
5.59525603959e-12
2.24470144871e-12
5.69739772127e-12
2.27541625421e-12
5.80284637559e-12
2.30767473251e-12
5.91452103188e-12
2.34163516318e-12
6.03537996217e-12
2.37771331127e-12
6.16852270127e-12
2.41600393306e-12
6.31479142063e-12
2.45646582612e-12
6.47259940666e-12
2.49851327128e-12
6.63683759026e-12
2.5397412583e-12
6.79649481848e-12
2.5715058334e-12
6.9300507001e-12
2.57539764738e-12
6.98216470508e-12
2.53139729111e-12
6.84302403148e-12
2.42966056599e-12
6.41849841797e-12
2.27673341239e-12
5.7249709083e-12
2.03547153906e-12
4.80886666245e-12
)
;

boundaryField
{
    inletfuel
    {
        type            calculated;
        value           nonuniform 0();
    }
    inletair
    {
        type            calculated;
        value           nonuniform 0();
    }
    outlet
    {
        type            calculated;
        value           uniform 0;
    }
    axis
    {
        type            empty;
    }
    leftside
    {
        type            calculated;
        value           uniform 0;
    }
    burnerwall
    {
        type            calculated;
        value           nonuniform 0();
    }
    front
    {
        type            wedge;
    }
    back
    {
        type            wedge;
    }
    procBoundary1to0
    {
        type            processor;
        value           uniform 0;
    }
}


// ************************************************************************* //
