/*--------------------------------*- C++ -*----------------------------------*\
  =========                 |
  \\      /  F ield         | OpenFOAM: The Open Source CFD Toolbox
   \\    /   O peration     | Website:  https://openfoam.org
    \\  /    A nd           | Version:  7
     \\/     M anipulation  |
\*---------------------------------------------------------------------------*/
FoamFile
{
    version     2.0;
    format      ascii;
    class       surfaceScalarField;
    location    "0.02";
    object      phi;
}
// * * * * * * * * * * * * * * * * * * * * * * * * * * * * * * * * * * * * * //

dimensions      [1 0 -1 0 0 0 0];

internalField   nonuniform List<scalar> 
1572
(
-2.78385245795e-09
-6.87263253065e-08
-1.06972522012e-08
-2.08624575839e-07
-3.46037476505e-07
-2.38990687559e-08
-3.32793220717e-09
-6.89028771532e-08
-1.32173335031e-08
-2.09285649763e-07
-3.47438545844e-07
-2.94574804097e-08
-4.11254664175e-09
-6.84002385122e-08
-1.64509348017e-08
-2.07776074455e-07
-3.44911940843e-07
-3.71179894241e-08
-5.21232762031e-09
-6.69940131745e-08
-2.09312004397e-08
-2.03510675022e-07
-3.37694250845e-07
-4.72187335541e-08
-6.35967558811e-09
-6.45093264713e-08
-2.54435135868e-08
-1.96049572197e-07
-3.250764681e-07
-5.74716459986e-08
-7.29942413486e-09
-6.11990719102e-08
-2.932481692e-08
-1.86056101294e-07
-3.08177531502e-07
-6.62303243439e-08
-8.11958500682e-09
-5.70745937384e-08
-3.25941547826e-08
-1.73594731853e-07
-2.87211780116e-07
-7.35376613762e-08
-8.76080264379e-09
-5.22686596994e-08
-3.52776667208e-08
-1.58962702072e-07
-2.62719280349e-07
-7.96214311541e-08
-9.33585378919e-09
-4.68432454062e-08
-3.76642300521e-08
-1.4240791323e-07
-2.34873218412e-07
-8.49608213754e-08
-9.87101724673e-09
-4.06100082879e-08
-3.9694619068e-08
-1.23524003084e-07
-2.03239395574e-07
-8.94727852734e-08
-1.02819810864e-08
-3.36080113227e-08
-4.13145663793e-08
-1.02297691945e-07
-1.67715337049e-07
-9.31140475899e-08
-1.06306461323e-08
-2.56991434477e-08
-4.26693426016e-08
-7.83974368442e-08
-1.27917532599e-07
-9.5918094671e-08
-1.06568389088e-08
-1.68895101119e-08
-4.28566880964e-08
-5.18360868533e-08
-8.3870777138e-08
-9.60575973942e-08
-1.03115061821e-08
-7.25819164856e-09
-4.10765031511e-08
-2.28905470165e-08
-3.60561666591e-08
-9.20429681618e-08
-8.91944049395e-09
2.13342753468e-09
-3.58352236543e-08
5.3236065389e-09
1.01621759478e-08
-7.99064777896e-08
-7.85270416564e-09
1.0517508547e-08
-3.10862651309e-08
3.00909703819e-08
5.09721050994e-08
-6.9373700237e-08
-7.25566777814e-09
1.80827369466e-08
-2.87508696428e-08
5.25090132542e-08
8.77957345711e-08
-6.40142604939e-08
-6.43599265501e-09
2.4618803379e-08
-2.56049067837e-08
7.19947062626e-08
1.19787913252e-07
-5.70833818574e-08
-5.67012867707e-09
3.02396933327e-08
-2.26630689548e-08
8.8847082854e-08
1.47511950683e-07
-5.06637553244e-08
-5.34147018234e-09
3.51547007166e-08
-2.13326873104e-08
1.03568973362e-07
1.718478855e-07
-4.76898455231e-08
-4.74833820572e-09
3.98218709642e-08
-1.91225319439e-08
1.17653036278e-07
1.95194356237e-07
-4.29641979877e-08
-4.55697174412e-09
4.45606793262e-08
-1.8296918885e-08
1.31917964287e-07
2.18957177837e-07
-4.1310724524e-08
-5.11769424318e-09
4.92333633483e-08
-2.04437347818e-08
1.45942463874e-07
2.4245664204e-07
-4.60652706899e-08
-5.57802227157e-09
5.43039157815e-08
-2.23345971109e-08
1.61214334299e-07
2.67896992058e-07
-5.02446536251e-08
-6.06711859977e-09
6.00741950756e-08
-2.43904362149e-08
1.78642375757e-07
2.96760568663e-07
-5.47315589105e-08
-6.0895304859e-09
6.60835499434e-08
-2.44577546761e-08
1.96773139557e-07
3.26979164456e-07
-5.51011100841e-08
-5.78455291429e-09
7.19586573038e-08
-2.3069078483e-08
2.14313463775e-07
3.56451974398e-07
-5.2133858492e-08
-4.96190641987e-09
7.70978306883e-08
-1.97422420473e-08
2.29604116896e-07
3.819979249e-07
-4.44483009858e-08
-3.27779050448e-09
8.0490318316e-08
-1.32717840973e-08
2.3994002905e-07
3.99207633601e-07
-2.99110134107e-08
-1.6224614231e-09
8.21998099123e-08
-6.48686756993e-09
2.45050021406e-07
4.07673323267e-07
-1.4553372169e-08
-4.92236753894e-10
-2.18566337904e-09
-5.01991329993e-09
-4.11122921115e-07
-3.93779131674e-08
-4.12796711862e-07
-4.90183803575e-08
-4.09584119031e-07
-6.20545813157e-08
-4.0053112393e-07
-7.91824294184e-08
-3.85216930556e-07
-9.60310408522e-08
-3.64675228591e-07
-1.10876826715e-07
-3.39222296064e-07
-1.2296222459e-07
-3.09574285743e-07
-1.33261685305e-07
-2.75906675312e-07
-1.4198837489e-07
-2.37870653647e-07
-1.49373108172e-07
-1.9523972084e-07
-1.55411621916e-07
-1.47719708147e-07
-1.59764580956e-07
-9.53522015415e-08
-1.5952382263e-07
-3.87085848566e-08
-1.52776555744e-07
1.51728743147e-08
-1.31413902219e-07
6.34146404607e-08
-1.14605452736e-07
1.06804752494e-07
-1.05558244806e-07
1.44531502804e-07
-9.42346620049e-08
1.77290799168e-07
-8.38065569526e-08
2.0602792837e-07
-7.88580710844e-08
2.33900576712e-07
-7.1481810947e-08
2.62292560887e-07
-6.88585741677e-08
2.9045974295e-07
-7.67536907744e-08
3.20950131792e-07
-8.36826426474e-08
3.55155207721e-07
-9.07052686637e-08
3.91333929351e-07
-9.17958890681e-08
4.26884308514e-07
-8.72078002889e-08
4.5762532547e-07
-7.41949708571e-08
4.78382169046e-07
-4.99845047056e-08
4.88386315168e-07
-2.40884300157e-08
-8.48828748162e-09
-1.86005215164e-05
1.45254748385e-05
-1.78377628377e-05
2.16075989971e-05
-1.6770778047e-05
2.80460525264e-05
-1.55690085404e-05
3.37832367033e-05
-1.31563293588e-05
3.66304033625e-05
-8.10543204152e-06
2.98281255357e-05
-1.71938727379e-05
1.02613850755e-08
-9.73089378286e-08
-1.50046035815e-06
-1.91517578715e-07
-2.29766935348e-06
-3.33244465012e-07
-3.18635539162e-06
-5.3617461421e-07
-4.14687002413e-06
-8.19521423445e-07
-5.14475081083e-06
-1.20992403313e-06
-6.12714946707e-06
-1.77103006971e-06
-7.03169235991e-06
-2.61518131693e-06
-7.79777478544e-06
-4.02929046686e-06
-8.42803608543e-06
-6.6030175824e-06
-8.78952570969e-06
-1.19838831075e-05
-8.13116238012e-06
-1.75335157327e-05
-2.04373835361e-06
-1.99987118291e-05
5.52428441715e-06
-2.02303823859e-05
1.30888309333e-05
-1.95013008945e-05
1.93470327678e-05
-1.84044934705e-05
2.5220249272e-05
-1.70112693865e-05
3.05200459517e-05
-1.41136206872e-05
3.22805286659e-05
-8.09474654783e-06
2.31012142249e-05
-2.84289835834e-05
9.400393477e-07
-1.22292990297e-07
-1.50763391835e-06
-2.42105042256e-07
-2.3121235059e-06
-4.26300184289e-07
-3.21195824144e-06
-6.99875021496e-07
-4.18760334265e-06
-1.09379108344e-06
-5.20355390966e-06
-1.64868367387e-06
-6.19978877602e-06
-2.43541683582e-06
-7.08723618902e-06
-3.58420520434e-06
-7.75778086535e-06
-5.37637075095e-06
-8.09361009443e-06
-8.39834240693e-06
-7.87475923147e-06
-1.38030805111e-05
-6.23343198963e-06
-1.83063341461e-05
-6.52202310977e-07
-2.04781782445e-05
5.57779054718e-06
-2.08592884458e-05
1.18765067252e-05
-2.0349199959e-05
1.73011577263e-05
-1.93416229003e-05
2.25230137415e-05
-1.79179478411e-05
2.73514871596e-05
-1.47821385265e-05
2.79436506416e-05
-8.16685726871e-06
1.60767227307e-05
-4.00395984025e-05
1.3515772577e-06
-1.56746602323e-07
-1.49508425326e-06
-3.13678441816e-07
-2.29120346395e-06
-5.57251931057e-07
-3.17971813714e-06
-9.21123037349e-07
-4.13909383011e-06
-1.44907221602e-06
-5.13104706474e-06
-2.19572610594e-06
-6.08838016877e-06
-3.24061408438e-06
-6.90042215589e-06
-4.71257883107e-06
-7.41558086117e-06
-6.84588789742e-06
-7.42879146506e-06
-1.00800717298e-05
-6.65240413778e-06
-1.482726225e-05
-4.28288715811e-06
-1.84012974631e-05
3.77410336489e-07
-2.02856689242e-05
5.61663339316e-06
-2.07377967596e-05
1.08728860636e-05
-2.04845434166e-05
1.56128047217e-05
-1.97155789768e-05
2.01668175459e-05
-1.83939391509e-05
2.44546393091e-05
-1.52308947834e-05
2.3871159993e-05
-8.17831189865e-06
8.9406508802e-06
-5.14877007781e-05
1.30761838673e-06
-2.00099791293e-07
-1.45980364215e-06
-4.00427027754e-07
-2.23108892491e-06
-7.08944599556e-07
-3.08523900685e-06
-1.16659387175e-06
-3.99597830025e-06
-1.82537321364e-06
-4.92057690912e-06
-2.75029608043e-06
-5.7835509903e-06
-4.0229784007e-06
-6.46009272585e-06
-5.7560236424e-06
-6.7679347976e-06
-8.11005482343e-06
-6.46400712902e-06
-1.13206085467e-05
-5.24668916878e-06
-1.51909693466e-05
-2.56935836337e-06
-1.80354177081e-05
1.29703349423e-06
-1.95924169137e-05
5.73974146067e-06
-2.00907562479e-05
1.0112663499e-05
-2.01195264735e-05
1.43080814937e-05
-1.96637490257e-05
1.82361647146e-05
-1.85265993939e-05
2.19295458869e-05
-1.54658660017e-05
2.02141155288e-05
-8.12149809767e-06
1.8631836557e-06
-6.25411280769e-05
1.10975055516e-06
-2.41392622138e-07
-1.4011602366e-06
-4.8055147263e-07
-2.13258581025e-06
-8.4661861185e-07
-2.93197189564e-06
-1.38480598642e-06
-3.76730178868e-06
-2.15330817603e-06
-4.59014957252e-06
-3.22355410816e-06
-5.31709792502e-06
-4.67390602473e-06
-5.815253257e-06
-6.5869434674e-06
-5.88727767022e-06
-9.02665381596e-06
-5.28811652472e-06
-1.1978919673e-05
-3.77221058751e-06
-1.50086193089e-05
-1.12046133033e-06
-1.72422242515e-05
2.1463712861e-06
-1.85908182525e-05
5.9124914017e-06
-1.91848268134e-05
9.57697117286e-06
-1.94459160627e-05
1.33282196253e-05
-1.92997748036e-05
1.67331192765e-05
-1.83645301045e-05
1.98085561491e-05
-1.54182535036e-05
1.70095092385e-05
-7.93473238369e-06
-4.98561446869e-06
-7.31055989821e-05
9.26602991117e-07
-2.78597418491e-07
-1.32238994672e-06
-5.52983218124e-07
-2.00077986363e-06
-9.6799586721e-07
-2.72819567068e-06
-1.56904072843e-06
-3.46588101547e-06
-2.4129052826e-06
-4.15914540549e-06
-3.56464620005e-06
-4.72051124297e-06
-5.09008263697e-06
-5.01849484101e-06
-7.04030865753e-06
-4.86386226114e-06
-9.41351262844e-06
-4.04093343369e-06
-1.20538907036e-05
-2.38744878909e-06
-1.43936969946e-05
5.72741866995e-09
-1.62435190733e-05
2.88646750332e-06
-1.74367076051e-05
6.11587153069e-06
-1.81354901823e-05
9.25655848246e-06
-1.85788408548e-05
1.26276776372e-05
-1.86923815054e-05
1.56293956974e-05
-1.79481048932e-05
1.81002131437e-05
-1.51052652606e-05
1.42173421138e-05
-7.57972465537e-06
-1.16251176364e-05
-8.30206980085e-05
7.30833367633e-07
-3.07937579016e-07
-1.22556452333e-06
-6.08429266139e-07
-1.84004607532e-06
-1.05909049642e-06
-2.48248772848e-06
-1.7043741654e-06
-3.10772888162e-06
-2.59817901063e-06
-3.65546485238e-06
-3.79659529131e-06
-4.03714956448e-06
-5.3416488357e-06
-4.12718857201e-06
-7.22900250976e-06
-3.76115082764e-06
-9.37959352255e-06
-2.78088149373e-06
-1.16213836128e-05
-1.13380818414e-06
-1.35715467788e-05
9.8254525569e-07
-1.51222766667e-05
3.55883803654e-06
-1.62264621803e-05
6.36396743155e-06
-1.70282871649e-05
9.13569352716e-06
-1.76090158868e-05
1.21828350888e-05
-1.79211822153e-05
1.49026176392e-05
-1.73660743167e-05
1.68266827707e-05
-1.46265888612e-05
1.18333218581e-05
-7.08139730056e-06
-1.79002368738e-05
-9.23347972545e-05
6.65189637672e-07
-3.33383022874e-07
-1.11309396985e-06
-6.56178138408e-07
-1.65486749418e-06
-1.1347165114e-06
-2.20163215362e-06
-1.8073355848e-06
-2.7035091274e-06
-2.71628843955e-06
-3.09697940704e-06
-3.90156007909e-06
-3.29655504383e-06
-5.38903038695e-06
-3.19444441182e-06
-7.16507876116e-06
-2.6605289215e-06
-9.11206498862e-06
-1.58615287081e-06
-1.09367195422e-05
-4.40278626103e-08
-1.2612703205e-05
1.90586729274e-06
-1.39687611474e-05
4.19884553536e-06
-1.50215199827e-05
6.68457047346e-06
-1.58978364947e-05
9.21393577802e-06
-1.65851842913e-05
1.20059226385e-05
-1.70538986076e-05
1.45354092843e-05
-1.66896363081e-05
1.59693690575e-05
-1.39729904604e-05
9.78758638062e-06
-6.49717810415e-06
-2.37771678135e-05
-0.000100867582893
5.29543925256e-07
-3.54008847086e-07
-9.85278479746e-07
-6.92122107273e-07
-1.44634989449e-06
-1.18679306194e-06
-1.88952369228e-06
-1.87156231557e-06
-2.26229196113e-06
-2.78184931482e-06
-2.50064881906e-06
-3.94461773738e-06
-2.52674017147e-06
-5.35404956377e-06
-2.2511824913e-06
-6.94504941773e-06
-1.57678109037e-06
-8.62780973403e-06
-4.66267537129e-07
-1.01943649196e-05
9.24885339042e-07
-1.16403781429e-05
2.77298509176e-06
-1.28546598926e-05
4.84138266595e-06
-1.38719898695e-05
7.10738316768e-06
-1.47825181067e-05
9.48399975667e-06
-1.55649465978e-05
1.21134018004e-05
-1.61871331109e-05
1.45308537828e-05
-1.59934040688e-05
1.55206931608e-05
-1.32061434273e-05
8.03715011513e-06
-5.87450159001e-06
-2.92000576119e-05
-0.000108639125474
4.28899185993e-07
-3.71005663958e-07
-8.42071776006e-07
-7.21693596238e-07
-1.21530098569e-06
-1.22859650296e-06
-1.54887584145e-06
-1.91826883204e-06
-1.78981262312e-06
-2.81134415953e-06
-1.87670056105e-06
-3.90967921648e-06
-1.74200245653e-06
-5.19648491862e-06
-1.32007478965e-06
-6.65321318773e-06
-5.53538642459e-07
-8.0191156072e-06
4.69290119447e-07
-9.41924856908e-06
1.88104478931e-06
-1.06846489079e-05
3.61350596225e-06
-1.17881827859e-05
5.52675739227e-06
-1.2778019626e-05
7.66493712852e-06
-1.3720182631e-05
9.96477138781e-06
-1.46203357463e-05
1.25291314782e-05
-1.54230200637e-05
1.4914600372e-05
-1.54085912207e-05
1.55774704522e-05
-1.2542285999e-05
6.72981496294e-06
-5.31792929665e-06
-3.41596450072e-05
-0.000115651777635
3.75074084561e-07
-3.84401849196e-07
-6.8278987802e-07
-7.42807402358e-07
-9.61830296773e-07
-1.25240430609e-06
-1.18162528342e-06
-1.93085778491e-06
-1.29101766515e-06
-2.78533627505e-06
-1.23425945327e-06
-3.81577540132e-06
-9.56430282344e-07
-5.01605938972e-06
-4.16339705391e-07
-6.17518772048e-06
3.32774183508e-07
-7.42607596512e-06
1.41675554583e-06
-8.63911935622e-06
2.80830035268e-06
-9.74922034079e-06
4.45994601058e-06
-1.07661670072e-05
6.2917153701e-06
-1.17431791811e-05
8.38416372523e-06
-1.27371588242e-05
1.06795347555e-05
-1.37729878803e-05
1.32680247768e-05
-1.47445430669e-05
1.56819098646e-05
-1.48889253483e-05
1.61015530138e-05
-1.19370589573e-05
5.74202284695e-06
-4.83634850148e-06
-3.8682540344e-05
-0.000121890615753
2.32697354506e-07
-3.92436800316e-07
-5.07030352894e-07
-7.5174142164e-07
-6.86521678942e-07
-1.25391756197e-06
-7.90363428382e-07
-1.90755352039e-06
-7.71425300349e-07
-2.71192907692e-06
-5.80909813377e-07
-3.66415484784e-06
-1.8095932918e-07
-4.61420608467e-06
3.73787665337e-07
-5.68210861996e-06
1.21947678403e-06
-6.77577611869e-06
2.34867836611e-06
-7.82955392505e-06
3.73034975343e-06
-8.82272765027e-06
5.34966281847e-06
-9.79214957368e-06
7.1761501203e-06
-1.0784709893e-05
9.29144404386e-06
-1.18735439843e-05
1.16592704419e-05
-1.30752588203e-05
1.43430864365e-05
-1.42296471936e-05
1.68442825786e-05
-1.45130897865e-05
1.70852188635e-05
-1.14842903113e-05
5.12167396095e-06
-4.53462327687e-06
-4.27149567781e-05
-0.00012752081843
1.32391221172e-07
-3.88806426432e-07
-3.15164580298e-07
-7.37684662591e-07
-3.90550407846e-07
-1.21748170156e-06
-3.77961601771e-07
-1.83370586419e-06
-2.34124606046e-07
-2.54536229488e-06
4.44338369625e-08
-3.30109494464e-06
4.93650693545e-07
-4.18150847551e-06
1.17612098736e-06
-5.11474695799e-06
2.10193526049e-06
-6.05643992553e-06
3.27470718354e-06
-6.98591289577e-06
4.6787095942e-06
-7.91271530356e-06
6.31930251474e-06
-8.8955099512e-06
8.2076854469e-06
-9.97462333128e-06
1.04066615313e-05
-1.12163350942e-05
1.29213413507e-05
-1.25983517166e-05
1.57820357735e-05
-1.39200358271e-05
1.84471640974e-05
-1.43326598506e-05
1.85425185105e-05
-1.11736396629e-05
4.79825463363e-06
-4.28542553625e-06
-4.64161556709e-05
-0.000132613284993
6.61384345092e-09
-3.70992302927e-07
-1.09432683538e-07
-7.01123436322e-07
-7.71635004387e-08
-1.12169241721e-06
3.12977690521e-08
-1.61269644409e-06
2.52851737187e-07
-2.20194487415e-06
6.35577766413e-07
-2.89218047694e-06
1.20510232653e-06
-3.65343600387e-06
1.98314377251e-06
-4.46184329472e-06
2.98236288225e-06
-5.29993498194e-06
4.20861199984e-06
-6.17441473786e-06
5.66673760901e-06
-7.11190197663e-06
7.37847433158e-06
-8.16629274902e-06
9.38102286565e-06
-9.37528341917e-06
1.17273590377e-05
-1.07828729548e-05
1.44523177699e-05
-1.23548285889e-05
1.75577224658e-05
-1.38873608144e-05
2.04412526437e-05
-1.44256809939e-05
2.03848437804e-05
-1.10788228039e-05
4.72836386705e-06
-4.18784390149e-06
-4.98675430763e-05
-0.000137373556148
-7.75344048782e-08
-3.11410307573e-07
8.02471332983e-08
-5.66475736784e-07
1.96402171085e-07
-9.16560032237e-07
4.0594704223e-07
-1.3654453735e-06
7.40486767408e-07
-1.90044073015e-06
1.22894442622e-06
-2.50879671414e-06
1.8960270757e-06
-3.17804909949e-06
2.76026779438e-06
-3.90157196202e-06
3.83621258848e-06
-4.68487688933e-06
5.13787731359e-06
-5.55192301774e-06
6.68697557507e-06
-6.53985697348e-06
8.51919067036e-06
-7.69064440269e-06
1.06819392066e-05
-9.04148366806e-06
1.32359774401e-05
-1.06168192971e-05
1.62253427907e-05
-1.23930466407e-05
1.96362541954e-05
-1.41478113931e-05
2.27733487955e-05
-1.47564577226e-05
2.25186599664e-05
-1.11307309862e-05
4.77783840825e-06
-4.20723900073e-06
-5.31817596123e-05
-0.00014197436212
-1.9282220818e-07
-2.75879371296e-07
2.54173216287e-07
-5.15001091349e-07
4.58612238682e-07
-8.34082892254e-07
7.62028483524e-07
-1.23161622375e-06
1.19255937006e-06
-1.703779931e-06
1.77540165549e-06
-2.24570258012e-06
2.53300543897e-06
-2.85560985956e-06
3.48434117e-06
-3.53966086096e-06
4.64996680573e-06
-4.31601528496e-06
6.05395970868e-06
-5.21465486211e-06
7.73023129121e-06
-6.27290707832e-06
9.72482300899e-06
-7.52645536659e-06
1.20912071871e-05
-9.01509505788e-06
1.49048941154e-05
-1.07656739407e-05
1.82070633605e-05
-1.2771523713e-05
2.19711594728e-05
-1.47671774999e-05
2.53873618348e-05
-1.53895207976e-05
2.48569056652e-05
-1.14063865019e-05
4.8602605035e-06
-4.37240064446e-06
-5.64850802109e-05
-0.000146610913081
-3.26296601221e-07
-2.53242659051e-07
4.09572822706e-07
-4.72689654172e-07
6.9130167074e-07
-7.66486112758e-07
1.07608687938e-06
-1.13526789789e-06
1.5897641745e-06
-1.57849983811e-06
2.25585190459e-06
-2.09790398713e-06
3.09841824619e-06
-2.69948649983e-06
4.14030967073e-06
-3.39750694501e-06
5.41046605361e-06
-4.21382388263e-06
6.94162707513e-06
-5.17761908063e-06
8.77751783583e-06
-6.32207070771e-06
1.09716925205e-05
-7.68616680624e-06
1.3586361357e-05
-9.3188577936e-06
1.67052860968e-05
-1.12670865832e-05
2.03657411757e-05
-1.35215597096e-05
2.45212024333e-05
-1.57378443016e-05
2.82360223864e-05
-1.62843942531e-05
2.73291099635e-05
-1.18213112212e-05
4.86605690724e-06
-4.5743703629e-06
-5.99188975357e-05
-0.000151342086317
-4.86016841232e-07
-2.2696159637e-07
5.44580755599e-07
-4.26132314208e-07
8.93574788978e-07
-6.96361452059e-07
1.34951408862e-06
-1.04222368256e-06
1.93745813016e-06
-1.4688403605e-06
2.68105886099e-06
-1.98535911102e-06
3.60811685505e-06
-2.60462061128e-06
4.74611082268e-06
-3.34621000532e-06
6.13244754682e-06
-4.23288111537e-06
7.80649805112e-06
-5.29399112654e-06
9.82231069197e-06
-6.56360425708e-06
1.22407349147e-05
-8.08910957578e-06
1.51357540005e-05
-9.92581139305e-06
1.85950058407e-05
-1.21236865602e-05
2.26601224109e-05
-1.46386146173e-05
2.72567952675e-05
-1.70320488896e-05
3.12999375528e-05
-1.73957744037e-05
2.99075129078e-05
-1.23351176165e-05
4.74352613996e-06
-4.81924171677e-06
-6.35406424602e-05
-0.000156248504834
-6.26380154969e-07
-2.03304963094e-07
6.62436258879e-07
-3.85254183695e-07
1.07185933794e-06
-6.3694283813e-07
1.59384017173e-06
-9.66894922254e-07
2.25400276198e-06
-1.38516154892e-06
3.07725684666e-06
-1.90604540552e-06
4.09564625174e-06
-2.5469491493e-06
5.34069107943e-06
-3.33142588095e-06
6.85720206265e-06
-4.28677935419e-06
8.69011581783e-06
-5.44951274339e-06
1.09037562351e-05
-6.86284848462e-06
1.35660772046e-05
-8.5825195729e-06
1.67643436253e-05
-1.06605585632e-05
2.05901195589e-05
-1.31317011474e-05
2.50950806391e-05
-1.5914312226e-05
3.016736143e-05
-1.84759678299e-05
3.45444228879e-05
-1.85960468739e-05
3.25191415874e-05
-1.28672207891e-05
4.3833972569e-06
-5.0943906867e-06
-6.7407510029e-05
-0.000161362757842
-8.05344501685e-07
-1.92104606091e-07
7.66899438032e-07
-3.67067706656e-07
1.23242893222e-06
-6.13134374406e-07
1.81869336282e-06
-9.41681786637e-07
2.55292515693e-06
-1.36548568294e-06
3.46236087079e-06
-1.90140207627e-06
4.58342409073e-06
-2.56956818642e-06
5.95208971318e-06
-3.39665223379e-06
7.6197802703e-06
-4.41575027518e-06
9.63744197558e-06
-5.67037958467e-06
1.20781372511e-05
-7.21138476044e-06
1.50158601849e-05
-9.09955583883e-06
1.85494431478e-05
-1.13886808578e-05
2.27723054397e-05
-1.41142220279e-05
2.77429579275e-05
-1.71744726563e-05
3.32949617257e-05
-1.99236190414e-05
3.79538118327e-05
-1.97731814316e-05
3.50598916348e-05
-1.33645123524e-05
3.64198089471e-06
-5.36261435558e-06
-7.16499974968e-05
-0.000166826336738
-9.58831902424e-07
-1.76625693451e-07
8.69484897097e-07
-3.41401423868e-07
1.39246170928e-06
-5.77680755414e-07
2.04688161658e-06
-8.99546923752e-07
2.86175168652e-06
-1.32446782942e-06
3.86738620027e-06
-1.87368844225e-06
5.10360180341e-06
-2.57415497127e-06
6.61180154023e-06
-3.45818902189e-06
8.44855436937e-06
-4.56533297157e-06
1.06723959546e-05
-5.94160459181e-06
1.33639937544e-05
-7.638750583e-06
1.66051653518e-05
-9.71728166572e-06
2.05055141151e-05
-1.22362642533e-05
2.51600693616e-05
-1.52374009988e-05
3.06286259004e-05
-1.85959187354e-05
3.66734374048e-05
-2.15153812268e-05
4.15503991057e-05
-2.10072230981e-05
3.75154863863e-05
-1.38589265639e-05
2.47543836676e-06
-5.64078951957e-06
-7.63027508705e-05
-0.000172661706106
-1.15031918868e-06
-1.71769856049e-07
9.74939519795e-07
-3.34680329858e-07
1.55845393526e-06
-5.72165397084e-07
2.28667349809e-06
-9.00314026813e-07
3.18975532055e-06
-1.34105592065e-06
4.30263769083e-06
-1.91864443696e-06
5.6669746529e-06
-2.66560789172e-06
7.33133010516e-06
-3.61799133291e-06
9.35533870185e-06
-4.82163570747e-06
1.18064584342e-05
-6.32860020627e-06
1.47708976781e-05
-8.20109424746e-06
1.8339753521e-05
-1.05105192032e-05
2.26329579139e-05
-1.33231836742e-05
2.77498853371e-05
-1.66692689227e-05
3.37508076276e-05
-2.03700511486e-05
4.03173386739e-05
-2.34126460384e-05
4.53531286878e-05
-2.23581320213e-05
3.98782117934e-05
-1.43632965228e-05
9.34477424981e-07
-5.96695770169e-06
-8.12298243996e-05
-0.000178790114819
-1.3858464195e-06
-1.91521309846e-07
1.0804513181e-06
-3.73291985793e-07
1.72544397716e-06
-6.38943281087e-07
2.53083400004e-06
-1.00561835673e-06
3.5268093161e-06
-1.49777144004e-06
4.75561828434e-06
-2.14079192151e-06
6.25958603096e-06
-2.97009122204e-06
8.09692686801e-06
-4.0243758601e-06
1.0329809986e-05
-5.35438464381e-06
1.30366412741e-05
-7.01809634416e-06
1.63098036449e-05
-9.0850565757e-06
2.02513896096e-05
-1.16351710883e-05
2.49930528206e-05
-1.47428275715e-05
3.06369837381e-05
-1.84407098663e-05
3.72392080034e-05
-2.25081979867e-05
4.43817997568e-05
-2.56683757202e-05
4.95073222183e-05
-2.39536569536e-05
4.22474742813e-05
-1.50801230884e-05
-6.97921077909e-07
-6.56076193551e-06
-8.62509099904e-05
-0.000185146819243
-1.80538292047e-06
-2.08328078452e-07
1.19410287092e-06
-4.06847919309e-07
1.90622373803e-06
-6.97777755962e-07
2.79552527807e-06
-1.10208086216e-06
3.89425825969e-06
-1.6465396046e-06
5.25042460684e-06
-2.36171259934e-06
6.90999503919e-06
-3.28555759844e-06
8.93900454034e-06
-4.46213035453e-06
1.14060177593e-05
-5.94492270682e-06
1.43994085764e-05
-7.79792110197e-06
1.80218674615e-05
-1.00976241468e-05
2.23873693251e-05
-1.29341433247e-05
2.76417418246e-05
-1.63920155469e-05
3.38919511725e-05
-2.04946598246e-05
4.11821072144e-05
-2.49544869201e-05
4.89802260577e-05
-2.81839096944e-05
5.41557404599e-05
-2.56971178548e-05
4.47703352974e-05
-1.6026431314e-05
-2.81434420994e-06
-7.57987731332e-06
-9.11292231446e-05
-0.00019182191001
-2.487268525e-06
-2.23526688185e-07
1.32038607256e-06
-4.35891107955e-07
2.10817222827e-06
-7.4612882128e-07
3.09054852899e-06
-1.17888198582e-06
4.30586621067e-06
-1.76131753954e-06
5.80429840843e-06
-2.52937092486e-06
7.64010434005e-06
-3.52451673175e-06
9.8839802714e-06
-4.79928322065e-06
1.26145395176e-05
-6.41674942431e-06
1.5929546489e-05
-8.45305748157e-06
1.9944217392e-05
-1.09994486746e-05
2.4788715322e-05
-1.41577021141e-05
3.06250039535e-05
-1.80243134758e-05
3.75746087016e-05
-2.26121700845e-05
4.56668460678e-05
-2.75381306365e-05
5.42291759464e-05
-3.08436952851e-05
5.94384087611e-05
-2.76894168063e-05
4.77223131779e-05
-1.74200758032e-05
-4.62574697867e-06
-9.37489936122e-06
-9.56642290961e-05
-0.000199282981039
-3.53159775083e-06
-2.28406819332e-07
1.45495499096e-06
-4.46881992414e-07
2.32322393563e-06
-7.67469855926e-07
3.40571904994e-06
-1.21519512385e-06
4.74543131972e-06
-1.82021055118e-06
6.39731002303e-06
-2.61962045576e-06
8.4223529585e-06
-3.658232414e-06
1.08986269396e-05
-4.991244796e-06
1.39149581827e-05
-6.6848955254e-06
1.75799552218e-05
-8.82211931573e-06
2.20254505316e-05
-1.15007316678e-05
2.73968152535e-05
-1.48377785645e-05
3.38790488735e-05
-1.89458476079e-05
4.16091713263e-05
-2.38176845307e-05
5.05780790818e-05
-2.90223731904e-05
6.00040448481e-05
-3.23998692041e-05
6.53885140111e-05
-2.90455821277e-05
5.16470288558e-05
-1.89377115403e-05
-5.42526136132e-06
-1.1891459728e-05
-9.95483956965e-05
-0.000208191380548
-4.8340771935e-06
-2.18716615716e-07
1.58816959555e-06
-4.28633961371e-07
2.53578159667e-06
-7.37532815181e-07
3.71827243482e-06
-1.16829142459e-06
5.18095097868e-06
-1.7514678317e-06
6.98631890769e-06
-2.52149971141e-06
9.19922654238e-06
-3.52367071165e-06
1.19083405029e-05
-4.81018720665e-06
1.52091788875e-05
-6.44995746832e-06
1.92264425675e-05
-8.5219538772e-06
2.41014596307e-05
-1.11330727997e-05
3.00077198297e-05
-1.43911098033e-05
3.71365488769e-05
-1.84191947483e-05
4.56652516848e-05
-2.3186669678e-05
5.55224892172e-05
-2.8153714214e-05
6.57575336193e-05
-3.11345641255e-05
7.13708686896e-05
-2.7986285685e-05
5.66379705889e-05
-1.96782306971e-05
-4.03100129913e-06
-1.43030060889e-05
-0.000102462485418
-0.000218989693031
-5.90568904917e-06
-1.85009979953e-07
1.70265602229e-06
-3.62289695724e-07
2.71890552585e-06
-6.22337906495e-07
3.98681009282e-06
-9.85415035431e-07
5.55573050426e-06
-1.47606831431e-06
7.49245118959e-06
-2.12394534442e-06
9.86698122329e-06
-2.96682450601e-06
1.27760048883e-05
-4.04773836141e-06
1.63202329818e-05
-5.42639272387e-06
2.06408427234e-05
-7.16466051872e-06
2.58814372651e-05
-9.35709871484e-06
3.224929573e-05
-1.20880446841e-05
3.99312891704e-05
-1.54682878982e-05
4.91547503527e-05
-1.9511168563e-05
5.9836546182e-05
-2.38132967915e-05
7.09409719482e-05
-2.67600436315e-05
7.74399961706e-05
-2.41690912992e-05
6.23522229435e-05
-1.83533103093e-05
-3.07689167339e-07
-1.56285621617e-05
-0.00010382057273
-0.000231416796806
-6.3932208988e-06
-1.23986036738e-07
1.77920935576e-06
-2.42176908539e-07
2.84118226445e-06
-4.14811412829e-07
4.1654580121e-06
-6.55412492466e-07
5.80474924913e-06
-9.78702662063e-07
7.82715980067e-06
-1.40381845931e-06
1.03072444392e-05
-1.95225035208e-06
1.33442120852e-05
-2.65002528783e-06
1.70435010583e-05
-3.52902830916e-06
2.15523804737e-05
-4.6226447707e-06
2.70163453443e-05
-5.979146695e-06
3.36587394895e-05
-7.63227798552e-06
4.16564893302e-05
-9.65470220233e-06
5.12943022998e-05
-1.20422849659e-05
6.24739917576e-05
-1.48102874109e-05
7.44187496336e-05
-1.73945041475e-05
8.25366728326e-05
-1.71124956738e-05
6.95451706519e-05
-1.45872182808e-05
5.9359215711e-06
-1.31811925978e-05
-0.000105200888287
-0.000243109421243
-5.38536031567e-06
-5.96555744039e-08
1.81649427368e-06
-1.1604537118e-07
2.90028808964e-06
-1.98347713432e-07
4.25166458798e-06
-3.11927785013e-07
5.92364712589e-06
-4.6342931272e-07
7.98561632145e-06
-6.59389469229e-07
1.05120695412e-05
-9.07576609482e-07
1.36035076996e-05
-1.21434203226e-06
1.73640981079e-05
-1.5867260464e-06
2.19420963986e-05
-2.02640656159e-06
2.74780997444e-05
-2.53463380866e-06
3.41963723204e-05
-3.10108673036e-06
4.22651791477e-05
-3.70126768636e-06
5.19685324233e-05
-4.35952385666e-06
6.32923041551e-05
-5.01699814393e-06
7.55017752031e-05
-6.20746958793e-06
8.52267485046e-05
-7.48981811243e-06
7.62834502688e-05
-7.8485485436e-06
1.36499515826e-05
-7.73760044051e-06
-0.000105784445771
-0.000252097181088
-2.34884383629e-06
-2.22403955024e-08
-4.47070777575e-08
-7.64630575744e-08
-1.20739924141e-07
-1.77048845027e-07
-2.49074607006e-07
-3.32308495349e-07
-4.30462533311e-07
-5.26550039835e-07
-6.26455272274e-07
-6.77855429201e-07
-6.97502136342e-07
-5.38830558182e-07
-2.32227371933e-07
5.21555791864e-07
1.88367302421e-06
4.13960816375e-06
3.65566819183e-06
3.7672067474e-06
3.53877652366e-06
-3.80869515991e-07
-2.34203132182e-05
-2.98982854075e-05
1.74664424946e-07
-2.48368426543e-05
-3.20599815481e-05
6.78370715818e-07
-2.61423568784e-05
-3.36539901674e-05
8.75433521194e-07
-2.74648397254e-05
-3.49274587938e-05
8.79857161724e-07
-2.88133806866e-05
-3.60589002331e-05
8.18905742303e-07
-3.0163148399e-05
-3.7121870844e-05
6.97202999841e-07
-3.14832911002e-05
-3.81759221863e-05
6.41209017461e-07
-3.27458005629e-05
-3.91695604117e-05
5.32139987172e-07
-3.39534646969e-05
-4.0153988686e-05
4.45189201734e-07
-3.51057967422e-05
-4.11125530361e-05
4.04605162258e-07
-3.61674723357e-05
-4.19708922135e-05
3.00097447487e-07
-3.71763545151e-05
-4.28062864602e-05
2.25242776072e-07
-3.81109752366e-05
-4.35877260687e-05
1.25010268091e-07
-3.89933961763e-05
-4.43583150279e-05
5.79059304132e-08
-3.98164882986e-05
-4.50938829314e-05
-7.78295822148e-09
-4.06371668297e-05
-4.5817210481e-05
-8.5377540623e-08
-4.14817432173e-05
-4.65621740098e-05
-1.76241430997e-07
-4.23782266793e-05
-4.73590080542e-05
-2.58516451756e-07
-4.33207630835e-05
-4.82041371291e-05
-3.42586704222e-07
-4.43546932644e-05
-4.91127968012e-05
-4.39141852698e-07
-4.5475768592e-05
-5.01299464268e-05
-5.29332077976e-07
-4.67363836368e-05
-5.12670715938e-05
-6.67166974508e-07
-4.81163743263e-05
-5.25486653251e-05
-8.95773198124e-07
-4.96616363788e-05
-5.4017642659e-05
-1.2659251992e-06
-5.14645922491e-05
-5.57845742863e-05
-1.83841326261e-06
-5.36847037664e-05
-5.80507534993e-05
-2.49888835526e-06
-5.6524490523e-05
-6.09622477923e-05
-2.99113848143e-06
-5.99979752291e-05
-6.44592916202e-05
-3.10578238578e-06
-6.39135490703e-05
-6.82232356497e-05
-2.41277206839e-06
-6.75599794773e-05
-7.14586043586e-05
-8.15748200658e-07
-7.00083865288e-05
-7.34272761124e-05
1.66413769183e-06
)
;

boundaryField
{
    inletfuel
    {
        type            calculated;
        value           nonuniform 0();
    }
    inletair