/*--------------------------------*- C++ -*----------------------------------*\
  =========                 |
  \\      /  F ield         | OpenFOAM: The Open Source CFD Toolbox
   \\    /   O peration     | Website:  https://openfoam.org
    \\  /    A nd           | Version:  7
     \\/     M anipulation  |
\*---------------------------------------------------------------------------*/
FoamFile
{
    version     2.0;
    format      ascii;
    class       volScalarField;
    location    "0.02";
    object      Qdot;
}
// * * * * * * * * * * * * * * * * * * * * * * * * * * * * * * * * * * * * * //

dimensions      [1 -1 -3 0 0 0 0];

internalField   nonuniform List<scalar> 
815
(
3889.71962625
3951.7572257
4095.73109639
3838.21112562
3866.35683106
3935.83380086
4011.98370463
4016.89678978
4035.05513767
4395.09713922
4383.27796851
4364.15919715
5000.02039594
4975.42131097
4928.53316083
5866.83904899
5830.58275873
5759.58672461
7050.56296782
7003.56014804
6910.04865042
8632.63814628
8571.15309688
8449.18289125
10663.9238652
10587.4349497
10430.9598708
13156.1138638
13055.9979129
12851.688972
15932.6643493
15804.4128262
15540.0080472
18536.2593936
18373.968774
18039.1957044
20143.5455436
19950.4016824
19549.27045
19831.0631809
19621.1994996
19184.7403434
17239.4566838
17037.0881031
16617.6890597
13089.4514065
12918.6417443
12569.1600652
8734.56362123
8610.63923352
8358.23836778
5204.25400029
5125.59343358
4965.87951959
2802.18731956
2757.98863528
2668.33932675
1369.07713717
1346.79781907
1301.66879433
607.253273657
597.097472385
576.592256305
244.793113739
240.604401683
232.178908335
90.0639932692
88.4962791117
85.3475081301
30.417692636
29.8778882518
28.8014134772
9.49009704353
9.31938444592
8.97923178889
2.75573139637
2.70510343524
2.60445457177
0.747489768375
0.733483842605
0.705731938535
0.189816612707
0.186200518505
0.179108385669
0.0452743650713
0.0444052329255
0.0427130604892
0.0104477988215
0.010246297709
0.0098565580712
0.00273213529634
0.00268016075216
0.00257935908652
4302.70427201
4039.45777078
4065.4355665
4341.64345393
4865.76311201
5662.85839568
6780.84230716
8281.73028197
10215.1282126
12569.3597064
15171.8892344
17569.4961909
18984.9084698
18570.8460132
16033.0041384
12089.0731956
8017.38683677
4753.26964345
2550.05570532
1242.39933022
549.713433984
221.147946188
81.2269758813
27.3916142965
8.53398990394
2.47299781988
0.669595736354
0.169885264255
0.0405158331828
0.00935056888007
0.00244741912503
43395.2306719
8621.09956938
1257.9852963
112.349320251
6.08566185074
0.211712823129
0.00345559222896
4774.82842321
5988.93077185
8084.83916738
11345.9955253
16316.2958572
24883.084053
42799.9060537
83085.8916175
166200.321564
303394.150522
419872.504378
250730.262678
71990.9796499
17822.0243031
3612.14641812
508.608171295
43.9092856243
2.38743884388
0.0804992337768
0.00142554155302
4284.61168988
5010.24174742
6376.43385003
8544.22311344
11620.1253036
16038.9617697
23642.1633462
39264.1226254
71163.2553206
124158.871696
165179.816016
90064.054145
26993.2516737
7095.57070467
1437.29948975
194.421393726
16.3548469928
0.897267071094
0.029177391339
0.000580924894687
4148.88231462
4524.50234608
5374.36045804
6821.95859074
8856.03701382
11438.4559965
14944.7935009
20862.4714963
31977.4896507
49505.8060156
59949.8605397
31265.238557
10235.4843988
2819.16833129
562.97552435
73.165387993
6.04340670824
0.334668376294
0.0105018118023
0.000240926388307
4307.81814994
4434.03648622
4919.7632034
5872.76876191
7263.05951048
8937.18084185
10790.5091511
13083.0800799
16495.9833921
20971.0367471
21778.9868756
11388.3283937
4097.58375824
1156.82975645
225.459317092
28.1802280084
2.29542385787
0.127451201322
0.00387296266718
0.000102236701521
4743.96914604
4694.0250605
4933.3684301
5557.18618205
6534.4312122
7702.99665629
8831.01965978
9761.02092872
10444.8723891
10582.4323046
8964.89103462
4700.13331942
1790.25783574
502.070585933
94.244856279
11.3103972026
0.907836166492
0.0498606086462
0.00147599824378
4.39926984101e-05
5469.1415888
5291.93768019
5372.5763696
5793.9397174
6515.2811944
7376.20777775
8113.41812802
8420.11944749
8004.77357186
6671.38708648
4578.60145453
2286.31993385
859.657546419
230.236505178
40.9103944073
4.69095462741
0.369292908286
0.019737074415
0.000573982580691
1.88875524486e-05
6519.11274445
6238.16660835
6213.44701938
6515.05141251
7075.53849861
7711.06291553
8128.14215448
7955.13579167
6868.10256835
4927.04445705
2840.29401299
1281.18407322
444.154027501
109.392338753
18.0771845702
1.96699298922
0.150929040054
0.00773600670213
0.00022334567278
7.96442544433e-06
7941.80869595
7553.15396898
7434.36217878
7638.09941039
8049.57268967
8429.98183118
8443.88683104
7723.00620513
6079.84875632
3877.34828815
1957.12461789
780.281214619
239.307151708
52.7441547317
7.98373703713
0.818016922892
0.0607638035191
0.00295561114816
8.5605858188e-05
3.26531135047e-06
9774.87633669
9241.56249288
8986.66871847
9034.92573929
9206.36830215
9194.69305357
8651.24767171
7317.3672809
5259.7618971
3046.13437045
1384.68614786
488.626738502
130.861440747
25.4609356068
3.49072932726
0.334163789835
0.0238710286404
0.00109291802122
3.20298735014e-05
1.29522103695e-06
11992.0950306
11240.5339135
10745.2935208
10494.6152991
10243.4971449
9650.91296544
8439.23128547
6560.98774749
4323.83817498
2305.27034241
958.382112678
302.404577091
71.1299200044
12.2086467371
1.5082328611
0.134055425937
0.00914202561761
0.00039101313018
1.16866410918e-05
4.98250781505e-07
14413.0122105
13337.9273648
12445.2650796
11694.9003926
10816.1198409
9515.51241619
7680.04803669
5483.65148401
3332.11009911
1647.80981453
631.347795736
180.279596831
37.8025353828
5.77951748376
0.644322043397
0.0530048458449
0.00342967061789
0.000136196564812
4.18795658156e-06
1.87515717606e-07
16593.2027033
15092.3122582
13646.9986141
12229.4875533
10622.9562941
8671.3970057
6449.06242258
4243.98762573
2390.56637284
1099.92503994
389.960216259
101.927667193
19.382900981
2.67939524915
0.271796017785
0.0207496013938
0.00127022296926
4.67479231112e-05
1.48956747755e-06
6.97257762415e-08
17801.2268397
15855.9054898
13820.5936737
11743.9535223
9542.11840464
7224.16673264
4969.99734568
3032.76428254
1590.08831577
681.228495919
224.170755027
54.1821757658
9.49066884803
1.20576442709
0.112739634435
0.00805776067319
0.000467249535522
1.59917577319e-05
5.29630655965e-07
2.57479337713e-08
17275.3044202
15044.6123138
12619.2897978
10164.119319
7744.30928371
5470.18378164
3509.39180926
1999.2215166
978.086592418
390.283891465
119.584337395
26.9540939542
4.40458710013
0.522012047857
0.0456434087219
0.00309308000869
0.000170562878926
5.46969302281e-06
1.88156308742e-07
9.42623126809e-09
14796.9625214
12614.8932784
10215.1263846
7844.51540937
5653.21737043
3763.96328134
2272.34715888
1214.70302376
555.232426828
206.538916018
59.1347000584
12.5143690588
1.92665570811
0.215591153828
0.0178655701674
0.00116377566798
6.12666852684e-05
1.8597337906e-06
6.6302989546e-08
3.3977950417e-09
11077.8618131
9279.04609341
7304.04352327
5401.00630805
3723.68245969
2361.00175267
1350.23663066
679.183671946
290.398558116
100.906503095
27.099862152
5.414224432
0.791168601192
0.0843623423886
0.00669991174685
0.000424887567479
2.13925194311e-05
6.21838338129e-07
2.29332375054e-08
1.1950019539e-09
7303.34710203
6037.4465135
4655.60382989
3347.06513785
2227.74947612
1353.68649606
735.742059279
348.840114204
139.81544136
45.5263176132
11.5147049359
2.18193388528
0.304345750879
0.0311405830056
0.00239157756859
0.000149226705219
7.17677478013e-06
2.02298508682e-07
7.7107424843e-09
4.06757511869e-10
4309.94414057
3528.67316034
2679.50877323
1883.3308103
1215.25758998
709.438091047
367.057623097
164.414204059
61.9821115104
18.9901744075
4.54187270221
0.819643862881
0.10961664674
0.0108205825123
0.000809490784137
5.01037541781e-05
2.29313727152e-06
6.35007659092e-08
2.50125784551e-09
1.33156344377e-10
2303.92778065
1871.34672518
1402.01667013
965.026128232
604.424073416
339.411824148
167.527285946
71.1365182533
25.3347629195
7.33692168849
1.66613922152
0.287417580916
0.0369889652719
0.00353777649533
0.000259400788726
1.60161116318e-05
6.94113375278e-07
1.91306878274e-08
7.79117383135e-10
4.17621389823e-11
1119.13623984
902.313363149
667.242391198
449.983146621
273.831341621
148.205699747
70.0097341882
28.3029852983
9.56832771413
2.63138552026
0.569638489234
0.0942493108589
0.0117081083819
0.00108889365073
7.8681274684e-05
4.8616612842e-06
1.9854653523e-07
5.51494151309e-09
2.32376539051e-10
1.25188556722e-11
493.851602575
395.368066839
288.700332099
190.941900849
113.101591699
59.1699634131
26.8542724366
10.3830737572
3.34790499296
0.878215442407
0.181907927764
0.0289552209821
0.00348136627676
0.000315833645363
2.26057807037e-05
1.3992066245e-06
5.36392398576e-08
1.51878624516e-09
6.62449906359e-11
3.58143915002e-12
198.217739296
157.647772869
113.771891635
73.9103049627
42.7188866786
21.6731854057
9.48810156369
3.523825366
1.08848522258
0.2734567458
0.0543804573638
0.0083498454918
0.000973923991529
8.64394990965e-05
6.16077856535e-06
3.81466117635e-07
1.36937833729e-08
3.99183516876e-10
1.80255321259e-11
9.76475685539e-13
72.6606902281
57.4393279022
41.0136167948
26.2151854482
14.8223096417
7.31541180877
3.100460538
1.11034957195
0.329856577783
0.079648044822
0.0152519054768
0.0022642459956
0.000256722356369
2.23558873349e-05
1.59608565645e-06
9.84313124254e-08
3.30673120993e-09
1.00034693066e-10
4.67340790031e-12
2.53179465806e-13
24.4625913912
19.2295334081
13.5999004359
8.56623789079
4.74909163447
2.2863297496
0.94111116983
0.326073915558
0.0934765099311
0.0217608527873
0.00402288141737
0.000578586121655
6.38812970989e-05
5.47542005012e-06
3.94176299261e-07
2.39870724963e-08
7.56400756155e-10
2.38788695344e-11
1.15184992553e-12
6.21929032543e-14
7.60979350324
5.95102946337
4.17262106535
2.59367227311
1.41270475554
0.665010200897
0.266576049349
0.0896177208919
0.0248632775743
0.00559531731697
0.00100083975263
0.000139689446113
1.50422021689e-05
1.27312467151e-06
9.29583868001e-08
5.49705851127e-09
1.64197747955e-10
5.41914282982e-12
2.68703652347e-13
1.43637312797e-14
2.2010292356
1.7132156052
1.19173700695
0.732048014439
0.392383173758
0.181000076774
0.0708249735365
0.0231620550614
0.00623520798261
0.00135976740049
0.000235823433096
3.19906551012e-05
3.36411314955e-06
2.81619721224e-07
2.0823714199e-08
1.17522836317e-09
3.38178470714e-11
1.16101345271e-12
5.86962348527e-14
3.07268345705e-15
0.594910293885
0.461124817844
0.318489554872
0.193576751779
0.102272662299
0.0463207105044
0.0177316091256
0.00565446134702
0.00148048342891
0.000313593939946
5.28308277173e-05
6.97521639838e-06
7.16463045757e-07
5.91052751645e-08
4.35879493897e-09
2.32754442751e-10
6.55943371996e-12
2.30634588733e-13
1.17349307075e-14
5.91685505466e-16
0.150765287957
0.116443655487
0.0799406773545
0.0481385282952
0.0251131546353
0.0111899560197
0.00420006953033
0.00130914311672
0.000334211621158
6.89208567261e-05
1.13032016196e-05
1.45434370887e-06
1.45750305264e-07
1.16990694066e-08
8.30051572031e-10
4.24155500091e-11
1.17836155958e-12
4.125108405e-14
2.06461639057e-15
9.74574500543e-17
0.0359304499605
0.0276732887621
0.0189026674224
0.0112931905431
0.00582706843886
0.00255939016784
0.000943990957431
0.000288250762367
7.19263467904e-05
1.44727050482e-05
2.31578653353e-06
2.90799024145e-07
2.84168999577e-08
2.19246458091e-09
1.43283084716e-10
7.06013449292e-12
1.93643419959e-13
6.43056809803e-15
3.04418637784e-16
1.28319516404e-17
0.00828695120065
0.00636660482668
0.0043285736236
0.00256734876885
0.00131125019999
0.000568302638493
0.00020620897038
6.17635108219e-05
1.50829722377e-05
2.96484591607e-06
4.63342962892e-07
5.68217485736e-08
5.41811369629e-09
4.01228368999e-10
2.36269453702e-11
1.06617774607e-12
2.92944236654e-14
8.79201076832e-16
3.66981181424e-17
1.28720898338e-18
0.00216767287811
0.00165986651113
0.00112217028481
0.00066004666216
0.000333367710488
0.000142437188396
5.0805780455e-05
1.49149046844e-05
3.56229531007e-06
6.83449637717e-07
1.04225840897e-07
1.24640219311e-08
1.159179943e-09
8.25796667853e-11
4.37034350322e-12
1.5836468913e-13
4.12961673805e-15
1.14627563078e-16
4.1266142871e-18
1.28161099903e-19
0.000251575245168
2.99202116405e-05
0.000139587334731
1.92445371756e-05
6.97462704148e-05
1.14353279982e-05
3.33659017203e-05
6.23250394118e-06
1.56651674942e-05
3.20264980632e-06
7.23581271019e-06
1.57284105777e-06
3.25896156603e-06
7.39629380078e-07
1.42531509303e-06
3.34909583272e-07
6.00471173897e-07
1.45241442394e-07
2.43896149058e-07
6.05654014684e-08
9.59225523926e-08
2.43995099737e-08
3.67621715983e-08
9.54632674892e-09
1.38956681437e-08
3.66793694935e-09
5.21144985437e-09
1.39105185389e-09
1.93261809726e-09
5.21060756776e-10
7.03268590086e-10
1.91157524495e-10
2.49007205334e-10
6.81231045182e-11
8.51511641267e-11
2.34193659974e-11
2.79641851966e-11
7.72996069754e-12
8.78991058021e-12
2.44249248111e-12
2.63830724479e-12
7.37299520424e-13
7.5497291523e-13
2.12341308129e-13
2.05478815339e-13
5.81943642173e-14
5.29972878684e-14
1.5112485554e-14
1.28678247949e-14
3.69056762915e-15
2.90685838549e-15
8.36257751885e-16
5.9920523323e-16
1.72485364246e-16
1.08924376752e-16
3.12570121714e-17
1.63495368069e-17
4.58256840596e-18
1.84874982691e-18
4.80966156881e-19
1.47591678498e-19
3.32600574729e-20
1.28333123857e-20
2.5074376187e-21
)
;

boundaryField
{
    inletfuel
    {
        type            zeroGradient;
    }
    inletair
    {
        type            zeroGradient;
    }
    outlet
    {
        type            zeroGradient;
    }
    axis
    {
        type            empty;
    }
    leftside
    {
        type            zeroGradient;
    }
    burnerwall
    {
        type            zeroGradient;
    }
    front
    {
        type            wedge;
    }
    back
    {
        type            wedge;
    }
    procBoundary1to0
    {
        type            processor;
        value           nonuniform List<scalar> 
27
(
4226.16428505
4335.64486712
4582.79479075
4935.77990954
99828.3083921
19117.3426726
2858.14622346
265.774957644
14.4719762527
0.513545542824
0.00805834028394
5726.5876864
7634.05463542
10813.0073388
15923.969996
24832.6357578
43293.9549466
86461.442823
185132.490123
382598.086997
694808.43735
955431.768204
631046.296236
185009.850164
185009.850164
0.000501255164867
5.17605116076e-05
)
;
    }
}


// ************************************************************************* //
