/*--------------------------------*- C++ -*----------------------------------*\
  =========                 |
  \\      /  F ield         | OpenFOAM: The Open Source CFD Toolbox
   \\    /   O peration     | Website:  https://openfoam.org
    \\  /    A nd           | Version:  7
     \\/     M anipulation  |
\*---------------------------------------------------------------------------*/
FoamFile
{
    version     2.0;
    format      ascii;
    class       volScalarField;
    location    "0.02";
    object      T;
}
// * * * * * * * * * * * * * * * * * * * * * * * * * * * * * * * * * * * * * //

dimensions      [0 0 0 1 0 0 0];

internalField   nonuniform List<scalar> 
815
(
869.671886681
868.832798147
867.290764552
840.897919624
839.670356822
837.289777636
813.511030363
811.944672911
808.832898787
786.486563818
784.640375166
780.927940891
759.306861346
757.247021865
753.08003962
731.597851068
729.394616618
724.921919437
703.096499037
700.818858647
696.187143153
673.546356559
671.264330544
666.618864592
642.884204556
640.663832606
636.146501043
611.22709695
609.13363957
604.882212747
578.917133277
577.017153898
573.164753761
546.628698423
544.981017687
541.641025924
515.373760864
514.020163926
511.274498646
486.45605082
485.409220748
483.284951311
461.217739304
460.458340879
458.91847825
440.687060917
440.171262989
439.127476664
425.2122666
424.885492106
424.222220305
414.449858631
414.255521695
413.859881069
407.557465737
407.448815595
407.227134376
403.515932214
403.458647601
403.341699475
401.372472692
401.343841115
401.285551692
400.369171391
400.355800405
400.328421443
400.00727507
400.001381465
399.989237137
399.983647845
399.981225228
399.976094357
400.112387778
400.111464313
400.109403507
400.30045455
400.30018853
400.299472015
400.501759449
400.501761877
400.501592082
400.693244759
400.693337035
400.693324073
400.86513146
400.865231945
400.865237471
401.016362843
401.016476958
401.016491783
401.150147904
401.150299388
401.150319598
865.506119957
834.361479738
804.893852907
776.153437357
747.663312158
719.070248729
690.101352909
660.498313595
630.185810688
599.265212857
568.067733415
537.215242112
507.627900819
480.455735873
456.863361923
437.731615139
423.334295512
413.329953404
406.929907074
403.184615189
401.207029382
400.29141267
399.972697015
399.96899268
400.106448553
400.298315591
400.501155022
400.693108634
400.865059691
401.016319688
401.150122976
454.673859587
414.198907285
400.076011993
397.832009513
404.735917756
438.834676056
541.883374017
862.454216172
859.868212923
860.812182489
865.424814774
871.487487104
875.69827588
875.641862012
870.519441253
859.118539602
836.764755838
773.633435119
615.517065419
495.220652946
435.033106527
407.96940501
398.814528433
398.325201756
406.686043087
442.821199249
545.559524543
828.943396399
821.645192334
816.280519716
813.238472665
810.586357783
804.923769244
793.188501657
773.736400006
745.535094229
706.342490488
641.540306022
536.197352838
461.270561452
421.678086059
403.798516856
398.122080993
398.973616799
408.68714104
446.72161171
548.921044684
797.393935562
785.948603205
775.091809405
765.506865078
755.759371129
742.81779928
723.617543769
696.382191151
660.671063206
616.193079562
557.75511501
487.456657245
439.152371236
412.829715785
401.125864563
397.833205904
399.725042804
410.719632618
450.690939832
552.392158012
766.952385947
752.113442285
736.752439613
721.834654773
706.497359884
688.347948134
664.722057915
634.073873599
596.579307947
553.376169786
504.626727834
456.846895671
424.683360987
407.044130888
399.476187533
397.80667424
400.53166225
412.77359603
454.8764611
556.339071562
737.166274899
719.734996764
700.916109831
681.905941273
662.39637724
640.744665048
614.907882021
583.739341457
547.838202148
509.183026552
470.35636544
437.089582726
415.148110753
403.295656075
398.499043249
397.936927047
401.351626193
414.832426689
459.368458083
560.724028554
707.693896738
688.482477849
667.262198091
645.407303757
623.091229795
599.39525728
572.978104943
543.138957278
510.682292891
477.847113703
447.718785615
424.042643781
408.844088636
400.90184469
397.955381846
398.151027737
402.150353627
416.873618178
464.169339488
565.265198837
678.242341844
658.031828492
635.433396271
611.944222573
588.123030935
563.664816883
537.880051309
510.477594439
482.304390845
455.399356317
432.361376727
415.278092824
404.684186097
399.405181045
397.685556145
398.401482683
402.904815817
418.884888236
469.223935053
569.695460611
648.555599313
628.101805306
605.101908832
581.124727234
557.009872682
532.919334323
508.676912442
484.310070439
460.601629449
439.12891449
421.690689419
409.32075397
401.956939966
398.497608975
397.584877482
398.65993842
403.60650099
420.872609561
474.470045024
573.904812504
618.539965318
598.556264118
576.048521007
552.616962703
529.278905017
506.511409378
484.487564635
463.428916371
443.973581201
427.188512194
414.137451862
405.246416254
400.189862909
397.973254965
397.587585347
398.914766244
404.262831674
422.881411047
479.898547806
577.960958176
588.276555474
569.421931382
548.204517276
526.211921321
504.547026483
483.862578856
464.521572596
446.821899547
431.227970891
418.356704935
408.746354129
402.467442823
399.069537715
397.697666056
397.654917511
399.165182023
404.899187709
425.013479144
485.519344946
582.02369096
558.071256115
540.930118165
521.685689783
501.861095462
482.562200581
464.503050798
448.110378483
433.673705634
421.479409114
411.829881144
404.918486828
400.602461665
398.388964964
397.585338015
397.765560563
399.419994287
405.556375171
427.342814481
491.382593379
586.270287876
528.497428082
513.552326255
496.816383011
479.696792136
463.231788972
448.110226791
434.741396258
423.35333411
414.096768475
407.071991762
402.258001218
399.3952992
398.011074925
397.582990284
397.910339669
399.693931878
406.277616164
429.941274501
497.562720485
590.848691173
500.39710474
487.980248988
474.09882664
459.994603338
446.586850865
434.487781896
424.036013811
415.395668258
408.626424788
403.702133292
400.482011912
398.664524202
397.842852913
397.657148089
398.085815179
400.00216422
407.107659373
432.883454666
504.113329083
595.876617203
474.795658778
465.032880228
454.117680591
443.090563313
432.72010524
423.503692553
415.710809654
409.450455563
404.719449052
401.423109316
399.370119557
398.273797917
397.818486258
397.785365836
398.291119742
400.361312065
408.09492184
436.243124275
511.074410599
601.435735663
452.708452931
445.495305927
437.409397763
429.264754285
421.669956437
415.017676981
409.508660296
405.206570586
402.071201785
399.980462788
398.742237808
398.119627908
397.892214746
397.954179989
398.528939703
400.789168617
409.285128941
440.078373654
518.464990098
607.585260704
434.878962567
429.880073284
424.248556606
418.585519704
413.345083073
408.818355614
405.146665576
402.360445816
400.403191672
399.154755938
398.45303447
398.124173922
398.031529373
398.15453087
398.802377345
401.302814339
410.72246324
444.44968123
526.332892158
614.368391513
421.501358066
418.25699561
414.580239789
410.88455633
407.488130293
404.595030222
402.297994739
400.60515567
399.459302175
398.760502743
398.388979913
398.230625329
398.213887888
398.380586105
399.114754859
401.916981508
412.442484573
449.395809957
534.709869932
621.802742848
412.226734684
410.25456037
408.005668192
405.74560274
403.68285029
401.9511455
400.60601888
399.643463014
399.015542059
398.64960185
398.466779482
398.400550018
398.42563204
398.630178809
399.470524224
402.645964227
414.480021397
454.96357496
543.658083429
629.912755657
406.307062045
405.183051472
403.894464689
402.600624767
401.428681481
400.459712555
399.723665783
399.212257516
398.890718025
398.711957412
398.629379386
398.609783343
398.659127206
398.902823329
399.873896935
403.502456022
416.862738107
461.183497397
553.214238565
638.71799514
402.854061811
402.252376465
401.559850941
400.865926513
400.242678144
399.73543422
399.358712098
399.104594583
398.950777534
398.869738954
398.83691119
398.840309868
398.907201832
399.197194941
400.329700705
404.50374588
419.634023556
468.123569512
563.463416281
648.283565042
401.041529239
400.738060988
400.387906722
400.038142104
399.726853851
399.477460354
399.296311259
399.177633276
399.108607698
399.074688196
399.064848647
399.080174369
399.164328301
399.512783956
400.845391334
405.676041258
422.861980234
475.89302372
574.502148227
658.689593435
400.213230726
400.068849148
399.902186007
399.736550695
399.59079937
399.476109547
399.394924477
399.343582602
399.315333244
399.30324495
399.30405551
399.32740581
399.432184755
399.855045264
401.435771794
407.062689785
426.660442931
484.672188944
586.48184029
670.04589878
399.93768402
399.872604457
399.797649394
399.723718409
399.659596109
399.610234314
399.576424968
399.556122768
399.546114169
399.543682869
399.550031338
399.581383914
399.713160737
400.231839579
402.124484546
408.736498101
431.218974951
494.73272568
599.57266402
682.432646718
399.95389314
399.925700711
399.893348556
399.861724413
399.834658982
399.814238382
399.800630137
399.792849993
399.789568214
399.790357468
399.799384276
399.839472124
400.006236127
400.648203456
402.936208543
410.78193611
436.749128407
506.332169859
613.865619194
695.855061135
400.100108921
400.088308502
400.074855843
400.061916712
400.051009089
400.042971366
400.037739964
400.034906816
400.03408817
400.036167563
400.047784697
400.099269072
400.31107725
401.108177414
403.890200717
413.268696053
443.410495693
519.529780605
629.189963856
710.177785042
400.295703174
400.290787735
400.285273273
400.280107886
400.275856475
400.272810017
400.270876415
400.269923468
400.270069492
400.273049173
400.287857112
400.353075883
400.616938579
401.588883228
404.922628817
416.004776293
450.700460212
533.375137262
644.485978042
724.894628825
400.500022208
400.497828316
400.495449737
400.493323837
400.491637294
400.4904641
400.489721102
400.489410606
400.489899967
400.493501576
400.511177035
400.588843151
400.899538565
402.027647118
405.845979547
418.378355784
456.841603158
544.916072203
657.241545994
738.992878474
400.692469159
400.691309398
400.690110429
400.689144824
400.688407949
400.68791337
400.687552844
400.687399371
400.68790241
400.691594186
400.710069903
400.791616441
401.117103528
402.293069657
406.2499411
419.254310455
459.378148487
550.421083533
664.220748188
751.127600753
400.864546904
400.863715844
400.862910223
400.862332017
400.861915177
400.861640311
400.86139471
400.861254049
400.861646939
400.864833226
400.881231275
400.954400676
401.249079281
402.319452363
405.91688356
417.774541549
455.712360307
545.80616967
661.566552869
759.997149907
401.015829296
401.015053431
401.014341225
401.013862113
401.013545657
401.013335676
401.013125761
401.012960984
401.013188444
401.015576018
401.028376044
401.086741476
401.326126349
402.211694609
405.19882997
414.952091637
447.060650221
530.068240274
647.714092585
765.519314476
401.149570169
401.148764521
401.148068063
401.147670745
401.14748211
401.147430405
401.147394172
401.147401787
401.147682415
401.149533169
401.158969997
401.202571796
401.386106065
402.086849191
404.502808116
412.320586972
437.674001177
509.240158251
628.955384606
769.955161514
699.272365889
703.546752301
670.484144035
678.592659414
649.014063003
657.049566143
634.291311828
639.994415986
624.388974146
626.845790511
617.565042909
616.601626286
612.652328843
608.453327047
608.97818359
601.925183626
606.300825649
596.773608458
604.546687433
592.877117055
603.711870616
590.14995181
603.801522418
588.51046855
604.784674393
587.87913219
606.62939258
588.18260686
609.308040022
589.378744806
612.805704097
591.414010754
617.10652367
594.246825972
622.188709456
597.84508453
628.055779605
602.198534196
634.709113843
607.311628636
642.193989287
613.219601659
650.577638351
619.982731044
659.958766191
627.699240005
670.467456781
636.53113634
682.267695155
646.720036584
695.538329356
658.556203403
710.326100769
672.187499435
726.374962102
687.274806841
743.244806146
702.880294761
760.961076499
717.971604876
779.786414992
731.721161836
795.622511699
741.95644417
)
;

boundaryField
{
    inletfuel
    {
        type            fixedValue;
        value           nonuniform 0();
    }
    inletair
    {
        type            fixedValue;
        value           nonuniform 0();
    }
    outlet
    {
        type            zeroGradient;
    }
    axis
    {
        type            empty;
    }
    leftside
    {
        type            fixedValue;
        value           uniform 294;
    }
    burnerwall
    {
        type            zeroGradient;
    }
    front
    {
        type            wedge;
    }
    back
    {
        type            wedge;
    }
    procBoundary1to0
    {
        type            processor;
        value           nonuniform List<scalar> 
27
(
899.673872241
899.338774642
898.870721532
898.538295766
482.148815372
422.98999118
402.06136752
397.541436589
402.865036783
434.628639631
537.971708525
898.470316005
901.58146043
909.736319877
922.980872814
939.554249015
957.071556906
974.751686932
993.882116071
1013.69907785
1025.56913121
974.534723265
744.634621174
547.084399769
547.084399769
727.898078137
728.603353648
)
;
    }
}


// ************************************************************************* //
