/*--------------------------------*- C++ -*----------------------------------*\
  =========                 |
  \\      /  F ield         | OpenFOAM: The Open Source CFD Toolbox
   \\    /   O peration     | Website:  https://openfoam.org
    \\  /    A nd           | Version:  7
     \\/     M anipulation  |
\*---------------------------------------------------------------------------*/
FoamFile
{
    version     2.0;
    format      ascii;
    class       volVectorField;
    location    "0.02";
    object      U;
}
// * * * * * * * * * * * * * * * * * * * * * * * * * * * * * * * * * * * * * //

dimensions      [0 1 -1 0 0 0 0];

internalField   nonuniform List<vector> 
815
(
(-0.0127040543673 -8.29696731115e-12 -10.7565238836)
(-0.0328035002771 -2.19855974537e-11 -10.8095158034)
(-0.0507972177708 -2.92143880038e-11 -10.7340267368)
(-0.0141300463876 -4.04351473873e-11 -10.4363472694)
(-0.0371421137825 -1.01650141564e-10 -10.4915436655)
(-0.0580279747634 -1.64446107936e-10 -10.4133543166)
(-0.0162596309662 -1.17204224513e-10 -10.027426392)
(-0.0426716985585 -1.02448116258e-10 -10.0809155163)
(-0.067505097886 -1.07855963114e-10 -9.99609251648)
(-0.0192221668425 -9.28360465661e-11 -9.50142897807)
(-0.0501404627916 -4.09723493873e-11 -9.55096594617)
(-0.0794434220691 -1.41753140151e-10 -9.45933262934)
(-0.0217889889062 -1.1836832878e-10 -8.85167367714)
(-0.0564159105968 -1.04025562549e-10 -8.8963865494)
(-0.0894911197985 -1.13624616177e-10 -8.79883521347)
(-0.023288334317 -1.76899696014e-11 -8.09886442084)
(-0.0601108954113 -4.80273586013e-11 -8.13912352615)
(-0.095348391319 -7.05410985122e-11 -8.03873370475)
(-0.0238636975867 -1.02967556209e-11 -7.27419101845)
(-0.0614395150293 -2.83298847458e-11 -7.3092397268)
(-0.0974869243133 -4.29183501382e-11 -7.2070817748)
(-0.023919240575 -4.15893916123e-12 -6.39220723973)
(-0.0612871226681 -1.17171767745e-11 -6.42393815141)
(-0.0971483334321 -2.37461798589e-11 -6.32477609719)
(-0.023269847289 3.29637958627e-11 -5.48473783985)
(-0.0596520538914 9.87819742842e-11 -5.51133322746)
(-0.0947033419345 2.4271948318e-11 -5.41565057223)
(-0.0225858038 7.49743664997e-12 -4.55552108507)
(-0.0574622546734 1.33084152763e-11 -4.57984769547)
(-0.0910183790804 3.53937283469e-12 -4.49150388582)
(-0.0213591992946 9.03610809281e-11 -3.62456186696)
(-0.0542231885236 3.34666802282e-12 -3.6468368595)
(-0.0859496917466 -6.95708734495e-11 -3.56742043537)
(-0.0200250400231 -5.08258407938e-12 -2.70136910849)
(-0.0506760464026 -1.8199348541e-11 -2.723585823)
(-0.0802432939536 -3.64613815486e-11 -2.6556155999)
(-0.0181390274298 -8.19731356788e-12 -1.80244559676)
(-0.0459384695496 -2.33715296605e-11 -1.82572402537)
(-0.072740307896 -3.73631159036e-11 -1.77109879099)
(-0.0158214539508 -4.73327421944e-11 -0.943692668211)
(-0.0398621220148 -1.43642685114e-10 -0.96902053296)
(-0.0630969104583 -1.35297592149e-10 -0.928227642683)
(-0.0123598205217 -2.6621110821e-11 -0.141539660261)
(-0.0315285622039 -7.05272864818e-11 -0.16977986637)
(-0.0498913291924 -8.93815307583e-11 -0.142609133371)
(-0.00992116221116 3.14628076428e-12 0.561370366147)
(-0.025140507915 1.64264470588e-11 0.529752201555)
(-0.0396851490504 -6.17185454506e-11 0.544896849834)
(-0.00847541538845 -9.39023951497e-12 1.13470056021)
(-0.0214372140684 -2.8743006636e-11 1.10013936262)
(-0.0338728144709 -6.04027622083e-11 1.10585829663)
(-0.00701826909621 -1.05622674269e-11 1.59225950065)
(-0.017800028717 -3.0701879524e-11 1.55548605449)
(-0.0281930971367 -5.46273905679e-11 1.55438634995)
(-0.00581961568614 -9.31393963343e-12 1.96629510301)
(-0.0148411994678 -2.67203269711e-11 1.92825074003)
(-0.0235553056934 -4.58026174024e-11 1.92256521022)
(-0.00520575460123 4.2132910807e-11 2.28643950036)
(-0.0132805136534 1.30902168952e-10 2.24794939803)
(-0.0210350273252 8.58341283138e-11 2.23944147417)
(-0.00437610336346 4.89363324758e-11 2.58373180908)
(-0.0113369294163 1.38466777353e-10 2.54549158781)
(-0.0180414553353 5.82064510416e-11 2.53539725228)
(-0.00400112071089 1.65922813595e-11 2.88673767429)
(-0.0104193799833 4.0600008539e-11 2.84879585711)
(-0.0165666713067 2.90170999643e-11 2.83767941663)
(-0.00432837383823 6.90404760094e-12 3.19698044784)
(-0.0111659253797 1.70304873377e-11 3.15987658108)
(-0.0177083436949 1.44130836472e-11 3.14823399459)
(-0.00451727673081 2.71420694339e-12 3.52283515066)
(-0.0117081642795 6.73776770302e-12 3.48629660747)
(-0.0185834774586 5.95931806186e-12 3.47423269795)
(-0.0047007894703 8.46197852869e-13 3.88124474084)
(-0.0122943414894 2.1009966813e-12 3.84580146739)
(-0.019469731735 1.71751856499e-12 3.83364625155)
(-0.00452057756936 -8.44615495881e-11 4.27300274135)
(-0.0118380951743 -2.98917698886e-11 4.23874704526)
(-0.0187682285442 -1.5524220207e-12 4.22668423077)
(-0.00413103543743 -6.37215022075e-12 4.67945479632)
(-0.01076369055 -1.06576211625e-11 4.64626525906)
(-0.0170105122196 -9.29223948756e-12 4.6341558475)
(-0.00340099440169 4.69606311472e-11 5.05914079552)
(-0.00887092802265 -6.38071917541e-11 5.02686515156)
(-0.0139625639246 -4.26318394825e-11 5.01459617384)
(-0.00213432726173 -6.94758706004e-11 5.34881976289)
(-0.00569484371477 -3.18058851844e-11 5.31727557013)
(-0.00903768656116 1.00986893977e-11 5.30486719705)
(-0.0010099160617 1.09985067417e-11 5.5142891334)
(-0.00270928783486 4.13130213301e-11 5.4832544611)
(-0.00423769200847 -4.0841780608e-11 5.47112777818)
(-0.000277456605304 -3.54824933049e-11 5.56691212503)
(-0.000815074227078 9.4498506866e-11 5.53735189358)
(-0.00138085008167 8.74074453071e-11 5.52751271816)
(-0.0689716019324 -1.88877130695e-11 -10.5983728255)
(-0.0792058993167 -1.19969150071e-10 -10.2722316354)
(-0.0928143264445 -1.07773628775e-10 -9.84630307623)
(-0.109477317057 -1.27762062606e-10 -9.30047924065)
(-0.123091404112 -1.34030047328e-10 -8.63374526217)
(-0.13113659099 -8.44065057058e-11 -7.87142616519)
(-0.134021848291 -5.1996287243e-11 -7.04052669188)
(-0.133455571787 -3.12315890912e-11 -6.1638778452)
(-0.130074747586 -2.22697548404e-12 -5.26275462052)
(-0.124817366302 -6.45541040266e-12 -4.35101296191)
(-0.117915560394 -4.38997712016e-11 -3.44184306799)
(-0.109857041966 -4.24935354375e-11 -2.54801493267)
(-0.0993341680549 -4.46342650572e-11 -1.68318905671)
(-0.0861703134931 -9.79562305371e-11 -0.860344774947)
(-0.0676823927493 -9.0430054355e-11 -0.0937394922074)
(-0.0539923407055 -1.00348897057e-10 0.577428770141)
(-0.0459598867117 -8.7433458798e-11 1.12597478465)
(-0.0382672074618 -7.68394638592e-11 1.56579642177)
(-0.0320233725957 -6.37304614634e-11 1.92824129919)
(-0.0285845354582 1.34666220038e-12 2.24165186761)
(-0.0246438135521 -3.28312254632e-13 2.5356851787)
(-0.0226971100534 4.45633103175e-12 2.83674804281)
(-0.0242500988824 3.88716224421e-12 3.14671125855)
(-0.0254028817902 1.7478216613e-12 3.47229250686)
(-0.0265004095021 9.50821656046e-14 3.83158968996)
(-0.0256821762737 1.60931173301e-11 4.22470219944)
(-0.0233856660908 -1.21893104858e-11 4.63217455025)
(-0.0191298631286 -4.62554229312e-11 5.01252753381)
(-0.0123818409867 -2.371124882e-11 5.30272155485)
(-0.00576503653949 -2.91309890897e-11 5.46903816562)
(-0.00190610011617 4.7676451575e-11 5.52615861265)
(-1.19236607885 -2.49633846442e-12 1.56037151135)
(-0.97482934495 -4.57325591468e-13 1.76820378232)
(-0.833211154368 -3.50124438928e-12 1.81873188407)
(-0.668483920634 3.83078154239e-13 1.76694954345)
(-0.605052762017 1.52394339606e-13 1.61888390446)
(-0.474635190843 -1.49170619522e-12 1.2402368026)
(-0.25453669912 -4.6929131092e-12 -0.456040850315)
(-0.101045744259 1.97997145539e-12 -10.3147408278)
(-0.147010149365 3.7129700909e-11 -9.82658008134)
(-0.193786195457 -1.06780595327e-11 -9.27405299868)
(-0.249278858548 -2.78946797903e-11 -8.67329962964)
(-0.319768711412 -1.50456803678e-11 -8.00420791613)
(-0.406720308976 -1.22220307061e-11 -7.24044779275)
(-0.506522714799 -1.37069154725e-11 -6.38752444456)
(-0.622373388025 -1.74539861919e-11 -5.48384499959)
(-0.815219145618 -3.1308343262e-11 -4.61280448121)
(-1.08572363454 -1.12400941865e-11 -3.7459278177)
(-1.59896715703 -7.86980714103e-12 -2.63599356092)
(-1.66877658935 -1.31728183006e-12 -0.523100320477)
(-1.46020330447 -4.66612875778e-12 0.758692425325)
(-1.20032808304 -1.50112187856e-12 1.3592589741)
(-1.02363492197 3.24441702716e-12 1.56457189452)
(-0.87185226495 -2.63516043187e-12 1.63182543167)
(-0.728742596714 4.30030072768e-13 1.6039888748)
(-0.619119916043 -1.50486520603e-13 1.44619577988)
(-0.499099800621 -5.65461114701e-12 1.00804114023)
(-0.214983503785 -4.06374727003e-12 -0.885853454945)
(-0.117327910282 -8.82171181456e-11 -9.97843617788)
(-0.170519942138 -9.37143719803e-11 -9.46927074671)
(-0.22908676215 1.06227210905e-12 -8.88710130037)
(-0.300611542209 -4.43858212829e-11 -8.25419709262)
(-0.386302026554 -1.46888745845e-11 -7.55644751769)
(-0.490547698429 -1.14342796616e-11 -6.76531617165)
(-0.606150089584 -1.40847306206e-11 -5.86950310296)
(-0.742127052831 -1.73226245713e-11 -4.89754123013)
(-0.91994763675 -1.87554172339e-11 -3.90515387062)
(-1.16774813906 -5.46997027851e-12 -2.91059071648)
(-1.50237771727 6.91782366913e-12 -1.77262480166)
(-1.50679026715 1.54109389992e-13 -0.216028440134)
(-1.37216880961 -2.47160306724e-12 0.726270454187)
(-1.16108037907 -3.43344807272e-13 1.19923209202)
(-1.01825223518 3.57363892959e-12 1.38409298458)
(-0.868009039131 -1.74633422606e-12 1.45185152797)
(-0.760966167034 5.41581741304e-13 1.44207578532)
(-0.618642722391 -5.31150446926e-13 1.26638611178)
(-0.509881615059 -5.89013175335e-12 0.752790909339)
(-0.19215459243 -4.08668422158e-12 -1.34430639095)
(-0.138527332432 -1.10176275742e-10 -9.53593342361)
(-0.202560089285 -1.27167601426e-10 -8.99580048961)
(-0.273904014967 -2.55742372653e-11 -8.376250579)
(-0.359079658409 6.50768179089e-12 -7.70474492115)
(-0.460146566463 -6.12578555288e-12 -6.9755503508)
(-0.579087842229 -9.18664772202e-12 -6.16470825729)
(-0.708899529649 -1.61748748446e-11 -5.25415161997)
(-0.852439404803 -3.53395155499e-11 -4.26267243913)
(-1.01183367948 -1.54721434062e-11 -3.23301876526)
(-1.20879714345 -1.40887172192e-11 -2.20861107972)
(-1.38570879491 5.60415427295e-12 -1.12323072701)
(-1.35465120333 1.5555759706e-12 0.00727695391263)
(-1.25967257462 -1.57918759647e-12 0.701963397956)
(-1.09411112772 8.24680866818e-13 1.0725960591)
(-0.982678691956 4.13661328973e-12 1.23269154317)
(-0.83481200044 -6.09195996754e-13 1.28959076153)
(-0.767778770809 5.54376240312e-12 1.28949504424)
(-0.60662402339 -8.27740485794e-13 1.09109098314)
(-0.511543327948 -6.2234365261e-12 0.485762492449)
(-0.172411580552 -8.01725504616e-12 -1.81036005445)
(-0.16356982949 -1.26969661665e-10 -8.97425538926)
(-0.23812130733 -1.40579700823e-10 -8.40576528633)
(-0.319854694989 -4.42135704474e-11 -7.75234677482)
(-0.413964197865 -3.22602293045e-11 -7.04611951484)
(-0.523319635891 -4.11890062127e-12 -6.29112291821)
(-0.647056937965 5.75844775831e-13 -5.47075133469)
(-0.779907722626 1.26210103466e-11 -4.56917980347)
(-0.916847520189 -1.89260456406e-11 -3.59861187474)
(-1.0508957687 1.76335854275e-12 -2.59849682369)
(-1.1793436302 -1.77082985153e-11 -1.62195358518)
(-1.2580647235 1.30341594613e-11 -0.663525240428)
(-1.21955435413 -5.03502354044e-12 0.166467683925)
(-1.14127522399 -5.91548652025e-12 0.688518023581)
(-1.00715072376 2.20276467709e-12 0.975428827315)
(-0.928248885482 1.09030946755e-11 1.11194972295)
(-0.784658914048 6.86821819867e-13 1.15419096973)
(-0.754909284287 5.44508302724e-12 1.15301906194)
(-0.58664076862 -9.70937499708e-13 0.929378664444)
(-0.504962690352 -5.74929548818e-12 0.213245953911)
(-0.155166173529 -7.05342238836e-12 -2.26914026893)
(-0.182786118008 -1.79189141912e-10 -8.29724215559)
(-0.263726798094 -9.65929454409e-11 -7.71039222325)
(-0.350538277532 -3.86824646451e-11 -7.03477549145)
(-0.448142328977 -1.7863038401e-11 -6.30628747242)
(-0.558074440536 -1.41921257732e-12 -5.53815151747)
(-0.67937388522 3.48292483246e-12 -4.72322172188)
(-0.807216082701 5.33381969484e-12 -3.85257023415)
(-0.93059760334 -1.16430341901e-11 -2.93490634917)
(-1.03486104014 -9.39843771268e-13 -2.00875465961)
(-1.10692739529 -1.12901583966e-11 -1.12915474353)
(-1.13119830474 9.09917175933e-12 -0.332553305331)
(-1.08761488703 8.8306945023e-13 0.28975579216)
(-1.02455633594 -9.25314111707e-12 0.687658126642)
(-0.913123863669 3.23931439243e-12 0.905031030216)
(-0.863737627604 1.04053344155e-11 1.01842755133)
(-0.726424027466 1.80495982076e-12 1.04711234473)
(-0.726826913509 5.56120122682e-12 1.03625948013)
(-0.560968178194 -7.20440729428e-13 0.785555760931)
(-0.488156179668 -8.93481422429e-13 -0.0592840790702)
(-0.138107758573 -5.95885092579e-12 -2.7164893424)
(-0.194700637441 -9.64812160157e-11 -7.5318254022)
(-0.279477252171 -6.54457486725e-11 -6.93933806067)
(-0.367793633379 -3.05955661426e-11 -6.25692768659)
(-0.463992657876 -1.34908103702e-11 -5.52322087081)
(-0.567457319038 -9.71772379142e-13 -4.75909474393)
(-0.678211296978 3.50000295304e-12 -3.96724567335)
(-0.789954598694 4.0317640515e-12 -3.14683168715)
(-0.891007676929 -6.72272274908e-12 -2.30655628359)
(-0.966683031166 -7.78127898054e-13 -1.48132892892)
(-1.00869354884 -7.64153822469e-12 -0.723535997576)
(-1.00933900894 5.98436717706e-12 -0.0805702987683)
(-0.961928586138 -1.00465817091e-12 0.391232476205)
(-0.915719895351 -7.43792551364e-12 0.695064130298)
(-0.819933044231 3.97315737194e-12 0.857581655757)
(-0.794468403006 9.9784747016e-12 0.948775401894)
(-0.664481415147 2.53362006579e-12 0.966715985038)
(-0.687288060299 5.17691824899e-12 0.94025875754)
(-0.531450040278 -9.87365733325e-14 0.65960821106)
(-0.462169184449 4.04166793081e-12 -0.328750375133)
(-0.119708813703 -4.19619877585e-12 -3.15241944353)
(-0.198422524038 -5.97481361661e-11 -6.70446583955)
(-0.282984964742 -4.48963924058e-11 -6.1198154202)
(-0.369082007697 -2.52063104341e-11 -5.44768784062)
(-0.460523145253 -1.23001156721e-11 -4.72781249683)
(-0.55548767364 -2.53920342041e-12 -3.98651847383)
(-0.654161977472 1.51627412381e-12 -3.23511361973)
(-0.749222644383 2.13953698693e-12 -2.47966119308)
(-0.827899832673 -3.99678875953e-12 -1.7312551428)
(-0.87824420974 -9.29310573188e-13 -1.02004977738)
(-0.897042775575 -4.7218173503e-12 -0.391429506447)
(-0.89152810348 3.34192734381e-12 0.119426967967)
(-0.846455583248 -1.44044948613e-12 0.478254046801)
(-0.815055390296 -5.83529933562e-12 0.709631260602)
(-0.731810570436 4.20814167788e-12 0.829999055815)
(-0.724802923088 8.82117159092e-12 0.901625964303)
(-0.602606798886 2.92647816543e-12 0.910549120497)
(-0.640335909765 4.71026081819e-12 0.865717976758)
(-0.50059424492 5.93276466983e-13 0.550675145232)
(-0.431292263223 4.92773418638e-12 -0.590986291928)
(-0.098148100299 -2.4138433452e-12 -3.56772387487)
(-0.197361680432 -3.82591120692e-11 -5.84016528921)
(-0.280044004225 -3.28330430164e-11 -5.27684803473)
(-0.362472308756 -2.55530400147e-11 -4.63126805344)
(-0.446952469346 -1.48821053429e-11 -3.94341287541)
(-0.530590092633 -6.24129802077e-12 -3.2430643554)
(-0.613331158462 -2.07741166066e-12 -2.54757540986)
(-0.688729093691 1.12710658037e-13 -1.86825989492)
(-0.747974626164 -2.68670841485e-12 -1.21795520459)
(-0.78530631609 -1.15791924098e-12 -0.621079801257)
(-0.790021988849 -2.79973406719e-12 -0.112512391059)
(-0.782064637755 1.41660490015e-12 0.285926195864)
(-0.741137673382 -1.70003281718e-12 0.558101433145)
(-0.723574851136 -4.3142671788e-12 0.732292882331)
(-0.650023208298 4.03871946364e-12 0.82066533835)
(-0.657000835411 7.42660626528e-12 0.875993910375)
(-0.542876659887 3.45023709072e-12 0.876864984331)
(-0.589113313544 8.70956924406e-12 0.812683177461)
(-0.469880486934 1.23926058376e-12 0.457472907034)
(-0.396451253889 5.3764295462e-12 -0.841577094576)
(-0.0756699168978 -9.62235880057e-13 -3.95458897146)
(-0.192038682585 -1.70084834405e-11 -4.95662621376)
(-0.270764268507 5.67802377388e-12 -4.42690002031)
(-0.347526178169 -5.50442433425e-11 -3.82224924731)
(-0.423689279571 -2.47458538858e-11 -3.18248723241)
(-0.497189076011 -1.61189625419e-11 -2.53882841484)
(-0.567047497926 -2.94896530708e-11 -1.9120190872)
(-0.627168396527 -3.07783123575e-12 -1.31634480116)
(-0.669126412565 -2.16802502771e-12 -0.765007114914)
(-0.693188099739 -1.11509466512e-12 -0.276919877061)
(-0.691002605835 -1.55506228613e-12 0.126830219678)
(-0.68603089019 3.88675073807e-13 0.432628859156)
(-0.647879221093 -2.5821390128e-12 0.636287605826)
(-0.641985820876 -1.1669841479e-11 0.765637241973)
(-0.575531349396 3.52353557269e-12 0.830218671627)
(-0.593142111443 6.26610160676e-12 0.87177650713)
(-0.487862308695 4.21051327187e-12 0.865142105661)
(-0.538085973023 1.27326518317e-11 0.780252974352)
(-0.439533605993 1.83421227556e-12 0.377453461764)
(-0.360617639886 8.09465201198e-12 -1.08276451508)
(-0.0540988270935 1.77450850741e-13 -4.31676664402)
(-0.183778044151 -1.91729303255e-11 -4.06947955977)
(-0.258002179894 -2.2701843965e-11 -3.58442142752)
(-0.329190708374 -5.51764701309e-11 -3.03340604663)
(-0.397771001903 -7.16546748188e-11 -2.45508278809)
(-0.461301022078 -2.56899010347e-11 -1.88048161529)
(-0.51767018706 -2.51224483001e-11 -1.33111909792)
(-0.562644972926 -5.31637723579e-12 -0.822305327144)
(-0.593669960421 -2.08670389167e-12 -0.366530039923)
(-0.608489494679 -3.43735625184e-13 0.0246537888465)
(-0.600638982509 3.29606494719e-13 0.337262628845)
(-0.60122233713 7.04989779834e-12 0.568107480911)
(-0.565224372795 -1.43390898299e-12 0.717705370019)
(-0.56835996296 -8.38861726895e-13 0.812438362627)
(-0.508515672026 3.58839284183e-12 0.859834617151)
(-0.534994503918 5.4921380765e-12 0.8896733828)
(-0.440836996039 4.83949134589e-12 0.876158704513)
(-0.493347679523 1.25013946418e-11 0.770602327335)
(-0.413675588523 1.97832004361e-12 0.312963622672)
(-0.328535975854 3.0074197004e-12 -1.30994298043)
(-0.0352552728286 7.7724718251e-13 -4.64743858765)
(-0.173373997646 -4.01609157869e-11 -3.19032966824)
(-0.242311448347 -7.40478102368e-11 -2.75947347156)
(-0.307053319732 -6.05722415188e-11 -2.27239912432)
(-0.367473937711 -6.0142118567e-11 -1.76559400567)
(-0.421146984509 -3.35497917796e-11 -1.26844702507)
(-0.46659959279 -4.45977981532e-11 -0.801746784107)
(-0.503182541048 -9.67573176631e-12 -0.380100222675)
(-0.520690913037 -1.27907768803e-11 -0.0123125123073)
(-0.529692817675 9.73184715408e-12 0.293645652343)
(-0.521647141039 2.56116203118e-12 0.529450683685)
(-0.525720837741 7.86740114951e-12 0.700039771171)
(-0.491740551854 1.05701100623e-11 0.807589966846)
(-0.501660149383 1.3457406071e-12 0.87591225158)
(-0.448729895261 1.10196899282e-11 0.910563165435)
(-0.483138407099 5.16260664824e-12 0.930820615327)
(-0.400712109116 5.10377865212e-12 0.910218544246)
(-0.454212276244 1.15603287867e-11 0.785368557671)
(-0.390262759748 1.89933450612e-12 0.265214826086)
(-0.299402690797 2.28052366502e-12 -1.51885288629)
(-0.0214905308467 1.29283195893e-12 -4.94931563927)
(-0.160895810398 -4.80347568951e-11 -2.33162944647)
(-0.223681755251 -6.32167849195e-11 -1.96248917414)
(-0.281444916247 -5.79074361099e-11 -1.54696056825)
(-0.333822936921 -5.39704886649e-11 -1.1183742135)
(-0.37878193584 -3.45391261711e-11 -0.703393560222)
(-0.415573490025 -3.64068875189e-11 -0.32036181187)
(-0.43839999158 -1.14395363761e-11 0.0191895384652)
(-0.447512918619 -9.01269808463e-12 0.307114748189)
(-0.45890011265 8.62511053081e-12 0.538987147268)
(-0.448810883079 4.44339756538e-12 0.712465714229)
(-0.456445025492 9.24728951072e-12 0.83539390496)
(-0.425784370855 1.11958060984e-11 0.911145945652)
(-0.442044585327 4.0705532238e-12 0.959573648606)
(-0.396389840087 1.0540122912e-11 0.984091226411)
(-0.438799623518 4.94152138353e-12 0.996114282353)
(-0.367897437529 4.76737735763e-12 0.96742466426)
(-0.423286820705 9.81917204779e-12 0.823402739091)
(-0.369760052053 1.68535134796e-12 0.232680658675)
(-0.277187603422 1.31115062042e-12 -1.71680207285)
(-0.0142805438221 1.53876074803e-12 -5.22830819944)
(-0.144807331318 -5.15920135267e-11 -1.50543310487)
(-0.200349579995 -5.87098191237e-11 -1.20270655237)
(-0.250556218693 -5.12361390629e-11 -0.863088594231)
(-0.295432418729 -4.49390476946e-11 -0.51514096667)
(-0.331221670058 -3.09663581598e-11 -0.181454860486)
(-0.353437468918 -2.93486330151e-11 0.121787451826)
(-0.370996940934 -1.13253448836e-11 0.384998324409)
(-0.379366231527 -6.34164617324e-12 0.601504216357)
(-0.391032871328 1.68539156131e-11 0.771731768252)
(-0.3806170212 5.89350031503e-12 0.895539339051)
(-0.392297364096 9.81684603849e-12 0.980893787873)
(-0.366868568295 1.2019853997e-11 1.03296215593)
(-0.391056844287 5.1366532804e-12 1.06592955746)
(-0.353630261532 1.01800670608e-11 1.08225997844)
(-0.404094502291 4.60824599375e-12 1.08672395526)
(-0.342768464846 -1.46481963503e-13 1.04954681901)
(-0.399941798626 8.0736488284e-12 0.884962050488)
(-0.355980074583 1.46433193275e-12 0.2155978901)
(-0.258377634737 9.15742554012e-13 -1.90366793923)
(-0.00853054748136 1.75176527213e-12 -5.48998533036)
(-0.125517622436 -1.08659328437e-10 -0.721831151685)
(-0.173687456021 -6.02651792681e-11 -0.485747336181)
(-0.213989633558 -4.57195831256e-11 -0.220725155904)
(-0.244080824072 -3.59552180275e-11 0.0490241258282)
(-0.268120356661 -2.24699552587e-11 0.304482391717)
(-0.287393731996 -3.50375526181e-12 0.532691272694)
(-0.305402318186 -1.0278150614e-11 0.725930076012)
(-0.312477043224 -1.65482090369e-11 0.881595414562)
(-0.325827248277 3.74307918636e-12 1.0004073532)
(-0.318559988546 5.85795314811e-12 1.08459241681)
(-0.336515447664 1.03835005932e-11 1.14054216467)
(-0.318067636121 2.0246359672e-11 1.17449705923)
(-0.350789087671 -2.55378445952e-12 1.19527632264)
(-0.320814636247 9.20599907091e-12 1.20481882205)
(-0.378898121094 9.61254316161e-12 1.20251514028)
(-0.324932826593 -6.42821276254e-14 1.15640623247)
(-0.386459669928 1.04093952651e-11 0.968542095629)
(-0.34775890666 1.23847353738e-12 0.212046695789)
(-0.246429533572 8.84589124076e-13 -2.07949450256)
(-0.00666904134898 2.00336679549e-12 -5.74140635755)
(-0.0968238224646 -9.08072488298e-11 0.00742431362561)
(-0.130617467543 -6.723537242e-11 0.179803285996)
(-0.16093446789 -8.34366016926e-11 0.373284335885)
(-0.189202726213 -3.34998140845e-11 0.569046318732)
(-0.214372315619 -1.60024471038e-11 0.751947986429)
(-0.233184231597 -1.56358850338e-12 0.912573186729)
(-0.250775010074 -8.76496474847e-12 1.04603887883)
(-0.258141719606 -1.36519748094e-11 1.15073990817)
(-0.273936998153 1.51240884245e-12 1.22805215136)
(-0.270733614016 4.66304446664e-12 1.28089458062)
(-0.294724130522 1.0278018646e-11 1.31471143491)
(-0.282689082175 1.72546156921e-11 1.33457371743)
(-0.322728996817 -2.15532016855e-12 1.34622288421)
(-0.298639645696 8.02771309282e-12 1.34960310399)
(-0.363460134309 9.12798155741e-12 1.3412243569)
(-0.314759062841 1.14762977213e-13 1.28491335032)
(-0.381143149416 8.86854527122e-12 1.06978625241)
(-0.344360318561 6.0351570575e-13 0.217670093821)
(-0.238082157638 9.13222750558e-13 -2.25250605617)
(-0.00886963768611 2.27806127863e-12 -5.99081648075)
(-0.0783058296108 -1.67576204247e-10 0.646298911749)
(-0.10837816048 -7.90239140879e-11 0.763348408488)
(-0.135575998749 -6.94848749479e-11 0.894626395279)
(-0.159382042294 -3.19883324431e-11 1.02691396903)
(-0.180607680313 -9.69595773091e-12 1.14953660181)
(-0.196603256046 1.73986505333e-11 1.25557796591)
(-0.213451933763 -6.23973114037e-12 1.34169587647)
(-0.221399206861 -1.25139655513e-11 1.40702532441)
(-0.239994101559 -2.89749385876e-12 1.45345701126)
(-0.24042164841 -1.00422476933e-11 1.48337688892)
(-0.269376505319 1.01017258434e-11 1.50167792274)
(-0.261983983356 2.41158222324e-11 1.51113051937)
(-0.307311644847 -1.50899832832e-12 1.51614878556)
(-0.287469588774 7.38967498461e-12 1.51400108809)
(-0.357940978038 1.37267522238e-11 1.49986367388)
(-0.313297934093 7.64727620089e-13 1.43192370831)
(-0.384152025123 7.09010446873e-12 1.18449152653)
(-0.347363018118 -6.50977635315e-12 0.226646211773)
(-0.23511071014 6.2533390902e-13 -2.42989434368)
(-0.0145228344502 2.72101239095e-12 -6.24770588886)
(-0.066379606131 -1.22399562948e-10 1.17021086232)
(-0.0921496567371 -8.20065450072e-11 1.24493547711)
(-0.116043160118 -6.92930003278e-11 1.32918547318)
(-0.137337981433 -5.90810053332e-11 1.41391825355)
(-0.157343848759 -1.0032006155e-11 1.49172937651)
(-0.172951771161 1.24530818617e-11 1.55776794563)
(-0.191094899831 -4.99722834747e-12 1.61008140186)
(-0.200832245966 -1.09132637544e-11 1.64822561645)
(-0.222890782777 -5.41944182715e-12 1.67423860757)
(-0.22640119957 -8.86481352042e-12 1.68960084486)
(-0.259131469819 9.66055192111e-12 1.69838629238)
(-0.254809419956 2.09638228873e-11 1.70136107989)
(-0.303702511911 2.60100527942e-13 1.7018749634)
(-0.28698891593 6.30397359921e-12 1.69526725841)
(-0.362112995089 6.51802595661e-12 1.67530583893)
(-0.320338160046 6.94170753723e-13 1.59452949209)
(-0.393460563484 5.06350819046e-12 1.30910912088)
(-0.355826257368 -6.02664346572e-12 0.234353864433)
(-0.234171518673 2.09911035961e-13 -2.61569828248)
(-0.0200289284034 2.47674220959e-12 -6.5174511978)
(-0.0553338902186 -1.09817350628e-10 1.59272587419)
(-0.0774332107136 -1.28891056797e-10 1.63745789118)
(-0.0986897854774 -7.17594696692e-11 1.68812681993)
(-0.118265561994 -5.14956416506e-11 1.73905598375)
(-0.137956224875 -1.22425058992e-11 1.78551415891)
(-0.154164193029 6.09055601587e-12 1.8242783917)
(-0.17457827339 -1.77197229041e-11 1.85437122083)
(-0.186887069528 -1.03469331003e-11 1.87556818626)
(-0.212907019151 -6.45886119206e-12 1.88961337707)
(-0.21983549173 -8.02485089874e-12 1.89721936848)
(-0.256543868215 9.79942549716e-12 1.90124925177)
(-0.25589306643 2.80723000219e-11 1.90132172621)
(-0.308726169791 9.66677742643e-12 1.8994695151)
(-0.29561377686 5.28976442641e-12 1.89017296048)
(-0.374800081378 3.77707007033e-12 1.86503351778)
(-0.334713351425 -8.16040556446e-12 1.77089819023)
(-0.407834538713 3.09148744164e-12 1.44152607468)
(-0.368041130648 -5.73628855668e-12 0.236831087388)
(-0.234536578332 -4.49426521962e-13 -2.81424705288)
(-0.0261812863924 1.88955452933e-12 -6.80535448329)
(-0.0464495097729 -9.1172048968e-11 1.94374173379)
(-0.0656704793063 -1.02327081123e-10 1.96853912088)
(-0.0849230165787 -7.17215937234e-11 1.99674646406)
(-0.103327543922 -7.17997324112e-11 2.0250936033)
(-0.122969717831 -1.72179300038e-11 2.05077419954)
(-0.139818376853 -8.51222675014e-13 2.07181258451)
(-0.162069539559 -1.57762059207e-11 2.087806654)
(-0.176363525245 -1.08759400177e-11 2.09871335383)
(-0.205382123303 -7.2452217058e-12 2.10573939701)
(-0.215325357918 -7.03872578688e-12 2.10924856303)
(-0.255692543704 -4.2674580513e-13 2.11083457158)
(-0.259224857023 2.43275669738e-11 2.10992148882)
(-0.316215194498 1.00826836079e-11 2.10714177453)
(-0.30701826857 3.92471366315e-12 2.09687867494)
(-0.389892496651 -4.69959233336e-12 2.0675673513)
(-0.351333936855 -1.63644491898e-11 1.95952243792)
(-0.423836095533 1.56442156725e-12 1.5797831883)
(-0.381356353348 -4.90314359193e-12 0.230996241052)
(-0.234474051411 -1.71221461747e-12 -3.02892631533)
(-0.0338068049288 1.06390439791e-12 -7.11314013748)
(-0.0414565057346 -6.02995925293e-11 2.25024526631)
(-0.0590927493784 -7.38693393174e-11 2.26297127516)
(-0.0773281654498 -2.61630568942e-11 2.2775666326)
(-0.0953011320289 -2.92725900052e-11 2.29232043303)
(-0.115097417957 -1.69673898973e-11 2.30567668054)
(-0.132509479004 -6.56610729599e-12 2.31647769186)
(-0.155864902746 -1.86839235747e-11 2.32454848633)
(-0.171416678752 -3.2177062904e-11 2.32992043255)
(-0.202075015678 -2.35934549947e-11 2.33316921559)
(-0.214120085152 -6.01233934462e-12 2.33459031474)
(-0.256680121188 1.68883179795e-12 2.33468626275)
(-0.263256376012 2.95868067299e-11 2.33324997562)
(-0.322816089626 1.07582112197e-11 2.32960148383)
(-0.316627500579 9.07372509719e-12 2.31828952055)
(-0.402810059757 3.26810105415e-12 2.28381545411)
(-0.366295121197 -1.50375078325e-11 2.15883924351)
(-0.43894371007 8.77541370953e-13 1.71962536347)
(-0.393795780958 -4.57002866088e-12 0.209931495337)
(-0.233302467419 -8.5792520952e-12 -3.26890785152)
(-0.0417913124569 3.49030900484e-14 -7.4481532198)
(-0.0361013016676 -8.95533465198e-11 2.54041826905)
(-0.0521488748426 -1.92534079494e-11 2.54637292512)
(-0.0691564691708 -5.76573031087e-11 2.55334196704)
(-0.0864608623737 -5.25179524013e-11 2.56053033217)
(-0.106120255828 -1.85935465064e-11 2.56710937529)
(-0.124129481834 -1.01460411902e-11 2.5723790423)
(-0.14865540451 -1.93478339364e-11 2.57623190879)
(-0.166219233135 -2.88554430892e-11 2.57870419062)
(-0.199093539967 -1.97053918149e-11 2.57989677206)
(-0.21433815272 6.25155752065e-12 2.58013437921)
(-0.259487062251 -5.57570896916e-12 2.5791462478)
(-0.269601036772 3.1425731875e-11 2.57707662656)
(-0.331456705765 3.18557806801e-12 2.57199538315)
(-0.328314534658 2.4042006932e-12 2.55836044952)
(-0.417715152195 1.61417674119e-12 2.51619860661)
(-0.383103577382 -1.20351819674e-11 2.36925723215)
(-0.454857958511 7.18805128053e-12 1.85869605734)
(-0.407027866434 -4.100358627e-12 0.168596568772)
(-0.231387641981 -7.2199897411e-12 -3.53779066817)
(-0.0509724384574 -1.1412430217e-12 -7.81325386474)
(-0.0334309180503 -3.35854203045e-11 2.83921302946)
(-0.0487083231958 2.03225157268e-11 2.84128390274)
(-0.0652308515768 -3.50964025495e-11 2.84379773544)
(-0.0824805342648 -3.920723924e-11 2.84643934351)
(-0.102415185381 -1.83514426769e-11 2.84875162388)
(-0.12131492802 -1.1128978382e-11 2.85029542565)
(-0.14687995724 -1.53118455896e-11 2.85098727294)
(-0.166332276632 -7.51505635229e-12 2.85092277957)
(-0.200773522493 -1.50271295322e-11 2.84993690918)
(-0.218846647474 4.97519514952e-12 2.84849180135)
(-0.26600003575 -1.34053557983e-12 2.84581675644)
(-0.280009086581 2.49022384374e-11 2.84237803764)
(-0.344444896105 2.29499310578e-12 2.83509950974)
(-0.345379689599 1.93056580561e-12 2.8180524885)
(-0.438219881163 1.2021661099e-12 2.76620952707)
(-0.405180286004 -8.22768440834e-12 2.5920610282)
(-0.474305851033 6.04513342055e-12 1.99663895866)
(-0.42122723024 -4.15248018103e-12 0.103841013104)
(-0.229131873542 -1.17646651913e-11 -3.83664294723)
(-0.0624407511002 -2.17730108242e-12 -8.21262524642)
(-0.0356845906207 -1.36338654736e-11 3.1480292448)