/*--------------------------------*- C++ -*----------------------------------*\
  =========                 |
  \\      /  F ield         | OpenFOAM: The Open Source CFD Toolbox
   \\    /   O peration     | Website:  https://openfoam.org
    \\  /    A nd           | Version:  7
     \\/     M anipulation  |
\*---------------------------------------------------------------------------*/
FoamFile
{
    version     2.0;
    format      ascii;
    class       volScalarField;
    location    "0";
    object      alphat;
}
// * * * * * * * * * * * * * * * * * * * * * * * * * * * * * * * * * * * * * //

dimensions      [1 -1 -1 0 0 0 0];

internalField   uniform 1.e-05;

boundaryField
{
    inletfuel
    {
        type            zeroGradient;
    }
    inletcoflow
    {
        type            zeroGradient;
    }
    inletair
    {
        type            zeroGradient;
    }
    outlet
    {
        type            inletOutlet;
        inletValue      uniform 0;
        value           nonuniform List<scalar> 
10368
(
1.37621e-06
1.39925e-06
1.41544e-06
1.42682e-06
1.43477e-06
1.43961e-06
1.44147e-06
1.44028e-06
1.43578e-06
1.428e-06
1.4164e-06
1.40095e-06
1.38154e-06
1.35783e-06
1.32975e-06
1.2966e-06
1.41668e-06
1.43329e-06
1.44498e-06
1.45278e-06
1.4577e-06
1.46051e-06
1.46101e-06
1.45895e-06
1.45395e-06
1.44606e-06
1.43475e-06
1.42009e-06
1.40208e-06
1.38068e-06
1.35584e-06
1.32701e-06
1.45224e-06
1.46258e-06
1.46998e-06
1.4747e-06
1.47723e-06
1.47803e-06
1.47724e-06
1.47433e-06
1.46876e-06
1.46056e-06
1.44928e-06
1.43502e-06
1.4179e-06
1.39807e-06
1.37568e-06
1.35048e-06
1.48336e-06
1.48808e-06
1.49143e-06
1.49329e-06
1.49369e-06
1.49275e-06
1.49046e-06
1.48657e-06
1.48036e-06
1.47172e-06
1.4603e-06
1.4462e-06
1.42965e-06
1.41095e-06
1.39038e-06
1.36802e-06
1.50982e-06
1.50976e-06
1.50969e-06
1.50888e-06
1.50723e-06
1.50466e-06
1.50099e-06
1.49592e-06
1.48896e-06
1.47982e-06
1.46816e-06
1.4541e-06
1.43791e-06
1.41998e-06
1.40066e-06
1.38034e-06
1.53117e-06
1.52769e-06
1.52457e-06
1.52141e-06
1.51786e-06
1.51373e-06
1.50877e-06
1.50259e-06
1.49478e-06
1.48509e-06
1.47314e-06
1.45901e-06
1.443e-06
1.42557e-06
1.40702e-06
1.38805e-06
1.5469e-06
1.54134e-06
1.53585e-06
1.5307e-06
1.52546e-06
1.5199e-06
1.51373e-06
1.50655e-06
1.49792e-06
1.48765e-06
1.47534e-06
1.46104e-06
1.44507e-06
1.42788e-06
1.40976e-06
1.3916e-06
1.55644e-06
1.54987e-06
1.54303e-06
1.53631e-06
1.52974e-06
1.52298e-06
1.51576e-06
1.50766e-06
1.49829e-06
1.48743e-06
1.47472e-06
1.46016e-06
1.44406e-06
1.4269e-06
1.40895e-06
1.39112e-06
1.55916e-06
1.55258e-06
1.54524e-06
1.53774e-06
1.53026e-06
1.52261e-06
1.51454e-06
1.50569e-06
1.49565e-06
1.48422e-06
1.47105e-06
1.45613e-06
1.43976e-06
1.42242e-06
1.40437e-06
1.38649e-06
1.55541e-06
1.54952e-06
1.5425e-06
1.53493e-06
1.52708e-06
1.51889e-06
1.51022e-06
1.50074e-06
1.49009e-06
1.47815e-06
1.46449e-06
1.44912e-06
1.43233e-06
1.41457e-06
1.3961e-06
1.37777e-06
1.54449e-06
1.54022e-06
1.53439e-06
1.52743e-06
1.51975e-06
1.51146e-06
1.50247e-06
1.49256e-06
1.48139e-06
1.46891e-06
1.45469e-06
1.43871e-06
1.42127e-06
1.40281e-06
1.38359e-06
1.36443e-06
1.52627e-06
1.52421e-06
1.52031e-06
1.51473e-06
1.5079e-06
1.5e-06
1.49104e-06
1.48091e-06
1.46934e-06
1.45636e-06
1.44153e-06
1.42483e-06
1.40653e-06
1.38707e-06
1.36671e-06
1.34618e-06
1.50088e-06
1.50178e-06
1.50045e-06
1.49686e-06
1.49143e-06
1.48441e-06
1.47587e-06
1.46577e-06
1.45396e-06
1.44053e-06
1.42506e-06
1.40752e-06
1.38817e-06
1.3674e-06
1.34544e-06
1.3228e-06
1.46879e-06
1.47371e-06
1.47559e-06
1.47443e-06
1.4708e-06
1.46498e-06
1.45714e-06
1.44734e-06
1.43543e-06
1.4216e-06
1.40547e-06
1.38703e-06
1.36647e-06
1.34411e-06
1.32008e-06
1.29438e-06
1.43122e-06
1.4417e-06
1.44764e-06
1.44919e-06
1.44731e-06
1.44259e-06
1.43548e-06
1.42604e-06
1.41409e-06
1.39991e-06
1.38313e-06
1.36377e-06
1.34195e-06
1.31788e-06
1.2915e-06
1.2621e-06
1.39101e-06
1.40812e-06
1.41855e-06
1.42299e-06
1.42269e-06
1.41879e-06
1.41189e-06
1.40249e-06
1.39021e-06
1.37565e-06
1.35827e-06
1.33796e-06
1.31477e-06
1.28877e-06
1.25993e-06
1.22697e-06
1.67144e-06
1.70433e-06
1.73351e-06
1.75922e-06
1.78138e-06
1.79961e-06
1.81344e-06
1.82228e-06
1.82551e-06
1.82371e-06
1.81619e-06
1.80318e-06
1.78487e-06
1.76155e-06
1.73375e-06
1.70267e-06
1.7774e-06
1.81542e-06
1.85037e-06
1.88119e-06
1.90722e-06
1.92806e-06
1.94345e-06
1.9531e-06
1.95653e-06
1.95461e-06
1.94659e-06
1.93277e-06
1.91315e-06
1.88775e-06
1.85677e-06
1.8197e-06
1.88637e-06
1.92927e-06
1.96898e-06
2.00338e-06
2.0316e-06
2.05353e-06
2.06914e-06
2.07832e-06
2.08091e-06
2.07786e-06
2.06867e-06
2.05348e-06
2.03219e-06
2.00492e-06
1.97168e-06
1.93164e-06
1.99476e-06
2.04282e-06
2.08643e-06
2.1232e-06
2.15246e-06
2.17438e-06
2.18916e-06
2.19691e-06
2.19799e-06
2.19339e-06
2.18287e-06
2.1666e-06
2.14432e-06
2.11584e-06
2.08087e-06
2.03897e-06
2.10051e-06
2.15366e-06
2.2003e-06
2.23848e-06
2.2679e-06
2.28897e-06
2.30218e-06
2.30815e-06
2.30727e-06
2.30109e-06
2.2895e-06
2.27267e-06
2.25014e-06
2.22141e-06
2.18576e-06
2.14307e-06
2.34431e-06
2.40591e-06
2.45791e-06
2.49906e-06
2.52964e-06
2.55033e-06
2.56212e-06
2.56618e-06
2.56304e-06
2.55487e-06
2.54179e-06
2.52401e-06
2.50089e-06
2.47122e-06
2.43391e-06
2.38899e-06
2.46288e-06
2.52896e-06
2.58261e-06
2.62345e-06
2.65251e-06
2.67083e-06
2.68039e-06
2.6818e-06
2.67639e-06
2.66665e-06
2.65305e-06
2.63593e-06
2.61419e-06
2.58585e-06
2.54959e-06
2.50576e-06
2.57411e-06
2.64353e-06
2.69799e-06
2.73775e-06
2.76463e-06
2.78057e-06
2.78806e-06
2.7871e-06
2.77937e-06
2.76789e-06
2.75352e-06
2.73672e-06
2.71579e-06
2.68834e-06
2.65294e-06
2.61025e-06
2.68035e-06
2.75194e-06
2.80608e-06
2.84373e-06
2.86766e-06
2.88155e-06
2.8869e-06
2.88398e-06
2.87399e-06
2.85999e-06
2.84372e-06
2.8261e-06
2.80518e-06
2.7782e-06
2.74295e-06
2.70118e-06
2.78409e-06
2.8564e-06
2.9085e-06
2.94217e-06
2.96217e-06
2.97311e-06
2.97553e-06
2.97032e-06
2.95763e-06
2.94098e-06
2.92243e-06
2.90302e-06
2.88095e-06
2.8536e-06
2.81819e-06
2.77725e-06
2.8868e-06
2.95789e-06
3.00535e-06
3.03275e-06
3.04784e-06
3.05311e-06
3.05299e-06
3.04601e-06
3.0311e-06
3.01122e-06
2.98925e-06
2.96682e-06
2.94252e-06
2.91396e-06
2.87864e-06
2.83918e-06
2.98873e-06
3.05648e-06
3.09649e-06
3.11623e-06
3.1232e-06
3.12363e-06
3.1198e-06
3.10985e-06
3.09158e-06
3.06753e-06
3.04146e-06
3.01535e-06
2.98784e-06
2.9568e-06
2.92097e-06
2.88349e-06
2.64986e-06
2.70453e-06
2.73229e-06
2.74283e-06
2.74289e-06
2.73937e-06
2.73267e-06
2.72156e-06
2.70348e-06
2.67993e-06
2.65431e-06
2.62828e-06
2.60059e-06
2.57018e-06
2.53708e-06
2.5046e-06
2.58362e-06
2.63302e-06
2.65467e-06
2.6594e-06
2.6556e-06
2.64926e-06
2.64093e-06
2.62908e-06
2.61066e-06
2.58666e-06
2.55985e-06
2.53191e-06
2.50201e-06
2.46973e-06
2.43553e-06
2.40305e-06
2.51328e-06
2.55804e-06
2.5748e-06
2.5748e-06
2.56839e-06
2.56029e-06
2.5508e-06
2.53854e-06
2.52028e-06
2.49637e-06
2.46926e-06
2.44028e-06
2.40848e-06
2.37431e-06
2.33884e-06
2.30542e-06
2.43982e-06
2.48054e-06
2.49333e-06
2.48989e-06
2.48185e-06
2.47276e-06
2.46275e-06
2.45057e-06
2.43288e-06
2.40947e-06
2.38233e-06
2.35265e-06
2.31963e-06
2.28405e-06
2.24735e-06
2.21265e-06
2.36426e-06
2.40153e-06
2.41113e-06
2.40532e-06
2.39636e-06
2.38687e-06
2.37676e-06
2.36497e-06
2.34811e-06
2.32544e-06
2.29862e-06
2.26865e-06
2.23486e-06
2.19836e-06
2.16078e-06
2.12483e-06
2.28751e-06
2.32179e-06
2.3289e-06
2.32153e-06
2.31217e-06
2.30263e-06
2.29274e-06
2.28157e-06
2.26565e-06
2.24381e-06
2.21758e-06
2.18768e-06
2.15362e-06
2.11668e-06
2.07864e-06
2.04173e-06
1.56876e-06
1.58595e-06
1.60023e-06
1.6128e-06
1.62348e-06
1.63234e-06
1.63949e-06
1.64497e-06
1.64905e-06
1.65238e-06
1.65491e-06
1.65702e-06
1.65854e-06
1.65966e-06
1.65995e-06
1.65781e-06
1.65909e-06
1.6759e-06
1.68842e-06
1.6986e-06
1.70698e-06
1.71396e-06
1.71961e-06
1.72418e-06
1.72822e-06
1.73242e-06
1.73688e-06
1.74176e-06
1.74685e-06
1.75254e-06
1.75749e-06
1.75991e-06
1.74666e-06
1.76137e-06
1.77128e-06
1.77879e-06
1.7846e-06
1.78936e-06
1.79367e-06
1.79758e-06
1.80188e-06
1.80738e-06
1.81421e-06
1.82231e-06
1.83161e-06
1.84235e-06
1.85351e-06
1.86329e-06
1.83361e-06
1.84541e-06
1.85237e-06
1.85705e-06
1.86023e-06
1.86246e-06
1.86489e-06
1.86774e-06
1.8718e-06
1.8783e-06
1.88742e-06
1.89891e-06
1.91282e-06
1.92923e-06
1.9472e-06
1.96486e-06
1.91864e-06
1.92772e-06
1.9324e-06
1.93489e-06
1.93599e-06
1.93601e-06
1.93598e-06
1.93704e-06
1.93997e-06
1.94669e-06
1.9576e-06
1.97222e-06
1.99061e-06
2.01288e-06
2.03774e-06
2.06318e-06
2.12913e-06
2.13605e-06
2.13891e-06
2.13968e-06
2.13908e-06
2.1375e-06
2.13545e-06
2.13476e-06
2.13587e-06
2.14154e-06
2.15405e-06
2.17246e-06
2.19662e-06
2.22665e-06
2.26065e-06
2.29601e-06
2.22644e-06
2.23118e-06
2.2324e-06
2.23179e-06
2.22981e-06
2.22697e-06
2.22365e-06
2.22146e-06
2.2213e-06
2.22488e-06
2.23656e-06
2.25677e-06
2.28502e-06
2.32122e-06
2.36273e-06
2.40607e-06
2.31892e-06
2.32217e-06
2.32248e-06
2.32093e-06
2.31782e-06
2.31368e-06
2.30939e-06
2.30621e-06
2.30527e-06
2.3075e-06
2.31754e-06
2.33853e-06
2.36984e-06
2.41144e-06
2.45999e-06
2.51052e-06
2.40797e-06
2.4098e-06
2.40934e-06
2.40693e-06
2.40231e-06
2.39629e-06
2.39057e-06
2.38661e-06
2.38539e-06
2.38711e-06
2.39592e-06
2.41738e-06
2.45154e-06
2.49844e-06
2.55432e-06
2.61159e-06
2.49486e-06
2.4951e-06
2.49351e-06
2.48953e-06
2.48232e-06
2.47322e-06
2.46512e-06
2.46036e-06
2.45933e-06
2.46149e-06
2.47038e-06
2.49265e-06
2.53049e-06
2.58329e-06
2.64739e-06
2.71146e-06
2.58026e-06
2.57877e-06
2.57577e-06
2.5693e-06
2.55811e-06
2.54431e-06
2.53265e-06
2.52695e-06
2.52645e-06
2.52985e-06
2.54041e-06
2.56469e-06
2.60706e-06
2.66726e-06
2.74048e-06
2.81169e-06
2.66403e-06
2.66106e-06
2.6567e-06
2.64737e-06
2.63118e-06
2.61151e-06
2.59531e-06
2.58838e-06
2.58843e-06
2.59348e-06
2.60702e-06
2.63493e-06
2.68267e-06
2.75128e-06
2.83442e-06
2.91277e-06
2.3561e-06
2.35226e-06
2.34799e-06
2.3382e-06
2.32067e-06
2.29938e-06
2.28197e-06
2.2748e-06
2.27501e-06
2.28065e-06
2.29495e-06
2.32239e-06
2.36785e-06
2.43335e-06
2.51244e-06
2.58481e-06
2.29316e-06
2.28849e-06
2.28375e-06
2.27376e-06
2.25499e-06
2.23183e-06
2.21298e-06
2.20514e-06
2.20513e-06
2.2113e-06
2.22669e-06
2.2553e-06
2.30181e-06
2.36881e-06
2.44963e-06
2.52193e-06
2.22786e-06
2.22245e-06
2.2172e-06
2.20694e-06
2.1879e-06
2.16364e-06
2.14392e-06
2.13551e-06
2.13518e-06
2.14163e-06
2.15765e-06
2.18684e-06
2.23378e-06
2.30141e-06
2.38312e-06
2.45472e-06
2.16075e-06
2.15471e-06
2.14898e-06
2.13851e-06
2.11956e-06
2.09483e-06
2.07467e-06
2.06579e-06
2.06512e-06
2.07168e-06
2.088e-06
2.11732e-06
2.16413e-06
2.23177e-06
2.31368e-06
2.3841e-06
2.09241e-06
2.08587e-06
2.07972e-06
2.0691e-06
2.05036e-06
2.02563e-06
2.00534e-06
1.99614e-06
1.99514e-06
2.00168e-06
2.01808e-06
2.04719e-06
2.09347e-06
2.16063e-06
2.2422e-06
2.31111e-06
2.02339e-06
2.01645e-06
2.00997e-06
1.99926e-06
1.98078e-06
1.95639e-06
1.93615e-06
1.92674e-06
1.9255e-06
1.93192e-06
1.94828e-06
1.97691e-06
2.02241e-06
2.08872e-06
2.1695e-06
2.23669e-06
1.47753e-06
1.49842e-06
1.52064e-06
1.54127e-06
1.55885e-06
1.57299e-06
1.58398e-06
1.59218e-06
1.59792e-06
1.60126e-06
1.60209e-06
1.60042e-06
1.59623e-06
1.58936e-06
1.57951e-06
1.56589e-06
1.55329e-06
1.57743e-06
1.60168e-06
1.62359e-06
1.64192e-06
1.6567e-06
1.66837e-06
1.67739e-06
1.68391e-06
1.68779e-06
1.6889e-06
1.68712e-06
1.68249e-06
1.67539e-06
1.66588e-06
1.65398e-06
1.62587e-06
1.65253e-06
1.67886e-06
1.70207e-06
1.72108e-06
1.73643e-06
1.74872e-06
1.75873e-06
1.76617e-06
1.77095e-06
1.77299e-06
1.77219e-06
1.76835e-06
1.7616e-06
1.75217e-06
1.74062e-06
1.69497e-06
1.72377e-06
1.7517e-06
1.77572e-06
1.7954e-06
1.81156e-06
1.82503e-06
1.83656e-06
1.84565e-06
1.85236e-06
1.85657e-06
1.85794e-06
1.85571e-06
1.8497e-06
1.84026e-06
1.82824e-06
1.76104e-06
1.79144e-06
1.82021e-06
1.84472e-06
1.86513e-06
1.88241e-06
1.8977e-06
1.91143e-06
1.92306e-06
1.93256e-06
1.93967e-06
1.94345e-06
1.94294e-06
1.93777e-06
1.92823e-06
1.91516e-06
1.9405e-06
1.97383e-06
2.00455e-06
2.0309e-06
2.05358e-06
2.07399e-06
2.09329e-06
2.11132e-06
2.12736e-06
2.14118e-06
2.15164e-06
2.1579e-06
2.15903e-06
2.15433e-06
2.14389e-06
2.12844e-06
2.01535e-06
2.04918e-06
2.07975e-06
2.10687e-06
2.13188e-06
2.15611e-06
2.18002e-06
2.20285e-06
2.22331e-06
2.24e-06
2.25218e-06
2.25953e-06
2.26144e-06
2.25711e-06
2.24617e-06
2.22913e-06
2.08456e-06
2.1189e-06
2.15042e-06
2.17985e-06
2.20887e-06
2.23848e-06
2.26834e-06
2.29652e-06
2.32051e-06
2.33885e-06
2.35124e-06
2.35813e-06
2.35959e-06
2.3549e-06
2.34298e-06
2.32453e-06
2.1494e-06
2.18543e-06
2.21953e-06
2.2529e-06
2.28719e-06
2.32286e-06
2.35872e-06
2.39223e-06
2.41994e-06
2.43962e-06
2.45115e-06
2.45607e-06
2.45564e-06
2.44965e-06
2.43618e-06
2.41618e-06
2.21165e-06
2.25083e-06
2.28906e-06
2.32703e-06
2.36632e-06
2.40795e-06
2.45062e-06
2.48999e-06
2.52123e-06
2.54142e-06
2.55123e-06
2.55344e-06
2.55067e-06
2.54286e-06
2.52805e-06
2.50569e-06
2.27287e-06
2.31648e-06
2.35894e-06
2.40094e-06
2.44487e-06
2.49144e-06
2.53904e-06
2.58299e-06
2.61769e-06
2.63943e-06
2.64905e-06
2.64985e-06
2.64533e-06
2.63569e-06
2.61902e-06
2.59395e-06
2.33324e-06
2.38097e-06
2.42706e-06
2.47203e-06
2.51772e-06
2.56622e-06
2.61676e-06
2.66471e-06
2.70383e-06
2.72952e-06
2.74187e-06
2.74379e-06
2.73901e-06
2.72799e-06
2.70919e-06
2.68073e-06
2.05076e-06
2.09394e-06
2.13514e-06
2.17405e-06
2.21305e-06
2.25513e-06
2.30021e-06
2.34449e-06
2.38253e-06
2.40987e-06
2.42561e-06
2.43069e-06
2.42785e-06
2.41749e-06
2.39926e-06
2.37269e-06
1.98366e-06
2.02598e-06
2.06581e-06
2.10245e-06
2.13909e-06
2.17963e-06
2.22411e-06
2.26903e-06
2.30927e-06
2.34004e-06
2.35964e-06
2.36771e-06
2.36609e-06
2.35575e-06
2.33741e-06
2.31064e-06
1.91431e-06
1.95541e-06
1.99352e-06
2.02786e-06
2.06263e-06
2.10198e-06
2.14608e-06
2.19177e-06
2.2341e-06
2.26799e-06
2.291e-06
2.30163e-06
2.30109e-06
2.2912e-06
2.27293e-06
2.24608e-06
1.84403e-06
1.88373e-06
1.92002e-06
1.95241e-06
1.98552e-06
2.0242e-06
2.06824e-06
2.11471e-06
2.15883e-06
2.19526e-06
2.22086e-06
2.23358e-06
2.23423e-06
2.22477e-06
2.20649e-06
2.17957e-06
1.77404e-06
1.81224e-06
1.84675e-06
1.87733e-06
1.90931e-06
1.94757e-06
1.99181e-06
2.03897e-06
2.08445e-06
2.12273e-06
2.15025e-06
2.16474e-06
2.16632e-06
2.15708e-06
2.13871e-06
2.11168e-06
1.70521e-06
1.74191e-06
1.77472e-06
1.80382e-06
1.83492e-06
1.87299e-06
1.91746e-06
1.9651e-06
2.01149e-06
2.05088e-06
2.07989e-06
2.0957e-06
2.09787e-06
2.08865e-06
2.0701e-06
2.04298e-06
1.68841e-06
1.68571e-06
1.67737e-06
1.66555e-06
1.65131e-06
1.63571e-06
1.61939e-06
1.60267e-06
1.58614e-06
1.56986e-06
1.55352e-06
1.53738e-06
1.52206e-06
1.50749e-06
1.49375e-06
1.4788e-06
1.79451e-06
1.78673e-06
1.77475e-06
1.75931e-06
1.74133e-06
1.72184e-06
1.70161e-06
1.68108e-06
1.66071e-06
1.64176e-06
1.62314e-06
1.60509e-06
1.58915e-06
1.57506e-06
1.56237e-06
1.54997e-06
1.89982e-06
1.88653e-06
1.86968e-06
1.84978e-06
1.8277e-06
1.80444e-06
1.7807e-06
1.75685e-06
1.73334e-06
1.71104e-06
1.68939e-06
1.66942e-06
1.65238e-06
1.63805e-06
1.6265e-06
1.61723e-06
2.00324e-06
1.98509e-06
1.96311e-06
1.93816e-06
1.91146e-06
1.8842e-06
1.85703e-06
1.83014e-06
1.80369e-06
1.77843e-06
1.7537e-06
1.73104e-06
1.71285e-06
1.69852e-06
1.68821e-06
1.68228e-06
2.10508e-06
2.0828e-06
2.05566e-06
2.02517e-06
1.9932e-06
1.96144e-06
1.93066e-06
1.90073e-06
1.87141e-06
1.84319e-06
1.81564e-06
1.79069e-06
1.77133e-06
1.75707e-06
1.74851e-06
1.74563e-06
2.34807e-06
2.32086e-06
2.28661e-06
2.24766e-06
2.20697e-06
2.16724e-06
2.12985e-06
2.09443e-06
2.05985e-06
2.02643e-06
1.99406e-06
1.96529e-06
1.94401e-06
1.92947e-06
1.9226e-06
1.92218e-06
2.46584e-06
2.43664e-06
2.39813e-06
2.35286e-06
2.30461e-06
2.25761e-06
2.21436e-06
2.17453e-06
2.13607e-06
2.09874e-06
2.06346e-06
2.03294e-06
2.01139e-06
1.99797e-06
1.99353e-06
1.99577e-06
2.57231e-06
2.54318e-06
2.50284e-06
2.45303e-06
2.39792e-06
2.34329e-06
2.29352e-06
2.2489e-06
2.20648e-06
2.16492e-06
2.1267e-06
2.0948e-06
2.07323e-06
2.0612e-06
2.05912e-06
2.0639e-06
2.66601e-06
2.63945e-06
2.60036e-06
2.5488e-06
2.48851e-06
2.42667e-06
2.36993e-06
2.32002e-06
2.27349e-06
2.2279e-06
2.18598e-06
2.1524e-06
2.13055e-06
2.11963e-06
2.11966e-06
2.12703e-06
2.74614e-06
2.72501e-06
2.69078e-06
2.64101e-06
2.57807e-06
2.5102e-06
2.44646e-06
2.39056e-06
2.33942e-06
2.28955e-06
2.24374e-06
2.20805e-06
2.1854e-06
2.17479e-06
2.17641e-06
2.18654e-06
2.81291e-06
2.79859e-06
2.77273e-06
2.72869e-06
2.66652e-06
2.59442e-06
2.52425e-06
2.46205e-06
2.40546e-06
2.35096e-06
2.30143e-06
2.26304e-06
2.23908e-06
2.22821e-06
2.23126e-06
2.24412e-06
2.86453e-06
2.85836e-06
2.84125e-06
2.80679e-06
2.74942e-06
2.67629e-06
2.60119e-06
2.53264e-06
2.47039e-06
2.41137e-06
2.35885e-06
2.31798e-06
2.29228e-06
2.28032e-06
2.28465e-06
2.30039e-06
2.49107e-06
2.49186e-06
2.48512e-06
2.46142e-06
2.41671e-06
2.35505e-06
2.2881e-06
2.22542e-06
2.16804e-06
2.11481e-06
2.0686e-06
2.03298e-06
2.01058e-06
2.00006e-06
2.00471e-06
2.01981e-06
2.38977e-06
2.39148e-06
2.38874e-06
2.37282e-06
2.33444e-06
2.27713e-06
2.21249e-06
2.15043e-06
2.09373e-06
2.04174e-06
1.99701e-06
1.96299e-06
1.94154e-06
1.93138e-06
1.9369e-06
1.95244e-06
2.29066e-06
2.29131e-06
2.28986e-06
2.27863e-06
2.2477e-06
2.19496e-06
2.13306e-06
2.07262e-06
2.01677e-06
1.9661e-06
1.92306e-06
1.89087e-06
1.87066e-06
1.86133e-06
1.86757e-06
1.88339e-06
2.19552e-06
2.1939e-06
2.19198e-06
2.18343e-06
2.15808e-06
2.1106e-06
2.05193e-06
1.99317e-06
1.93848e-06
1.88951e-06
1.84844e-06
1.81815e-06
1.79928e-06
1.79106e-06
1.79785e-06
1.81372e-06
2.1052e-06
2.10067e-06
2.09731e-06
2.08991e-06
2.06858e-06
2.02589e-06
1.97056e-06
1.91387e-06
1.86069e-06
1.81359e-06
1.77453e-06
1.7461e-06
1.72858e-06
1.72155e-06
1.72875e-06
1.74453e-06
2.0199e-06
2.0124e-06
2.00712e-06
1.99984e-06
1.9813e-06
1.94277e-06
1.89069e-06
1.83618e-06
1.78468e-06
1.73947e-06
1.70242e-06
1.67579e-06
1.65956e-06
1.65363e-06
1.66113e-06
1.67667e-06
2.70157e-06
2.72533e-06
2.71833e-06
2.69719e-06
2.6772e-06
2.65957e-06
2.64397e-06
2.62943e-06
2.6117e-06
2.58878e-06
2.56232e-06
2.53275e-06
2.49952e-06
2.46424e-06
2.42875e-06
2.39498e-06
2.81894e-06
2.84065e-06
2.83008e-06
2.80616e-06
2.78515e-06
2.76714e-06
2.75141e-06
2.73721e-06
2.71981e-06
2.69634e-06
2.66874e-06
2.63692e-06
2.60071e-06
2.56203e-06
2.52249e-06
2.48363e-06
2.94228e-06
2.96162e-06
2.9473e-06
2.92108e-06
2.89955e-06
2.88166e-06
2.86621e-06
2.85271e-06
2.83592e-06
2.8121e-06
2.78348e-06
2.74958e-06
2.71063e-06
2.66876e-06
2.62521e-06
2.58106e-06
3.07203e-06
3.08862e-06
3.07045e-06
3.04231e-06
3.02078e-06
3.0035e-06
2.98863e-06
2.97617e-06
2.96027e-06
2.93627e-06
2.90679e-06
2.87104e-06
2.82964e-06
2.78484e-06
2.73731e-06
2.68751e-06
3.20862e-06
3.22213e-06
3.19997e-06
3.17023e-06
3.14915e-06
3.13295e-06
3.1189e-06
3.10781e-06
3.09313e-06
3.06916e-06
3.03898e-06
3.00177e-06
2.95825e-06
2.91079e-06
2.85924e-06
2.80338e-06
3.35252e-06
3.36258e-06
3.33639e-06
3.30526e-06
3.28485e-06
3.27015e-06
3.25712e-06
3.2477e-06
3.23462e-06
3.21104e-06
3.18062e-06
3.14241e-06
3.09712e-06
3.04724e-06
2.99151e-06
2.92905e-06
3.50423e-06
3.51048e-06
3.48013e-06
3.44756e-06
3.42789e-06
3.41495e-06
3.40323e-06
3.39585e-06
3.38495e-06
3.3623e-06
3.33241e-06
3.29377e-06
3.24719e-06
3.19492e-06
3.13452e-06
3.06485e-06
3.66438e-06
3.66633e-06
3.63159e-06
3.59726e-06
3.5782e-06
3.56704e-06
3.55717e-06
3.55247e-06
3.54456e-06
3.52393e-06
3.49536e-06
3.45696e-06
3.40963e-06
3.35461e-06
3.28879e-06
3.2115e-06
3.83364e-06
3.83052e-06
3.79097e-06
3.75455e-06
3.73585e-06
3.72657e-06
3.71948e-06
3.71839e-06
3.71471e-06
3.69776e-06
3.67125e-06
3.63364e-06
3.58576e-06
3.52735e-06
3.45517e-06
3.36979e-06
4.01268e-06
4.00337e-06
3.9583e-06
3.91984e-06
3.90144e-06
3.89479e-06
3.8917e-06
3.89527e-06
3.89732e-06
3.88585e-06
3.86249e-06
3.82598e-06
3.77708e-06
3.71452e-06
3.63469e-06
3.54063e-06
4.20214e-06
4.18491e-06
4.13376e-06
4.09391e-06
4.07642e-06
4.07366e-06
4.0763e-06
4.08584e-06
4.09497e-06
4.09047e-06
4.07111e-06
4.03611e-06
3.98515e-06
3.91781e-06
3.82908e-06
3.72578e-06
4.40255e-06
4.37512e-06
4.31801e-06
4.27829e-06
4.26287e-06
4.26566e-06
4.27614e-06
4.29294e-06
4.30966e-06
4.31281e-06
4.29826e-06
4.26529e-06
4.21192e-06
4.13871e-06
4.04086e-06
3.92835e-06
4.61391e-06
4.57417e-06
4.51247e-06
4.47481e-06
4.46249e-06
4.47259e-06
4.49284e-06
4.51715e-06
4.54114e-06
4.55205e-06
4.54347e-06
4.51372e-06
4.45965e-06
4.37959e-06
4.27354e-06
4.15174e-06
4.8357e-06
4.78306e-06
4.71836e-06
4.68398e-06
4.67552e-06
4.69358e-06
4.72345e-06
4.75408e-06
4.78461e-06
4.80412e-06
4.80401e-06
4.78135e-06
4.72983e-06
4.64398e-06
4.52994e-06
4.39707e-06
5.06677e-06
5.00244e-06
4.93568e-06
4.90433e-06
4.89895e-06
4.92256e-06
4.96124e-06
5.00013e-06
5.03959e-06
5.06965e-06
5.0807e-06
5.06855e-06
5.02322e-06
4.93472e-06
4.8125e-06
4.66532e-06
5.30651e-06
5.23214e-06
5.16374e-06
5.13425e-06
5.12974e-06
5.1564e-06
5.20337e-06
5.25433e-06
5.30767e-06
5.35418e-06
5.38057e-06
5.37968e-06
5.34146e-06
5.25374e-06
5.12402e-06
4.96017e-06
5.55504e-06
5.47116e-06
5.40065e-06
5.37147e-06
5.36746e-06
5.39871e-06
5.45497e-06
5.52317e-06
5.5975e-06
5.66652e-06
5.7101e-06
5.7182e-06
5.68719e-06
5.60377e-06
5.46885e-06
5.28968e-06
5.81364e-06
5.71844e-06
5.64759e-06
5.61849e-06
5.62027e-06
5.66186e-06
5.72842e-06
5.81545e-06
5.91246e-06
6.00537e-06
6.06685e-06
6.08547e-06
6.06369e-06
5.98875e-06
5.8522e-06
5.66047e-06
6.08275e-06
5.97204e-06
5.90022e-06
5.87548e-06
5.8919e-06
5.95215e-06
6.02962e-06
6.13007e-06
6.24566e-06
6.3587e-06
6.44072e-06
6.47839e-06
6.47355e-06
6.41312e-06
6.27648e-06
6.07275e-06
6.35728e-06
6.2283e-06
6.15061e-06
6.13069e-06
6.16362e-06
6.24494e-06
6.33837e-06
6.45352e-06
6.58626e-06
6.71673e-06
6.82388e-06
6.89723e-06
6.91929e-06
6.88114e-06
6.74453e-06
6.52447e-06
6.62928e-06
6.48554e-06
6.39697e-06
6.37981e-06
6.42616e-06
6.52261e-06
6.6413e-06
6.78639e-06
6.94715e-06
7.10221e-06
7.24394e-06
7.35925e-06
7.41341e-06
7.39747e-06
7.26656e-06
7.03008e-06
6.89785e-06
6.74727e-06
6.65886e-06
6.64564e-06
6.71219e-06
6.82729e-06
6.97264e-06
7.14909e-06
7.34015e-06
7.52722e-06
7.70662e-06
7.86311e-06
7.95816e-06
7.96906e-06
7.85907e-06
7.60877e-06
7.17672e-06
7.01116e-06
6.91861e-06
6.91358e-06
7.01897e-06
7.16664e-06
7.33815e-06
7.53506e-06
7.74275e-06
7.95658e-06
8.17343e-06
8.37906e-06
8.54133e-06
8.59656e-06
8.52633e-06
8.26385e-06
7.45336e-06
7.27072e-06
7.17241e-06
7.17536e-06
7.31608e-06
7.50135e-06
7.70345e-06
7.92804e-06
8.15759e-06
8.39323e-06
8.64433e-06
8.90635e-06
9.1581e-06
9.27449e-06
9.26029e-06
9.00589e-06
7.74569e-06
7.54633e-06
7.44098e-06
7.47256e-06
7.6498e-06
7.87795e-06
8.12358e-06
8.3826e-06
8.6389e-06
8.88982e-06
9.16892e-06
9.47016e-06
9.79562e-06
1.00091e-05
1.00668e-05
9.86594e-06
8.07947e-06
7.84085e-06
7.72872e-06
7.8055e-06
8.0569e-06
8.3298e-06
8.60481e-06
8.88192e-06
9.14488e-06
9.40065e-06
9.69018e-06
1.00207e-05
1.04199e-05
1.07742e-05
1.09172e-05
1.08182e-05
1.06976e-05
1.02363e-05
1.00901e-05
1.03008e-05
1.07424e-05
1.11285e-05
1.14734e-05
1.17977e-05
1.21189e-05
1.24229e-05
1.27618e-05
1.31549e-05
1.36892e-05
1.43304e-05
1.4819e-05
1.49752e-05
1.11814e-05
1.06235e-05
1.05686e-05
1.09504e-05
1.14272e-05
1.17784e-05
1.20459e-05
1.2293e-05
1.25801e-05
1.28397e-05
1.31556e-05
1.35337e-05
1.40904e-05
1.48083e-05
1.55984e-05
1.60731e-05
1.14379e-05
1.08703e-05
1.09421e-05
1.14631e-05
1.1966e-05
1.22568e-05
1.2385e-05
1.2539e-05
1.28074e-05
1.30634e-05
1.34021e-05
1.38231e-05
1.44626e-05
1.52422e-05
1.61509e-05
1.69417e-05
1.16612e-05
1.11031e-05
1.13011e-05
1.19244e-05
1.24143e-05
1.25893e-05
1.25868e-05
1.26778e-05
1.28974e-05
1.31449e-05
1.3568e-05
1.41059e-05
1.4872e-05
1.57214e-05
1.65992e-05
1.7487e-05
1.18088e-05
1.12777e-05
1.15702e-05
1.22705e-05
1.27333e-05
1.27821e-05
1.26873e-05
1.27004e-05
1.28999e-05
1.31952e-05
1.37026e-05
1.44629e-05
1.53909e-05
1.62951e-05
1.70363e-05
1.79397e-05
1.19178e-05
1.1413e-05
1.17895e-05
1.25354e-05
1.2898e-05
1.28143e-05
1.26938e-05
1.26773e-05
1.28948e-05
1.33469e-05
1.40182e-05
1.51592e-05
1.61783e-05
1.706e-05
1.75499e-05
1.80847e-05
1.20209e-05
1.15293e-05
1.19494e-05
1.27327e-05
1.2888e-05
1.29048e-05
1.28563e-05
1.29097e-05
1.32799e-05
1.39255e-05
1.49229e-05
1.64899e-05
1.74916e-05
1.79982e-05
1.80505e-05
1.80777e-05
1.21346e-05
1.16357e-05
1.20629e-05
1.28365e-05
1.28373e-05
1.3113e-05
1.32372e-05
1.36818e-05
1.45577e-05
1.58209e-05
1.71712e-05
1.89609e-05
1.96831e-05
1.89245e-05
1.83275e-05
1.7899e-05
1.22697e-05
1.17422e-05
1.21314e-05
1.27538e-05
1.29604e-05
1.35476e-05
1.43146e-05
1.5821e-05
1.78367e-05
1.97231e-05
2.13494e-05
2.25816e-05
2.14325e-05
1.94358e-05
1.81996e-05
1.73498e-05
1.24402e-05
1.18827e-05
1.21856e-05
1.26682e-05
1.32797e-05
1.48453e-05
1.72529e-05
2.06568e-05
2.36349e-05
2.52643e-05
2.52843e-05
2.4223e-05
2.17101e-05
1.89446e-05
1.74655e-05
1.64713e-05
1.26545e-05
1.20776e-05
1.23048e-05
1.29029e-05
1.4102e-05
1.82515e-05
2.34094e-05
2.76417e-05
2.87884e-05
2.80293e-05
2.58949e-05
2.20355e-05
1.85107e-05
1.68062e-05
1.61753e-05
1.54417e-05
1.29355e-05
1.23355e-05
1.25838e-05
1.35216e-05
1.616e-05
2.482e-05
3.0621e-05
3.14031e-05
2.875e-05
2.38555e-05
1.92452e-05
1.61245e-05
1.4987e-05
1.49489e-05
1.50352e-05
1.4579e-05
1.32606e-05
1.27226e-05
1.31923e-05
1.50763e-05
2.02196e-05
3.15347e-05
3.27349e-05
2.73946e-05
2.02007e-05
1.63973e-05
1.44678e-05
1.34189e-05
1.34931e-05
1.41936e-05
1.43658e-05
1.39109e-05
1.35182e-05
1.32926e-05
1.44966e-05
1.84507e-05
2.6191e-05
3.28042e-05
2.69152e-05
1.91059e-05
1.45609e-05
1.27652e-05
1.2675e-05
1.25483e-05
1.31288e-05
1.39058e-05
1.39536e-05
1.34679e-05
1.38297e-05
1.42793e-05
1.73344e-05
2.42231e-05
3.06324e-05
2.70359e-05
2.00574e-05
1.52303e-05
1.28949e-05
1.17524e-05
1.23476e-05
1.24989e-05
1.31947e-05
1.387e-05
1.37146e-05
1.32413e-05
1.43436e-05
1.62739e-05
2.31087e-05
2.83658e-05
3.05232e-05
2.1111e-05
1.84402e-05
1.4942e-05
1.29662e-05
1.1742e-05
1.24966e-05
1.26753e-05
1.3469e-05
1.39671e-05
1.36132e-05
1.32224e-05
1.54102e-05
2.05685e-05
2.7834e-05
2.83946e-05
2.57789e-05
1.98433e-05
1.94205e-05
1.58686e-05
1.34932e-05
1.20015e-05
1.28184e-05
1.30104e-05
1.38378e-05
1.41075e-05
1.36164e-05
1.34105e-05
1.76054e-05
2.52073e-05
2.84441e-05
2.39961e-05
2.07672e-05
2.08069e-05
2.08448e-05
1.7072e-05
1.38269e-05
1.2186e-05
1.31412e-05
1.34323e-05
1.42348e-05
1.42554e-05
1.36881e-05
1.37577e-05
2.13884e-05
2.70747e-05
2.56773e-05
1.95623e-05
1.82219e-05
2.21528e-05
2.23717e-05
1.84023e-05
1.40341e-05
1.24376e-05
1.35246e-05
1.39093e-05
1.45977e-05
1.43761e-05
1.38504e-05
1.42638e-05
2.40738e-05
2.7091e-05
2.09462e-05
1.75385e-05
1.84508e-05
2.34072e-05
2.39444e-05
1.97936e-05
1.42015e-05
1.27795e-05
1.39575e-05
1.44068e-05
1.4926e-05
1.44766e-05
1.40663e-05
1.49252e-05
2.45858e-05
2.47354e-05
1.8607e-05
1.72106e-05
1.98411e-05
2.46861e-05
2.55226e-05
2.10504e-05
1.43862e-05
1.32503e-05
1.44677e-05
1.48732e-05
1.52167e-05
1.45652e-05
1.4338e-05
1.57216e-05
2.42584e-05
2.12968e-05
1.86623e-05
1.80434e-05
2.11798e-05
2.60293e-05
2.69103e-05
2.21319e-05
1.45251e-05
1.37338e-05
1.50199e-05
1.52893e-05
1.54954e-05
1.46794e-05
1.46706e-05
1.65769e-05
2.27475e-05
2.0697e-05
1.9778e-05
1.9249e-05
2.21126e-05
2.74155e-05
2.82667e-05
2.25904e-05
1.44711e-05
1.41426e-05
1.55524e-05
1.56376e-05
1.57703e-05
1.48037e-05
1.50371e-05
1.747e-05
2.1989e-05
2.16211e-05
2.09095e-05
2.07134e-05
2.31927e-05
2.89131e-05
2.91128e-05
2.22475e-05
1.40985e-05
1.4331e-05
1.60574e-05
1.59419e-05
1.60437e-05
1.49191e-05
1.5439e-05
1.84423e-05
2.21982e-05
2.38527e-05
2.22189e-05
2.22717e-05
2.46603e-05
3.03841e-05
2.89919e-05
2.12812e-05
1.33504e-05
1.4279e-05
1.65534e-05
1.625e-05
1.63162e-05
1.50459e-05
1.58748e-05
1.93996e-05
2.28033e-05
2.54855e-05
2.45539e-05
2.38665e-05
2.65557e-05
3.16895e-05
2.742e-05
1.94234e-05
1.22361e-05
1.39155e-05
1.70254e-05
1.65815e-05
1.65734e-05
1.51888e-05
1.63541e-05
2.02283e-05
2.39755e-05
2.63695e-05
2.62788e-05
2.5589e-05
2.8391e-05
3.23355e-05
2.52734e-05
1.69201e-05
1.1017e-05
1.33686e-05
1.74753e-05
1.69485e-05
1.67943e-05
1.53451e-05
1.68445e-05
2.09592e-05
2.49356e-05
2.6681e-05
2.71218e-05
2.70007e-05
3.0145e-05
3.2172e-05
2.33658e-05
1.44582e-05
1.00882e-05
1.26998e-05
1.78646e-05
1.73413e-05
1.69797e-05
1.55027e-05
1.73777e-05
2.14619e-05
2.53747e-05
2.6917e-05
2.77947e-05
2.82928e-05
3.1848e-05
3.20908e-05
2.20217e-05
1.299e-05
9.63149e-06
1.20806e-05
1.81985e-05
1.7731e-05
1.71311e-05
1.5645e-05
1.79168e-05
2.18011e-05
2.603e-05
2.77369e-05
2.88933e-05
2.96702e-05
3.33654e-05
3.25619e-05
2.12743e-05
1.23732e-05
9.62342e-06
1.15632e-05
1.84486e-05
1.80742e-05
1.7281e-05
1.57572e-05
1.84158e-05
2.20181e-05
2.76236e-05
2.95836e-05
3.05282e-05
3.10562e-05
3.48574e-05
3.32824e-05
2.04353e-05
1.20181e-05
9.70571e-06
1.11445e-05
1.86023e-05
1.83266e-05
1.7451e-05
1.58929e-05
1.87876e-05
2.20765e-05
3.09702e-05
3.21946e-05
3.20708e-05
3.19769e-05
3.70428e-05
3.35375e-05
1.8847e-05
1.16277e-05
9.79455e-06
1.08918e-05
1.857e-05
1.84651e-05
1.77371e-05
1.60652e-05
1.89766e-05
2.19987e-05
3.35295e-05
3.37958e-05
3.25629e-05
3.24999e-05
4.00729e-05
3.26395e-05
1.64518e-05
1.12378e-05
9.82033e-06
1.06921e-05
1.8296e-05
1.85001e-05
1.81631e-05
1.62377e-05
1.9039e-05
2.1882e-05
3.47015e-05
3.40689e-05
3.11542e-05
3.23461e-05
4.37683e-05
2.99423e-05
1.43258e-05
1.11113e-05
9.80611e-06
1.04649e-05
1.76714e-05
1.84565e-05
1.8674e-05
1.64198e-05
1.89926e-05
2.19951e-05
3.32588e-05
3.29713e-05
2.72378e-05
3.4088e-05
4.55398e-05
2.55174e-05
1.28756e-05
1.10967e-05
9.72678e-06
1.02236e-05
1.66833e-05
1.83232e-05
1.92524e-05
1.66102e-05
1.88013e-05
2.22115e-05
3.20555e-05
2.95343e-05
2.48712e-05
4.03644e-05
4.46068e-05
2.03073e-05
1.23488e-05
1.11009e-05
9.5765e-06
9.92101e-06
1.54241e-05
1.80611e-05
1.98076e-05
1.68472e-05
1.84853e-05
2.2485e-05
3.01619e-05
2.69256e-05
2.31482e-05
4.7889e-05
3.80694e-05
1.58894e-05
1.22435e-05
1.10668e-05
9.36947e-06
9.59183e-06
1.41308e-05
1.7676e-05
2.02798e-05
1.71517e-05
1.79937e-05
2.25551e-05
2.80178e-05
2.48233e-05
2.30484e-05
5.13035e-05
2.77687e-05
1.37572e-05
1.22823e-05
1.0983e-05
9.11513e-06
9.21852e-06
1.30327e-05
1.71533e-05
2.06473e-05
1.74405e-05
1.74491e-05
2.2455e-05
2.71259e-05
2.40722e-05
2.52584e-05
4.54042e-05