/*--------------------------------*- C++ -*----------------------------------*\
  =========                 |
  \\      /  F ield         | OpenFOAM: The Open Source CFD Toolbox
   \\    /   O peration     | Website:  https://openfoam.org
    \\  /    A nd           | Version:  7
     \\/     M anipulation  |
\*---------------------------------------------------------------------------*/
FoamFile
{
    version     2.0;
    format      ascii;
    class       volScalarField;
    location    "0";
    object      CH4;
}
// * * * * * * * * * * * * * * * * * * * * * * * * * * * * * * * * * * * * * //

dimensions      [0 0 0 0 0 0 0];

internalField   uniform 0;

boundaryField
{
    inletfuel
    {
        type            fixedValue;
        value           uniform 0.888;
    }
    inletcoflow
    {
        type            fixedValue;
        value           uniform 0;
    }
    inletair
    {
        type            fixedValue;
        value           uniform 0;
    }
    outlet
    {
        type            inletOutlet;
        inletValue      uniform 0;
        value           nonuniform List<scalar> 
10368
(
0.113529
0.11315
0.112673
0.112139
0.111578
0.11101
0.110452
0.109913
0.109401
0.108919
0.108474
0.108071
0.107713
0.107406
0.107155
0.106963
0.113764
0.113377
0.112924
0.11242
0.111886
0.111337
0.110788
0.110251
0.109734
0.109243
0.108784
0.108363
0.107985
0.107653
0.107368
0.107124
0.11405
0.113634
0.113181
0.112692
0.112174
0.111641
0.111103
0.110571
0.110054
0.109557
0.109088
0.108654
0.108257
0.107901
0.107584
0.107298
0.114355
0.113907
0.113444
0.112958
0.112451
0.11193
0.111402
0.110876
0.110361
0.109862
0.109388
0.108942
0.108531
0.108154
0.107809
0.107488
0.114659
0.114184
0.113708
0.113221
0.11272
0.112207
0.111688
0.11117
0.110659
0.110161
0.109683
0.10923
0.108806
0.108411
0.108044
0.107696
0.114953
0.114457
0.11397
0.11348
0.112982
0.112476
0.111965
0.111454
0.110949
0.110453
0.109974
0.109516
0.109083
0.108676
0.108291
0.107922
0.115232
0.114722
0.114226
0.113733
0.113238
0.112738
0.112234
0.111731
0.111233
0.11074
0.110262
0.109803
0.109364
0.108947
0.10855
0.108166
0.115492
0.114974
0.114473
0.113979
0.113487
0.112992
0.112497
0.112002
0.11151
0.111024
0.110549
0.11009
0.109648
0.109226
0.108821
0.108429
0.115732
0.115212
0.11471
0.114218
0.113729
0.113242
0.112754
0.112267
0.111784
0.111304
0.110835
0.110378
0.109937
0.109513
0.109105
0.10871
0.115946
0.11543
0.114932
0.114444
0.113962
0.113482
0.113003
0.112525
0.112051
0.111579
0.111115
0.110663
0.110225
0.109802
0.109396
0.109005
0.116138
0.115632
0.115142
0.114662
0.114188
0.113717
0.113247
0.112779
0.112314
0.111851
0.111394
0.110948
0.110515
0.110096
0.109695
0.109314
0.116309
0.115818
0.115341
0.114873
0.114409
0.113948
0.113488
0.11303
0.112575
0.11212
0.111671
0.111232
0.110805
0.110393
0.110001
0.109634
0.116459
0.115992
0.115534
0.11508
0.114629
0.114179
0.113729
0.113281
0.112834
0.112387
0.111946
0.111513
0.111092
0.110688
0.110307
0.109958
0.116595
0.116161
0.115727
0.115292
0.114855
0.114417
0.113976
0.113535
0.113095
0.112654
0.112217
0.111787
0.111371
0.110973
0.110603
0.110276
0.116724
0.116337
0.115936
0.115524
0.115102
0.114674
0.11424
0.113802
0.113362
0.112919
0.112479
0.112047
0.111628
0.111231
0.11087
0.110565
0.116863
0.116543
0.116185
0.115801
0.115396
0.114974
0.114539
0.114094
0.113642
0.113183
0.112724
0.112273
0.111839
0.111433
0.11107
0.110781
0.113781
0.114158
0.114533
0.114896
0.115242
0.115565
0.115862
0.116133
0.116377
0.116589
0.116772
0.116927
0.117053
0.117151
0.117216
0.117229
0.114012
0.114512
0.11498
0.115415
0.115814
0.116177
0.116505
0.116797
0.117054
0.117272
0.117455
0.117602
0.117714
0.117787
0.117813
0.117763
0.114247
0.114838
0.115382
0.115879
0.11633
0.116734
0.117092
0.117408
0.117681
0.117909
0.118095
0.11824
0.118343
0.1184
0.118401
0.118317
0.114484
0.115151
0.115761
0.116314
0.11681
0.117251
0.117639
0.117977
0.118267
0.118505
0.118697
0.118842
0.11894
0.118987
0.118971
0.118865
0.114719
0.115453
0.116122
0.116724
0.117261
0.117736
0.118151
0.11851
0.118815
0.119065
0.119264
0.119411
0.119506
0.119546
0.119519
0.1194
0.114958
0.115759
0.116485
0.117136
0.117713
0.118221
0.118662
0.119043
0.119366
0.119629
0.119838
0.119992
0.12009
0.120126
0.120093
0.119966
0.115209
0.116077
0.116861
0.117559
0.118174
0.118713
0.119179
0.119579
0.119918
0.120195
0.120414
0.120576
0.120678
0.120713
0.120674
0.120539
0.115445
0.116378
0.117213
0.117954
0.118603
0.119167
0.119653
0.12007
0.120423
0.120712
0.120942
0.121113
0.121221
0.121259
0.121219
0.121082
0.115666
0.116657
0.11754
0.118318
0.118995
0.119579
0.120081
0.12051
0.120875
0.121175
0.121417
0.1216
0.121718
0.121763
0.121728
0.121592
0.11587
0.116915
0.11784
0.118648
0.119347
0.119947
0.12046
0.120897
0.121271
0.121581
0.121836
0.122033
0.122166
0.122224
0.122198
0.122069
0.116055
0.117149
0.118111
0.118944
0.119659
0.120268
0.120785
0.121227
0.121606
0.121925
0.122194
0.122409
0.122562
0.12264
0.12263
0.122513
0.116222
0.117359
0.118352
0.119205
0.119929
0.12054
0.121056
0.121497
0.121879
0.122205
0.122488
0.122724
0.122904
0.123011
0.123023
0.122924
0.116353
0.117524
0.118539
0.119403
0.120128
0.120735
0.121245
0.12168
0.122059
0.122389
0.122682
0.122937
0.123142
0.123276
0.123314
0.123234
0.116439
0.117633
0.118661
0.11953
0.120254
0.120855
0.121357
0.121786
0.122161
0.122493
0.122795
0.123066
0.123292
0.123451
0.123513
0.123455
0.116506
0.117718
0.118756
0.119627
0.120347
0.12094
0.121434
0.121855
0.122227
0.12256
0.122869
0.123155
0.123401
0.123584
0.123671
0.123636
0.116558
0.117784
0.118829
0.1197
0.120414
0.121
0.121485
0.121898
0.122265
0.122599
0.122915
0.123213
0.12348
0.123686
0.123797
0.123783
0.116598
0.117836
0.118885
0.119754
0.120462
0.121039
0.121515
0.12192
0.122283
0.122616
0.122938
0.123249
0.123533
0.123762
0.123896
0.123903
0.116629
0.117875
0.118927
0.119793
0.120495
0.121063
0.121529
0.121927
0.122285
0.122618
0.122944
0.123266
0.123568
0.123816
0.123971
0.123998
0.106758
0.10689
0.10711
0.107393
0.10773
0.108114
0.10854
0.109005
0.109506
0.110039
0.110602
0.111191
0.111788
0.112373
0.11292
0.113402
0.106339
0.106455
0.106662
0.10694
0.107277
0.107666
0.108104
0.108587
0.109113
0.109678
0.110282
0.110922
0.111582
0.112243
0.112879
0.113474
0.105876
0.105984
0.106189
0.106469
0.106814
0.107219
0.10768
0.108193
0.108758
0.109369
0.110027
0.110728
0.11146
0.112199
0.112921
0.113608
0.10541
0.105514
0.105716
0.106
0.106356
0.10678
0.107267
0.107816
0.108423
0.109084
0.109799
0.110566
0.11137
0.112189
0.112993
0.113762
0.104961
0.105057
0.105255
0.105542
0.105908
0.106351
0.106865
0.107449
0.1081
0.108811
0.109584
0.110416
0.111294
0.112193
0.113074
0.11392
0.104509
0.104594
0.104786
0.105073
0.105449
0.10591
0.106452
0.107073
0.107768
0.108532
0.109365
0.110264
0.111218
0.112199
0.11316
0.114084
0.10405
0.104116
0.104294
0.104576
0.104958
0.105436
0.106007
0.106665
0.107408
0.108229
0.109126
0.110097
0.111133
0.112205
0.11325
0.114255
0.103628
0.103666
0.103823
0.104096
0.10448
0.104971
0.105567
0.106261
0.107049
0.107925
0.108887
0.109929
0.111044
0.112204
0.113333
0.114417
0.103244
0.103246
0.103376
0.103634
0.104016
0.104518
0.105135
0.105862
0.106693
0.107622
0.108647
0.109759
0.110952
0.112194
0.113406
0.114567
0.102901
0.102857
0.102954
0.103191
0.103567
0.104075
0.104711
0.105468
0.10634
0.10732
0.108405
0.109587
0.110856
0.112174
0.113468
0.114704
0.102597
0.1025
0.102556
0.102768
0.103133
0.103645
0.104296
0.10508
0.105989
0.107017
0.10816
0.10941
0.110754
0.112146
0.11352
0.114827
0.102332
0.102173
0.102182
0.102363
0.102714
0.103226
0.10389
0.104696
0.10564
0.106713
0.107912
0.109228
0.110644
0.112111
0.113561
0.114937
0.102132
0.10191
0.101869
0.102018
0.102352
0.10286
0.103531
0.104356
0.105327
0.106437
0.107684
0.109057
0.110537
0.112071
0.113589
0.115022
0.101997
0.101725
0.101647
0.10177
0.10209
0.102594
0.10327
0.104107
0.105097
0.106234
0.107514
0.108928
0.110454
0.112038
0.113604
0.115077
0.101888
0.101571
0.101457
0.101557
0.101864
0.102365
0.103045
0.103891
0.104897
0.106055
0.107364
0.108813
0.110378
0.112005
0.113612
0.115119
0.101798
0.101439
0.101293
0.101372
0.101668
0.102165
0.102848
0.103702
0.104721
0.105898
0.107231
0.108709
0.110309
0.111973
0.113616
0.115151
0.101721
0.101325
0.101151
0.101211
0.101497
0.101991
0.102676
0.103537
0.104567
0.105759
0.107113
0.108617
0.110246
0.111943
0.113617
0.115175
0.101655
0.101226
0.101027
0.10107
0.101347
0.101838
0.102525
0.103392
0.104431
0.105637
0.107008
0.108534
0.110189
0.111914
0.113615
0.115193
0.11059
0.110283
0.109938
0.109577
0.109217
0.10887
0.108542
0.108237
0.107956
0.107698
0.107468
0.107265
0.107089
0.106942
0.106829
0.106759
0.110443
0.11005
0.109645
0.10924
0.108846
0.108472
0.108124
0.107803
0.107512
0.107249
0.107018
0.106817
0.106647
0.106511
0.106412
0.106352
0.11033
0.109872
0.109416
0.10897
0.108544
0.108144
0.107773
0.107433
0.107126
0.106849
0.106604
0.106392
0.106213
0.10607
0.105964
0.105897
0.110249
0.109737
0.109237
0.108755
0.108299
0.107872
0.107477
0.107115
0.106786
0.106489
0.106225
0.105993
0.105797
0.105638
0.105518
0.10544
0.110199
0.109642
0.109103
0.108589
0.108103
0.10765
0.10723
0.106844
0.106491
0.10617
0.105882
0.105628
0.105409
0.105229
0.105091
0.104999
0.110179
0.109579
0.109004
0.108456
0.10794
0.107458
0.107011
0.106598
0.106219
0.10587
0.105555
0.105273
0.105027
0.104822
0.104662
0.104554
0.110205
0.109568
0.108958
0.108379
0.107835
0.107325
0.10685
0.106409
0.106
0.10562
0.105272
0.104957
0.104678
0.10444
0.104249
0.104114
0.110278
0.109609
0.10897
0.108365
0.107795
0.107261
0.106761
0.106294
0.105857
0.105446
0.105066
0.104716
0.104399
0.104121
0.10389
0.10372
0.110398
0.109703
0.109039
0.108411
0.107819
0.107264
0.106743
0.106253
0.105791
0.105352
0.104939
0.104552
0.104193
0.103869
0.10359
0.103374
0.110563
0.109846
0.109162
0.108514
0.107905
0.107332
0.106794
0.106286
0.105803
0.105339
0.104894
0.104469
0.104064
0.103686
0.103351
0.103079
0.110773
0.110037
0.109335
0.108671
0.108047
0.107462
0.106912
0.106391
0.105892
0.105406
0.104932
0.104467
0.104012
0.103574
0.103172
0.102834
0.111021
0.11027
0.109554
0.108876
0.108242
0.107648
0.107092
0.106564
0.106055
0.105552
0.105052
0.104547
0.104036
0.103531
0.103054
0.10264
0.111249
0.110489
0.109763
0.109078
0.108438
0.107842
0.107285
0.106757
0.106245
0.105734
0.105216
0.104678
0.104119
0.103552
0.103002
0.102512
0.111451
0.110684
0.109951
0.109258
0.108613
0.108015
0.107457
0.106929
0.106415
0.105898
0.105364
0.104801
0.104206
0.10359
0.102984
0.102434
0.111646
0.110873
0.110132
0.109434
0.108784
0.108183
0.107625
0.107096
0.106581
0.106058
0.105512
0.104927
0.104299
0.103639
0.102981
0.102376
0.111831
0.111053
0.110305
0.109601
0.108946
0.108342
0.107783
0.107255
0.106738
0.10621
0.105653
0.105049
0.104391
0.103691
0.102987
0.102333
0.112006
0.111222
0.110468
0.109757
0.109098
0.108491
0.10793
0.107401
0.106882
0.10635
0.105783
0.105162
0.104478
0.103743
0.102997
0.102298
0.112169
0.11138
0.11062
0.109902
0.109237
0.108627
0.108064
0.107533
0.107012
0.106474
0.105898
0.105264
0.104557
0.103791
0.103007
0.102269
0.117128
0.116911
0.116618
0.116271
0.11588
0.115455
0.114999
0.11452
0.114021
0.113504
0.112982
0.112473
0.111991
0.111551
0.111163
0.11084
0.117591
0.117369
0.117089
0.116753
0.116365
0.115931
0.115456
0.114944
0.114401
0.11383
0.11325
0.112683
0.112149
0.111661
0.111219
0.110819
0.118102
0.117856
0.117566
0.117224
0.11683
0.116383
0.115887
0.115346
0.114764
0.114144
0.113509
0.112887
0.112301
0.11176
0.11126
0.110789
0.118624
0.118354
0.118046
0.11769
0.117282
0.11682
0.116303
0.115733
0.115114
0.114449
0.113762
0.113088
0.112452
0.111859
0.111302
0.11077
0.119142
0.118853
0.118526
0.118153
0.117728
0.117247
0.116708
0.116111
0.115458
0.114749
0.114013
0.11329
0.112608
0.111965
0.111357
0.110771
0.1197
0.119396
0.11905
0.118657
0.118212
0.117711
0.117148
0.116523
0.115834
0.115079
0.114293
0.113521
0.11279
0.112097
0.111437
0.110799
0.120265
0.119946
0.11958
0.119166
0.1187
0.118175
0.117588
0.116934
0.116211
0.115413
0.114581
0.113767
0.112992
0.112255
0.111548
0.110865
0.120805
0.120475
0.120092
0.119658
0.11917
0.118623
0.118012
0.117332
0.116579
0.115742
0.114872
0.114023
0.113212
0.112437
0.111691
0.110971
0.121317
0.12098
0.120584
0.120131
0.119622
0.119053
0.11842
0.117717
0.116937
0.116067
0.115167
0.114291
0.113451
0.112645
0.111869
0.111118
0.121802
0.121462
0.121055
0.120584
0.120055
0.119465
0.118813
0.118089
0.117285
0.116389
0.115468
0.114572
0.113711
0.112882
0.112081
0.111307
0.122258
0.121919
0.121502
0.121016
0.120468
0.119859
0.119188
0.118446
0.117621
0.116707
0.115773
0.114864
0.11399
0.113145
0.112327
0.111534
0.122685
0.122349
0.121925
0.121424
0.120857
0.120229
0.119541
0.118784
0.117942
0.117015
0.116077
0.115164
0.114284
0.113432
0.112603
0.111797
0.12301
0.122677
0.122247
0.121733
0.12115
0.120507
0.119805
0.119036
0.118183
0.117252
0.116316
0.115406
0.114528
0.113676
0.112845
0.112033
0.12325
0.122926
0.122495
0.121975
0.121381
0.120727
0.120015
0.119239
0.118378
0.117447
0.116516
0.115612
0.114738
0.113889
0.113057
0.112242
0.123451
0.123138
0.122709
0.122184
0.121583
0.120919
0.1202
0.119418
0.118552
0.117622
0.116698
0.115801
0.114934
0.114089
0.11326
0.112442
0.123619
0.123318
0.122894
0.122367
0.121759
0.121088
0.120363
0.119576
0.118707
0.117781
0.116865
0.115976
0.115116
0.114277
0.113451
0.112632
0.123758
0.12347
0.123052
0.122525
0.121913
0.121237
0.120507
0.119717
0.118845
0.117925
0.117017
0.116137
0.115286
0.114453
0.113629
0.112811
0.123872
0.123598
0.123187
0.122661
0.122048
0.121369
0.120635
0.119843
0.11897
0.118056
0.117156
0.116286
0.115443
0.114616
0.113796
0.112976
0.116659
0.117914
0.118968
0.11983
0.120523
0.12108
0.121535
0.121923
0.122275
0.122607
0.122938
0.123273
0.123595
0.123868
0.12405
0.124103
0.116694
0.117958
0.119011
0.119866
0.120546
0.121087
0.121527
0.121903
0.122247
0.122576
0.122914
0.123264
0.123611
0.123918
0.124135
0.124222
0.116726
0.117998
0.119049
0.119894
0.120559
0.121082
0.121505
0.121865
0.1222
0.122526
0.122869
0.123235
0.123611
0.123954
0.124211
0.124335
0.116756
0.118034
0.119082
0.119914
0.120561
0.121063
0.121464
0.121807
0.12213
0.122452
0.1228
0.123184
0.123591
0.123976
0.124277
0.124442
0.116781
0.118065
0.119106
0.119923
0.120548
0.121025
0.121402
0.121726
0.122035
0.122353
0.122706
0.123108
0.123548
0.123979
0.124331
0.124542
0.116802
0.11809
0.119122
0.11992
0.120519
0.120968
0.121317
0.121617
0.121911
0.122223
0.122581
0.123002
0.123479
0.123961
0.12437
0.124633
0.116817
0.118107
0.119127
0.119902
0.120472
0.120888
0.121204
0.121477
0.121753
0.122059
0.122422
0.122862
0.123379
0.123918
0.124392
0.124715
0.116824
0.118114
0.119119
0.119867
0.120402
0.120779
0.121059
0.121302
0.121558
0.121856
0.122224
0.122684
0.123242
0.123846
0.124392
0.124783
0.116821
0.11811
0.119096
0.119812
0.120306
0.120637
0.120876
0.121086
0.12132
0.12161
0.121983
0.122463
0.123065
0.123739
0.124369
0.124836
0.116807
0.118091
0.119054
0.119732
0.120176
0.120457
0.12065
0.120823
0.121034
0.121315
0.121695
0.122195
0.12284
0.123592
0.124316
0.124872
0.116779
0.118056
0.118989
0.119621
0.120009
0.120234
0.120375
0.120508
0.120693
0.120966
0.121354
0.121878
0.122562
0.123396
0.124228
0.124887
0.116734
0.117999
0.118897
0.119474
0.119798
0.11996
0.120046
0.120134
0.12029
0.120553
0.120953
0.121505
0.122235
0.123143
0.124097
0.124876
0.116668
0.117918
0.118772
0.119284
0.119537
0.11963
0.119655
0.119695
0.119818
0.12007
0.120481
0.121068
0.121853
0.122833
0.123913
0.124834
0.116576
0.117807
0.118606
0.119045
0.119218
0.119235
0.119196
0.119182
0.119268
0.119506
0.11993
0.120555
0.121403
0.122469
0.123667
0.12475
0.116456
0.11766
0.118396
0.11875
0.118832
0.118768
0.118661
0.118587
0.118631
0.11885
0.119287
0.119956
0.120877
0.122039
0.123363
0.124613
0.116301
0.11747
0.118132
0.11839
0.118371
0.118217
0.118035
0.117898
0.117895
0.118093
0.118542
0.119259
0.120261
0.121532
0.122993
0.124415
0.116107
0.117231
0.117809
0.117959
0.117827
0.117572
0.117309
0.117105
0.117052
0.117226
0.117684
0.118451
0.119541
0.120932
0.122545
0.124156
0.115867
0.116937
0.117419
0.117448
0.117193
0.116828
0.116478
0.116203
0.116096
0.116242
0.116704
0.117518
0.1187
0.120223
0.122006
0.123823
0.115574
0.116581
0.116954
0.116852
0.116466
0.115984
0.115538
0.115184
0.115019
0.115132
0.115591
0.116445
0.117719
0.119385
0.121359
0.123398
0.115217
0.116153
0.116406
0.116165
0.115641
0.115037
0.114485
0.114041
0.113809
0.113876
0.114323
0.115213
0.116576
0.118394
0.120579
0.122867
0.114791
0.115651
0.115777
0.115406
0.114746
0.114004
0.113319
0.11277
0.112453
0.112457
0.112875
0.113788
0.115247
0.117221
0.119641
0.12221
0.11429
0.115069
0.115076
0.114571
0.113774
0.112888
0.112054
0.111374
0.110948
0.110863
0.11123
0.112149
0.113693
0.115839
0.118517
0.121403
0.113718
0.114405
0.114288
0.113654
0.112717
0.111684
0.1107
0.109867
0.109298
0.109089
0.109372
0.110269
0.111885
0.114216
0.117173
0.120415
0.113071
0.113671
0.113438
0.112673
0.111597
0.110412
0.109262
0.108259
0.107522
0.107153
0.107309
0.108141
0.109799
0.112313
0.115571
0.119208
0.112353
0.112893
0.112556
0.111652
0.110446
0.109119
0.107805
0.106612
0.105674
0.105102
0.105076
0.105782
0.107432
0.110094
0.113669
0.117745
0.111545
0.112064
0.111647
0.110626
0.109286
0.107828
0.106361
0.104982
0.103812
0.10298
0.102697
0.103192
0.104758
0.107533
0.111428
0.115983
0.110312
0.110779
0.110292
0.109167
0.107707
0.106121
0.104485
0.102862
0.101433
0.100379
0.0998363
0.10007
0.101481
0.104329
0.108561
0.113669
0.108954
0.109532
0.109009
0.10777
0.106192
0.104504
0.102672
0.100662
0.0986085
0.0968631
0.0956244
0.095115
0.095931
0.0985874
0.103269
0.109332
0.107864
0.108603
0.108143
0.106898
0.105298
0.103588
0.101661
0.0993794
0.0968174
0.0942934
0.0921909
0.0907311
0.0905711
0.0925205
0.0972175
0.104134
0.107009
0.107949
0.107629
0.106453
0.104916
0.103257
0.101326
0.0989261
0.0960467
0.0930058
0.09003
0.0875519
0.0861841
0.0869616
0.0910098
0.0983218
0.10644
0.107618
0.107495
0.106475
0.105036
0.103419
0.101523
0.0991239
0.0960633
0.0926416
0.0890181
0.0855532
0.082926
0.0823855
0.0852859
0.0922743
0.10616
0.107597
0.1077
0.106871
0.105507
0.103876
0.101914
0.0994371
0.0962675
0.0926295
0.0885432
0.0840496
0.0802697
0.0787019
0.0804601
0.086393
0.106186
0.107884
0.108222
0.107585
0.106241
0.104471
0.102337
0.0996088
0.096161
0.0921084
0.0872615
0.0815597
0.0769758
0.0749852
0.0764188
0.0813938
0.106518
0.108458
0.10901
0.108509
0.107037
0.105008
0.102405
0.0989451
0.0946486
0.0894161
0.083242
0.076492
0.0717994
0.0701953
0.0721526
0.0771693
0.107152
0.109293
0.110002
0.109503
0.107715
0.105032
0.101197
0.0956873
0.0891141
0.0817459
0.074706
0.0681691
0.0645047
0.0641965
0.0674424
0.0732221
0.108056
0.110333
0.111082
0.110362
0.107944
0.10343
0.0967111
0.086897
0.0776467
0.0693354
0.0629481
0.057872
0.0560938
0.0577162
0.0626332
0.0695284
0.109166
0.111478
0.112069
0.110796
0.107065
0.0984438
0.0865892
0.0735254
0.0631432
0.0553783
0.0505622
0.0475435
0.0479856
0.0517256
0.0582962
0.0663109
0.110363
0.112539
0.112665
0.110298
0.104092
0.0889061
0.0724386
0.057744
0.0477845
0.0417557
0.0390641
0.0385992
0.0413167
0.0469862
0.0548886
0.063779
0.111469
0.113211
0.112394
0.108091
0.0980511
0.0762076
0.0562229
0.0416275
0.0337095
0.030382
0.0302278
0.0322448
0.0368007
0.0438827
0.0526472
0.0620466
0.112245
0.113062
0.110621
0.10318
0.0887066
0.0617045
0.0401985
0.0284613
0.0236264
0.0228359
0.024743
0.0285675
0.0343071
0.0422569
0.051478
0.0610874
0.112387
0.111568
0.106524
0.0949595
0.0767456
0.0465848
0.0282942
0.0205526
0.0178765
0.0185499
0.0217843
0.0267862
0.0332373
0.0417249
0.0512041
0.0607285
0.111514
0.108237
0.0995443
0.0838442
0.0635018
0.0341202
0.0219805
0.0165808
0.0146906
0.0160026
0.0201736
0.0260846
0.0329969
0.0418824
0.0514545
0.0606353
0.109275
0.10281
0.0900111
0.0711109
0.0506575
0.026379
0.0189477
0.0144766
0.0126139
0.0141632
0.0191709
0.0259214
0.0331619
0.0424141
0.0519432
0.0605409
0.105539
0.09561
0.0790539
0.0582229
0.0399848
0.0220431
0.0172485
0.0131077
0.010979
0.012632
0.0184514
0.0260199
0.0334779
0.043048
0.0524246
0.0602611
0.100487
0.0873456
0.0681956
0.0469791
0.0319901
0.0195216
0.0160318
0.0120414
0.00954832
0.0113238
0.0179405
0.0262418
0.03377
0.043583
0.0526947
0.0596968
0.0945117
0.0787366
0.0584425
0.0386905
0.0264303
0.0179034
0.0149876
0.0110976
0.0082602
0.0101932
0.0175233
0.0264705
0.0339415
0.0439069
0.0526427
0.0588225
0.0882014
0.0707741
0.0507736
0.033478
0.0225807
0.0167604
0.0139784
0.010182
0.00708221
0.00917383
0.0171303
0.026634
0.0339481
0.0439512
0.0522375
0.0576746
0.0823556
0.0644554
0.0462501
0.0312118
0.020193
0.0158657
0.0129487
0.00923083
0.00599096
0.00819637
0.0166962
0.0266792
0.0337861
0.0437058
0.0515108
0.056297
0.0778774
0.0607559
0.0453928
0.0316516
0.0192603
0.0151369
0.0118605
0.00819047
0.00495704
0.00720323
0.0161506
0.0265945
0.0335014
0.0432202
0.0505372
0.0547454
0.0753662
0.0599868
0.0475822
0.0338049
0.0193468
0.0145004
0.0106714
0.00704089
0.00397125
0.00616028
0.0154877
0.0263816
0.033143
0.0425527
0.049392
0.0530461
0.0752484
0.0614054
0.0512013
0.0366331
0.0200271
0.0138574
0.00936883
0.00581334
0.00304506
0.00508129
0.0147355
0.0260408
0.0327497
0.0417538
0.0481562
0.0512341
0.0770268
0.0640342
0.0543808
0.0395495
0.0208694
0.0130659
0.00796985
0.00455789
0.00220857
0.00400721
0.013935
0.0255743
0.0323402
0.0408766
0.0468895
0.0493782
0.0799323
0.0669932
0.056343
0.0412022
0.0213361
0.0120103
0.00652539
0.00336789
0.00150188
0.00300675
0.0131238
0.0249863
0.0319113
0.03995
0.0456329
0.0475833
0.0827102
0.0688656
0.0565597
0.0410542
0.0208556
0.0106626
0.00512789
0.00232796
0.000952001
0.00213825
0.0123154
0.0242991
0.0314448
0.0390012
0.0444351
0.0458983
0.0838529
0.0682509
0.0545254
0.0389533
0.0192471
0.00909556
0.00386484
0.00150984
0.000560734
0.0014445
0.0115128
0.0235446
0.0309302
0.0380572
0.0433261
0.0443389
0.0818931
0.0642608
0.0499872
0.0349949
0.016776
0.00747584
0.00280986
0.000924836
0.000308455
0.000932168
0.0106912
0.0227642
0.0304063
0.037139
0.0422995
0.0429346
0.0755401
0.0566611
0.0433649
0.0296784
0.0138714
0.00593448
0.00196593
0.000542688
0.000159478
0.000583186
0.00982147
0.02197
0.0299396
0.0362442
0.041348
0.0417177
0.0641628
0.0463599
0.0354295
0.0238789
0.0109582
0.00455225
0.00131241
0.000304238
7.84465e-05
0.000360507
0.00886489
0.0211187
0.0296236
0.0353689
0.0404517
0.0407465
0.0488596
0.0350413
0.0272083
0.0185661
0.00842146
0.00333936
0.000817665
0.000160771
3.63047e-05
0.000224953
0.00781143
0.020145
0.0294528
0.034531
0.039577
0.0400659
0.0331956
0.0249789
0.0191874
0.0141758
0.00631217
0.00229931
0.000464847
7.77405e-05
1.55106e-05
0.000143224
0.0066769
0.018984
0.0292978
0.0337438
0.0386794
0.0396218
0.0209528
0.0174938
0.0121604
0.0109632
0.00469922
0.00143797
0.00023316
3.30945e-05
5.91611e-06
9.37629e-05
0.00552717
0.017639
0.0289565
0.0330365
0.0377419
0.039339
0.0133788
0.0117169
0.00820959
0.00887503
0.00335905
0.000775628
9.88795e-05
1.18467e-05
1.98997e-06
6.2459e-05
0.00442554
0.0162037
0.0282704
0.0324351
0.0367876
0.0390962
0.00892948
0.00842607
0.00596044
0.00715757
0.00214146
0.00034302
3.4425e-05
3.44144e-06
6.25007e-07
4.24225e-05
0.00343753
0.0147337
0.027168
0.0319073
0.0358549
0.0387287
0.00640914
0.00638523
0.00471082
0.00530404
0.0011145
0.000119517
9.63958e-06
8.07092e-07
2.27845e-07
2.95064e-05
0.00260511
0.0132978
0.0256681
0.0313817
0.0349933
0.0381206
0.00516531
0.00515941
0.00420206
0.0033111
0.000398508
3.17462e-05
2.14625e-06
1.52288e-07
1.27874e-07
2.17837e-05
0.00194477
0.0119336
0.0238487
0.0308412
0.0342505
0.0373109
0.00465292
0.00452673
0.00441306
0.0016946
0.000120137
6.92505e-06
3.87614e-07
2.44513e-08
1.13161e-07
1.76305e-05
0.00143727
0.0106846
0.0217811
0.0302601
0.0336486
0.0363899
0.00447862
0.00442474
0.00448059
0.000706443
2.40624e-05
1.14895e-06
5.45664e-08
5.61583e-09
1.36451e-07
1.58996e-05
0.00106469
0.00943167
0.0195107
0.0295328
0.0331293
0.035443
0.00429308
0.00432158
0.00395704
0.000231673
4.53016e-06
1.51592e-07
6.1972e-09
5.91176e-09
1.97521e-07
1.55906e-05
0.000802287
0.0080643
0.0170455
0.0285045
0.0325916
0.0344887
0.00375261
0.00383473
0.00257157
6.04639e-05
6.48121e-07
1.55316e-08
7.17085e-10
1.04934e-08
3.07282e-07
1.61544e-05
0.000615582
0.00670658
0.0144892
0.0270295
0.0319024
0.0334716
0.00273936
0.0028215
0.0011893
1.41211e-05
9.41158e-08
1.29559e-09
3.68724e-10
1.84737e-08
4.73177e-07
1.69263e-05
0.00046523
0.00516157
0.0123649
0.024959
0.0308405
0.0322046
0.0016236
0.00166832
0.000389031
3.15763e-06
1.43523e-08
1.20001e-10
5.50766e-10
2.74763e-08
6.31981e-07
1.66655e-05
0.000350051
0.00380452
0.0102115
0.0222095
0.0291677
0.030519
0.000808074
0.000771114
0.000106645
6.9989e-07
2.41976e-09
2.3187e-11
7.51911e-10
3.34664e-08
7.11965e-07
1.54834e-05
0.000259896
0.00273853
0.00830507
0.0189192
0.0267425
0.0282483
0.00035359
0.000291457
2.40765e-05
1.44919e-07
4.26402e-10
1.49553e-11
8.3845e-10
3.46287e-08
7.01184e-07
1.34503e-05
0.000191685
0.00190186
0.00629532
0.0153176
0.0235788
0.0253043
0.000141072
9.03142e-05
4.91944e-06
2.81264e-08
7.62567e-11
1.32924e-11
7.98457e-10
3.17452e-08
6.26077e-07
1.0976e-05
0.000136736
0.00126324
0.00436057
0.0117721
0.0198578
0.0217795
5.27805e-05
2.46764e-05
9.12181e-07
5.14039e-09
1.38288e-11
1.09888e-11
6.6192e-10
2.59399e-08
5.08743e-07
8.39125e-06
9.42474e-05
0.000806519
0.00284092
0.00855561
0.0158551
0.0178926
1.87607e-05
5.97915e-06
1.61193e-07
9.21572e-10
2.79345e-12
7.98569e-12
4.89462e-10
1.92641e-08
3.80802e-07
5.998e-06
6.1934e-05
0.000496109
0.0017688
0.00588894
0.0119149
0.0139255
6.39074e-06
1.34306e-06
2.71882e-08
1.69138e-10
7.43743e-13
5.21771e-12
3.25271e-10
1.29916e-08
2.6146e-07
3.99763e-06
3.87793e-05
0.000294979
0.00106157
0.003884
0.00844418
0.0102499
2.0907e-06
2.81572e-07
4.50346e-09
3.41745e-11
2.93206e-13
3.07313e-12
1.97493e-10
8.05722e-09
1.65646e-07
2.48697e-06
2.30584e-05
0.000169796
0.000618622
0.00248733
0.00572483
0.00721989
6.60124e-07
5.69733e-08
7.48369e-10
8.50258e-12
1.53667e-13
1.66849e-12
1.10115e-10
4.60009e-09
9.71039e-08
1.44569e-06
1.30537e-05
9.48478e-05
0.000352346
0.00156185
0.00376684
0.00493099
2.02154e-07
1.13245e-08
1.32588e-10
3.00939e-12
9.11517e-14
8.40908e-13
5.7099e-11
2.44309e-09
5.29921e-08
7.87982e-07
7.04397e-06
5.14523e-05
0.000197755
0.000968234
0.00243216
0.00329465
6.01661e-08
2.26805e-09
2.75092e-11
1.48032e-12
5.6086e-14
3.9876e-13
2.76002e-11
1.208e-09
2.69565e-08
4.04215e-07
3.63503e-06
2.71637e-05
0.000109776
0.00059484
0.00155243
0.00216595
1.75405e-08
4.66347e-10
7.55711e-12
8.61134e-13
3.48151e-14
1.80167e-13
1.25677e-11
5.61108e-10
1.2862e-08
1.96451e-07
1.79965e-06
1.39774e-05
6.04101e-05
0.000363056
0.000984407
0.00140525
5.05493e-09
1.02829e-10
2.82744e-12
5.2338e-13
2.17576e-14
7.99772e-14
5.41851e-12
2.45497e-10
5.79594e-09
9.09531e-08
8.59331e-07
7.03248e-06
3.30681e-05
0.000220494
0.000622006
0.000901512
1.46386e-09
2.58567e-11
1.29827e-12
3.16027e-13
1.37818e-14
3.30626e-14
2.23986e-12
1.02256e-10
2.4869e-09
4.03382e-08
3.97703e-07
3.4729e-06
1.80726e-05
0.000133446
0.00039234
0.000573105
4.39271e-10
7.89678e-12
6.42171e-13
1.85302e-13
8.94674e-15
1.37273e-14
8.92897e-13
4.03676e-11
1.0172e-09
1.73003e-08
1.80009e-07
1.69944e-06
9.92368e-06
8.05732e-05
0.000247133
0.000361369
0.101581
0.101114
0.100888
0.100914
0.101183
0.101672
0.102362
0.103235
0.104284
0.105504
0.106894
0.108443
0.110125
0.111881
0.11361
0.115211
0.101496
0.100982
0.100721
0.100725
0.100984
0.101472
0.102165
0.103046
0.104106
0.105343
0.106754
0.10833
0.110045
0.111838
0.113601
0.115229
0.101414
0.100848
0.100548
0.100529
0.100776
0.101261
0.101957
0.102845
0.103918
0.10517
0.106604
0.108208
0.109957
0.11179
0.113588
0.115243
0.101337
0.100712
0.100369
0.100324
0.100557
0.101039
0.101737
0.102633
0.103717
0.104987
0.106443
0.108076
0.109861
0.111735
0.11357
0.115255
0.101265
0.100575
0.100184
0.100109
0.100328
0.100804
0.101505
0.102408
0.103504
0.10479
0.10627
0.107933
0.109755
0.111672
0.113547
0.115262
0.101198
0.100436
0.0999924
0.0998831
0.100085
0.100556
0.101259
0.102168
0.103277
0.104579
0.106083
0.107778
0.109639
0.111601
0.113517
0.115264
0.101137
0.100295
0.0997921
0.0996456
0.0998288
0.100294
0.100998
0.101914
0.103034
0.104353
0.10588
0.107609
0.109512
0.111519
0.113478
0.115259
0.101081
0.100151
0.0995823
0.0993949
0.0995572
0.100015
0.10072
0.101643
0.102774
0.10411
0.105661
0.107423
0.109371
0.111427
0.11343
0.115248
0.10103
0.100002
0.0993614
0.0991289
0.0992686
0.0997185
0.100424
0.101353
0.102495
0.103847
0.105423
0.10722
0.109214
0.111321
0.113372
0.115226
0.100982
0.0998476
0.0991274
0.0988457
0.0989608
0.0994024
0.100109
0.101043
0.102195
0.103563
0.105163
0.106997
0.109039
0.111199
0.1133
0.115194
0.100936
0.0996849
0.0988782
0.0985428
0.0986317
0.0990644
0.0997709
0.10071
0.101872
0.103254
0.104879
0.10675
0.108843
0.111059
0.113213
0.115148
0.100891
0.0995115
0.0986107
0.0982177
0.0982786
0.0987016
0.0994077
0.10035
0.10152
0.102917
0.104568
0.106476
0.108623
0.110899
0.113109
0.115085
0.100842
0.099324
0.0983217
0.097867
0.097898
0.0983104
0.0990151
0.0999601
0.101137
0.102549
0.104224
0.106172
0.108374
0.110713
0.112983
0.115002
0.100784
0.0991173
0.0980065
0.0974867
0.0974858
0.0978862
0.0985881
0.0995339
0.100718
0.102144
0.103845
0.105834
0.108095
0.1105
0.112832
0.114895
0.100712
0.0988855
0.0976598
0.0970718
0.0970371
0.0974232
0.0981204
0.0990656
0.100258
0.101698
0.103425
0.105456
0.107779
0.110255
0.112651
0.114761
0.100614
0.0986204
0.0972747
0.0966163
0.0965452
0.0969141
0.0976039
0.0985475
0.0997479
0.101203
0.102959
0.105034
0.107422
0.109971
0.112437
0.114596
0.10048
0.0983116
0.096843
0.0961127
0.0960028
0.0963502
0.097029
0.0979701
0.0991798
0.100652
0.102439
0.104561
0.107017
0.109642
0.112183
0.114395
0.100289
0.097944
0.0963544
0.0955521
0.095401
0.0957211
0.0963849
0.0973217
0.0985428
0.100035
0.101857
0.104029
0.106557
0.109263
0.111883
0.11415
0.100024
0.0975013
0.0957966
0.0949237
0.0947282
0.0950144
0.0956589
0.0965899
0.0978258
0.0993422
0.101205
0.103431