/*--------------------------------*- C++ -*----------------------------------*\
  =========                 |
  \\      /  F ield         | OpenFOAM: The Open Source CFD Toolbox
   \\    /   O peration     | Website:  https://openfoam.org
    \\  /    A nd           | Version:  7
     \\/     M anipulation  |
\*---------------------------------------------------------------------------*/
FoamFile
{
    version     2.0;
    format      ascii;
    class       volScalarField;
    location    "0";
    object      H2;
}
// * * * * * * * * * * * * * * * * * * * * * * * * * * * * * * * * * * * * * //

dimensions      [0 0 0 0 0 0 0];

internalField   uniform 0;

boundaryField
{
    inletfuel
    {
        type            fixedValue;
        value           uniform 0.112;
    }
    inletcoflow
    {
        type            fixedValue;
        value           uniform 0;
    }
    inletair
    {
        type            fixedValue;
        value           uniform 0;
    }
    outlet
    {
        type            inletOutlet;
        inletValue      uniform 0;
        value           nonuniform List<scalar> 
10368
(
0.0142554
0.014208
0.0141485
0.0140819
0.0140119
0.0139411
0.0138715
0.0138044
0.0137408
0.013681
0.0136259
0.0135761
0.0135321
0.0134945
0.0134638
0.0134404
0.0142847
0.0142364
0.0141799
0.0141171
0.0140504
0.0139819
0.0139136
0.0138467
0.0137825
0.0137216
0.0136648
0.0136128
0.0135662
0.0135254
0.0134905
0.0134607
0.0143205
0.0142685
0.0142121
0.014151
0.0140865
0.01402
0.013953
0.0138868
0.0138226
0.0137609
0.0137029
0.0136492
0.0136004
0.0135565
0.0135176
0.0134825
0.0143585
0.0143026
0.0142449
0.0141844
0.0141212
0.0140562
0.0139905
0.0139251
0.0138612
0.0137993
0.0137405
0.0136854
0.0136346
0.0135882
0.0135458
0.0135064
0.0143965
0.0143373
0.014278
0.0142173
0.0141549
0.014091
0.0140264
0.0139619
0.0138985
0.0138366
0.0137774
0.0137214
0.0136691
0.0136205
0.0135753
0.0135326
0.0144332
0.0143715
0.0143107
0.0142497
0.0141877
0.0141246
0.0140611
0.0139975
0.0139348
0.0138733
0.0138139
0.0137573
0.0137038
0.0136536
0.0136063
0.013561
0.0144681
0.0144045
0.0143427
0.0142813
0.0142196
0.0141574
0.0140948
0.0140322
0.0139703
0.0139093
0.01385
0.0137932
0.013739
0.0136876
0.0136387
0.0135916
0.0145006
0.014436
0.0143736
0.0143121
0.0142508
0.0141893
0.0141276
0.0140661
0.0140051
0.0139447
0.0138859
0.0138291
0.0137746
0.0137225
0.0136727
0.0136246
0.0145305
0.0144657
0.0144032
0.0143419
0.0142812
0.0142205
0.0141598
0.0140994
0.0140394
0.0139799
0.0139217
0.0138652
0.0138107
0.0137584
0.0137082
0.0136598
0.0145574
0.0144931
0.014431
0.0143703
0.0143103
0.0142506
0.014191
0.0141317
0.0140728
0.0140142
0.0139568
0.0139009
0.0138467
0.0137946
0.0137446
0.0136966
0.0145814
0.0145183
0.0144573
0.0143976
0.0143386
0.01428
0.0142216
0.0141635
0.0141057
0.0140483
0.0139918
0.0139366
0.013883
0.0138314
0.013782
0.0137352
0.0146027
0.0145417
0.0144823
0.014424
0.0143663
0.014309
0.0142518
0.0141949
0.0141384
0.014082
0.0140264
0.0139721
0.0139193
0.0138685
0.0138202
0.0137752
0.0146216
0.0145635
0.0145064
0.01445
0.0143939
0.0143379
0.0142821
0.0142263
0.0141709
0.0141155
0.0140608
0.0140073
0.0139553
0.0139054
0.0138585
0.0138157
0.0146386
0.0145847
0.0145307
0.0144766
0.0144222
0.0143677
0.014313
0.0142582
0.0142036
0.0141488
0.0140947
0.0140416
0.0139901
0.013941
0.0138955
0.0138554
0.0146548
0.0146067
0.0145568
0.0145055
0.0144531
0.0143999
0.014346
0.0142916
0.014237
0.0141821
0.0141276
0.0140741
0.0140223
0.0139734
0.0139289
0.0138915
0.0146722
0.0146324
0.014588
0.0145402
0.0144898
0.0144374
0.0143834
0.0143282
0.0142722
0.0142152
0.0141584
0.0141026
0.014049
0.0139988
0.013954
0.0139185
0.0142868
0.0143339
0.0143806
0.014426
0.0144691
0.0145094
0.0145466
0.0145804
0.0146108
0.0146373
0.0146603
0.0146796
0.0146955
0.0147078
0.014716
0.0147178
0.0143156
0.0143781
0.0144365
0.0144907
0.0145405
0.0145858
0.0146266
0.0146631
0.0146951
0.0147224
0.0147453
0.0147637
0.0147778
0.014787
0.0147904
0.0147843
0.0143449
0.0144186
0.0144865
0.0145485
0.0146047
0.014655
0.0146998
0.0147391
0.0147731
0.0148016
0.0148249
0.0148431
0.014856
0.0148633
0.0148636
0.0148533
0.0143745
0.0144577
0.0145337
0.0146026
0.0146644
0.0147193
0.0147677
0.0148098
0.0148459
0.0148757
0.0148997
0.0149179
0.0149303
0.0149363
0.0149345
0.0149215
0.0144038
0.0144953
0.0145786
0.0146537
0.0147205
0.0147796
0.0148313
0.0148759
0.014914
0.0149452
0.01497
0.0149885
0.0150006
0.0150057
0.0150026
0.014988
0.0144336
0.0145334
0.0146238
0.0147048
0.0147766
0.0148397
0.0148947
0.014942
0.0149822
0.0150151
0.0150412
0.0150605
0.0150729
0.0150777
0.0150739
0.0150584
0.0144648
0.014573
0.0146705
0.0147573
0.0148338
0.0149007
0.0149586
0.0150084
0.0150506
0.0150851
0.0151125
0.0151329
0.0151458
0.0151504
0.015146
0.0151296
0.0144943
0.0146104
0.0147143
0.0148063
0.0148868
0.0149568
0.0150172
0.015069
0.0151129
0.0151489
0.0151777
0.0151993
0.015213
0.0152181
0.0152136
0.0151969
0.0145218
0.0146451
0.0147548
0.0148513
0.0149352
0.0150077
0.01507
0.0151233
0.0151686
0.015206
0.0152363
0.0152593
0.0152744
0.0152804
0.0152765
0.0152602
0.0145471
0.0146771
0.0147919
0.0148922
0.0149787
0.015053
0.0151165
0.0151708
0.0152171
0.0152558
0.0152877
0.0153126
0.0153295
0.0153373
0.0153347
0.0153193
0.0145702
0.0147061
0.0148254
0.0149287
0.0150171
0.0150924
0.0151564
0.0152111
0.0152582
0.0152979
0.0153315
0.0153586
0.0153782
0.0153886
0.015388
0.0153742
0.0145909
0.0147321
0.0148551
0.0149607
0.0150501
0.0151256
0.0151895
0.015244
0.0152913
0.015332
0.0153673
0.0153971
0.0154201
0.0154341
0.0154364
0.015425
0.0146072
0.0147525
0.0148782
0.0149849
0.0150745
0.0151493
0.0152122
0.015266
0.0153129
0.015354
0.0153908
0.015423
0.0154491
0.0154666
0.0154722
0.0154632
0.0146179
0.0147659
0.0148932
0.0150005
0.0150897
0.0151638
0.0152257
0.0152786
0.0153251
0.0153665
0.0154043
0.0154384
0.0154673
0.0154879
0.0154966
0.0154904
0.0146262
0.0147764
0.0149048
0.0150122
0.015101
0.015174
0.0152349
0.0152868
0.0153328
0.0153743
0.015413
0.015449
0.0154805
0.0155042
0.015516
0.0155127
0.0146326
0.0147846
0.0149137
0.0150211
0.0151091
0.0151811
0.0152407
0.0152917
0.0153371
0.0153786
0.0154182
0.0154559
0.0154899
0.0155165
0.0155314
0.0155309
0.0146376
0.0147909
0.0149205
0.0150276
0.0151148
0.0151857
0.0152441
0.0152941
0.0153389
0.0153804
0.0154207
0.01546
0.0154963
0.0155257
0.0155435
0.0155456
0.0146414
0.0147957
0.0149256
0.0150324
0.0151187
0.0151884
0.0152457
0.0152946
0.0153389
0.0153802
0.0154212
0.0154619
0.0155003
0.0155322
0.0155527
0.0155574
0.0134147
0.0134307
0.0134573
0.013492
0.0135334
0.0135808
0.0136335
0.0136912
0.0137535
0.0138198
0.01389
0.0139634
0.014038
0.014111
0.0141793
0.0142394
0.0133629
0.0133766
0.0134016
0.0134355
0.0134768
0.0135247
0.0135788
0.0136387
0.0137041
0.0137745
0.0138498
0.0139297
0.0140122
0.0140947
0.0141742
0.0142484
0.0133057
0.0133183
0.0133428
0.0133767
0.0134189
0.0134687
0.0135257
0.0135893
0.0136595
0.0137356
0.0138177
0.0139054
0.0139967
0.0140891
0.0141794
0.0142652
0.0132484
0.0132601
0.0132841
0.0133184
0.0133618
0.0134138
0.013474
0.013542
0.0136175
0.0136998
0.0137891
0.0138849
0.0139855
0.0140879
0.0141883
0.0142844
0.0131932
0.0132037
0.013227
0.0132614
0.0133059
0.0133601
0.0134236
0.013496
0.0135768
0.0136655
0.0137621
0.013866
0.0139759
0.0140883
0.0141984
0.0143041
0.0131377
0.0131467
0.0131689
0.0132031
0.0132486
0.0133049
0.0133718
0.0134486
0.0135351
0.0136304
0.0137345
0.0138469
0.0139663
0.0140891
0.0142092
0.0143245
0.0130817
0.0130878
0.013108
0.0131413
0.0131874
0.0132457
0.0133159
0.0133974
0.0134897
0.0135922
0.0137044
0.0138259
0.0139557
0.0140898
0.0142205
0.014346
0.0130303
0.0130326
0.0130499
0.0130817
0.0131277
0.0131875
0.0132606
0.0133465
0.0134446
0.013554
0.0136743
0.0138048
0.0139445
0.0140897
0.0142308
0.0143662
0.0129838
0.0129812
0.0129947
0.0130243
0.0130698
0.0131307
0.0132064
0.0132963
0.0133997
0.0135158
0.013644
0.0137834
0.0139329
0.0140884
0.0142399
0.0143849
0.0129424
0.0129338
0.0129427
0.0129695
0.0130138
0.0130753
0.0131532
0.0132467
0.0133552
0.0134776
0.0136135
0.0137618
0.0139209
0.014086
0.0142478
0.014402
0.012906
0.0128904
0.0128938
0.012917
0.0129598
0.0130214
0.013101
0.0131978
0.0133109
0.0134394
0.0135827
0.0137396
0.0139081
0.0140826
0.0142543
0.0144174
0.0128746
0.0128508
0.0128479
0.0128669
0.0129076
0.0129689
0.0130499
0.0131495
0.0132669
0.0134011
0.0135515
0.0137167
0.0138944
0.0140782
0.0142595
0.0144311
0.0128511
0.012819
0.0128097
0.0128243
0.0128625
0.0129231
0.0130048
0.0131065
0.0132273
0.0133663
0.0135227
0.0136952
0.013881
0.0140733
0.014263
0.0144417
0.0128354
0.0127968
0.0127825
0.0127936
0.0128299
0.0128898
0.012972
0.0130752
0.0131984
0.0133406
0.0135014
0.013679
0.0138707
0.0140692
0.014265
0.0144486
0.0128227
0.0127782
0.0127593
0.0127673
0.0128018
0.0128611
0.0129437
0.013048
0.0131731
0.0133181
0.0134825
0.0136645
0.0138612
0.0140651
0.0142661
0.0144538
0.0128123
0.0127624
0.0127393
0.0127445
0.0127774
0.0128361
0.0129189
0.0130242
0.013151
0.0132983
0.0134658
0.0136516
0.0138526
0.0140612
0.0142666
0.0144579
0.0128035
0.0127488
0.0127219
0.0127246
0.0127561
0.0128143
0.0128974
0.0130034
0.0131315
0.0132808
0.0134509
0.01364
0.0138447
0.0140575
0.0142668
0.0144609
0.0127959
0.012737
0.0127067
0.0127071
0.0127374
0.0127952
0.0128784
0.0129851
0.0131144
0.0132654
0.0134378
0.0136296
0.0138376
0.014054
0.0142666
0.0144632
0.0138953
0.0138572
0.0138142
0.0137692
0.0137243
0.013681
0.0136401
0.0136019
0.0135666
0.0135344
0.0135054
0.0134798
0.0134575
0.0134389
0.0134244
0.0134153
0.0138778
0.0138291
0.0137788
0.0137284
0.0136794
0.0136328
0.0135893
0.0135492
0.0135127
0.0134797
0.0134505
0.0134251
0.0134035
0.0133861
0.0133732
0.0133651
0.0138648
0.013808
0.0137514
0.0136961
0.0136431
0.0135933
0.013547
0.0135046
0.0134661
0.0134313
0.0134005
0.0133735
0.0133507
0.0133323
0.0133183
0.0133093
0.0138557
0.0137924
0.0137305
0.0136708
0.0136141
0.0135609
0.0135117
0.0134666
0.0134254
0.013388
0.0133547
0.0133254
0.0133003
0.0132796
0.0132638
0.0132531
0.0138506
0.0137819
0.0137153
0.0136515
0.0135913
0.013535
0.0134827
0.0134346
0.0133905
0.0133501
0.0133138
0.0132815
0.0132534
0.01323
0.0132118
0.0131991
0.0138496
0.0137756
0.0137045
0.0136367
0.0135729
0.0135131
0.0134576
0.0134061
0.0133587
0.0133149
0.0132751
0.0132392
0.0132077
0.0131811
0.0131599
0.0131449
0.0138543
0.0137758
0.0137006
0.0136292
0.0135618
0.0134988
0.0134399
0.013385
0.0133339
0.0132862
0.0132423
0.0132023
0.0131664
0.0131354
0.01311
0.0130915
0.0138649
0.0137826
0.013704
0.0136294
0.0135591
0.0134931
0.0134312
0.0133732
0.0133187
0.0132672
0.0132193
0.0131747
0.013134
0.0130978
0.0130673
0.013044
0.0138814
0.013796
0.0137145
0.0136372
0.0135643
0.0134959
0.0134315
0.0133708
0.0133133
0.0132583
0.0132063
0.0131571
0.013111
0.0130688
0.013032
0.0130026
0.0139036
0.0138157
0.0137317
0.0136522
0.0135773
0.0135069
0.0134406
0.0133777
0.0133177
0.0132596
0.0132037
0.0131497
0.0130977
0.0130486
0.0130043
0.0129677
0.0139312
0.0138412
0.0137552
0.0136738
0.0135973
0.0135255
0.0134579
0.0133936
0.0133317
0.0132711
0.0132115
0.0131525
0.013094
0.0130372
0.0129844
0.0129391
0.0139636
0.0138719
0.0137842
0.0137014
0.0136238
0.0135512
0.0134829
0.013418
0.013355
0.0132924
0.0132295
0.0131654
0.0131
0.0130346
0.0129721
0.0129169
0.0139932
0.0139005
0.0138118
0.0137281
0.0136499
0.0135772
0.0135091
0.0134443
0.0133813
0.0133178
0.0132526
0.0131844
0.0131129
0.0130395
0.0129678
0.0129028
0.0140194
0.0139258
0.0138362
0.0137518
0.0136732
0.0136002
0.0135322
0.0134675
0.0134043
0.0133401
0.0132731
0.0132018
0.0131256
0.013046
0.012967
0.0128943
0.0140445
0.0139502
0.0138598
0.0137747
0.0136956
0.0136225
0.0135545
0.01349
0.0134266
0.0133618
0.0132933
0.0132192
0.0131388
0.0130536
0.012968
0.0128883
0.0140683
0.0139734
0.0138823
0.0137965
0.0137169
0.0136435
0.0135756
0.0135111
0.0134476
0.0133822
0.0133124
0.0132359
0.0131518
0.0130616
0.0129699
0.0128839
0.0140908
0.0139952
0.0139034
0.0138168
0.0137367
0.013663
0.013595
0.0135305
0.0134668
0.0134008
0.0133298
0.0132513
0.0131639
0.0130692
0.0129722
0.0128805
0.0141116
0.0140155
0.0139229
0.0138356
0.0137548
0.0136808
0.0136126
0.0135479
0.0134841
0.0134175
0.0133454
0.0132651
0.0131748
0.0130761
0.0129744
0.0128776
0.0147053
0.0146784
0.0146421
0.0145989
0.0145504
0.0144975
0.014441
0.0143815
0.0143196
0.0142556
0.014191
0.014128
0.0140684
0.014014
0.0139662
0.0139263
0.014763
0.0147355
0.0147008
0.0146591
0.014611
0.0145571
0.0144981
0.0144346
0.0143673
0.0142966
0.0142247
0.0141546
0.0140886
0.0140283
0.0139738
0.0139244
0.0148267
0.0147963
0.0147603
0.0147179
0.014669
0.0146137
0.0145521
0.014485
0.0144128
0.0143361
0.0142575
0.0141806
0.0141082
0.0140413
0.0139796
0.0139215
0.0148917
0.0148584
0.0148202
0.0147761
0.0147256
0.0146683
0.0146042
0.0145336
0.0144569
0.0143745
0.0142895
0.0142062
0.0141276
0.0140544
0.0139857
0.01392
0.0149562
0.0149205
0.01488
0.0148339
0.0147813
0.0147217
0.0146549
0.014581
0.0145001
0.0144123
0.0143213
0.014232
0.0141477
0.0140684
0.0139934
0.0139211
0.0150256
0.0149881
0.0149454
0.0148968
0.0148418
0.0147797
0.01471
0.0146326
0.0145473
0.0144539
0.0143567
0.0142614
0.0141712
0.0140858
0.0140044
0.0139258
0.0150959
0.0150566
0.0150115
0.0149604
0.0149027
0.0148378
0.0147652
0.0146842
0.0145948
0.0144961
0.0143933
0.0142928
0.0141973
0.0141064
0.0140194
0.0139354
0.015163
0.0151224
0.0150753
0.0150218
0.0149615
0.0148939
0.0148183
0.0147342
0.014641
0.0145377
0.0144302
0.0143255
0.0142255
0.0141301
0.0140385
0.01395
0.0152266
0.0151853
0.0151366
0.0150808
0.015018
0.0149477
0.0148696
0.0147827
0.0146862
0.0145788
0.0144677
0.0143598
0.0142563
0.0141572
0.0140618
0.0139697
0.0152868
0.0152452
0.0151952
0.0151374
0.0150721
0.0149994
0.0149188
0.0148294
0.0147301
0.0146195
0.0145059
0.0143956
0.0142896
0.0141878
0.0140895
0.0139946
0.0153433
0.0153019
0.0152509
0.0151912
0.0151237
0.0150487
0.0149659
0.0148744
0.0147726
0.0146597
0.0145447
0.0144329
0.0143254
0.0142218
0.0141215
0.0140244
0.0153962
0.0153553
0.0153034
0.0152421
0.0151724
0.0150951
0.0150103
0.0149169
0.0148131
0.0146989
0.0145833
0.0144711
0.0143631
0.0142586
0.0141571
0.0140585
0.0154364
0.015396
0.0153435
0.0152806
0.015209
0.0151298
0.0150434
0.0149487
0.0148436
0.0147289
0.0146137
0.014502
0.0143943
0.0142899
0.0141883
0.014089
0.0154661
0.0154269
0.0153744
0.0153107
0.0152379
0.0151574
0.0150698
0.0149742
0.0148682
0.0147536
0.0146391
0.0145281
0.014421
0.0143171
0.0142155
0.0141159
0.0154909
0.0154531
0.015401
0.0153368
0.015263
0.0151815
0.015093
0.0149967
0.0148901
0.0147758
0.0146623
0.0145522
0.014446
0.0143427
0.0142414
0.0141416
0.0155116
0.0154754
0.0154239
0.0153595
0.015285
0.0152027
0.0151135
0.0150167
0.0149097
0.0147959
0.0146834
0.0145745
0.0144693
0.0143667
0.0142658
0.0141659
0.0155288
0.0154943
0.0154435
0.0153792
0.0153043
0.0152214
0.0151317
0.0150345
0.0149272
0.0148142
0.0147028
0.014595
0.0144909
0.0143892
0.0142887
0.0141888
0.015543
0.0155101
0.0154603
0.0153962
0.0153212
0.0152378
0.0151477
0.0150503
0.014943
0.0148307
0.0147204
0.0146138
0.0145108
0.01441
0.0143099
0.01421
0.0146452
0.0148005
0.0149306
0.0150367
0.0151219
0.0151902
0.015246
0.0152938
0.0153372
0.0153785
0.01542
0.0154623
0.0155033
0.0155385
0.0155624
0.0155703
0.0146495
0.0148058
0.0149358
0.0150409
0.0151245
0.0151908
0.0152447
0.0152908
0.0153332
0.0153742
0.0154165
0.0154608
0.015505
0.0155443
0.0155727
0.0155848
0.0146534
0.0148107
0.0149403
0.0150442
0.0151257
0.0151897
0.0152413
0.0152856
0.0153268
0.0153674
0.0154104
0.0154567
0.0155045
0.0155485
0.0155819
0.0155987
0.0146571
0.0148151
0.0149441
0.0150463
0.0151255
0.0151868
0.0152358
0.0152778
0.0153175
0.0153576
0.0154013
0.0154499
0.0155016
0.0155508
0.0155898
0.0156119
0.0146602
0.0148188
0.0149469
0.0150471
0.0151235
0.0151817
0.0152275
0.015267
0.0153051
0.0153446
0.0153889
0.0154397
0.0154957
0.0155508
0.0155962
0.0156242
0.0146627
0.0148217
0.0149486
0.0150463
0.0151194
0.015174
0.0152163
0.0152528
0.0152889
0.0153277
0.0153726
0.0154258
0.0154865
0.0155481
0.0156007
0.0156353
0.0146644
0.0148236
0.0149489
0.0150436
0.015113
0.0151633
0.0152015
0.0152347
0.0152685
0.0153064
0.0153521
0.0154077
0.0154733
0.0155422
0.015603
0.0156452
0.0146651
0.0148242
0.0149475
0.0150388
0.0151037
0.0151491
0.0151826
0.015212
0.0152434
0.0152803
0.0153265
0.0153847
0.0154556
0.0155326
0.0156027
0.0156535
0.0146646
0.0148233
0.0149441
0.0150314
0.015091
0.0151307
0.015159
0.0151842
0.0152128
0.0152487
0.0152955
0.0153562
0.0154326
0.0155186
0.0155993
0.0156598
0.0146627
0.0148207
0.0149384
0.0150208
0.0150742
0.0151074
0.01513
0.0151505
0.0151762
0.015211
0.0152586
0.0153218
0.0154036
0.0154995
0.0155921
0.0156639
0.014659
0.0148158
0.0149299
0.0150063
0.0150525
0.0150787
0.0150947
0.0151102
0.0151326
0.0151663
0.015215
0.0152812
0.015368
0.0154742
0.0155805
0.0156654
0.0146531
0.0148084
0.0149178
0.0149871
0.0150254
0.0150436
0.0150526
0.0150625
0.0150812
0.0151137
0.0151637
0.0152335
0.0153261
0.0154415
0.0155635
0.0156637
0.0146445
0.0147978
0.0149014
0.0149627
0.0149918
0.0150013
0.0150028
0.0150065
0.0150211
0.0150521
0.0151036
0.0151776
0.0152771
0.0154018
0.0155396
0.0156579
0.0146328
0.0147834
0.0148801
0.014932
0.014951
0.014951
0.0149444
0.0149413
0.0149511
0.0149804
0.0150334
0.0151123
0.0152197
0.0153551
0.0155079
0.0156469
0.0146174
0.0147644
0.0148531
0.0148943
0.0149018
0.0148915
0.0148763
0.0148657
0.0148702
0.0148972
0.0149518
0.015036
0.0151526
0.0153
0.0154687
0.015629
0.0145977
0.0147401
0.0148194
0.0148484
0.0148432
0.0148216
0.0147969
0.0147784
0.0147771
0.0148012
0.0148572
0.0149475
0.0150741
0.0152352
0.0154213
0.0156035
0.0145731
0.0147097
0.0147782
0.0147935
0.0147741
0.0147398
0.0147051
0.0146781
0.0146705
0.0146915
0.0147486
0.0148449
0.0149825
0.0151587
0.0153639
0.0155701
0.0145427
0.0146723
0.0147286
0.0147288
0.0146939
0.0146458
0.0146001
0.0145642
0.0145498
0.0145673
0.0146247
0.0147267
0.0148756
0.0150684
0.015295
0.0155274
0.0145056
0.0146271
0.0146696
0.0146533
0.014602
0.0145393
0.0144816
0.0144358
0.014414
0.0144273
0.0144842
0.0145911
0.0147511
0.0149617
0.0152123
0.0154729
0.0144606
0.0145729
0.0146003
0.0145665
0.014498
0.0144201
0.0143491
0.0142922
0.014262
0.0142694
0.0143245
0.0144355
0.0146066
0.0148357
0.0151128
0.0154048
0.014407
0.0145095
0.0145209
0.0144707
0.0143853
0.0142902
0.0142029
0.0141329
0.0140921
0.0140915
0.0141428
0.0142563
0.0144386
0.0146869
0.0149932
0.0153207
0.014344
0.0144361
0.0144325
0.0143657
0.0142632
0.0141504
0.0140447
0.0139586
0.0139043
0.0138924
0.013937
0.0140507
0.014243
0.014512
0.01485
0.0152173
0.0142719
0.0143525
0.0143332
0.0142504
0.0141308
0.014
0.0138759
0.013771
0.013699
0.0136718
0.0137056
0.0138158
0.0140161
0.0143073
0.0146793
0.0150909
0.0141906
0.0142601
0.0142264
0.0141274
0.0139908
0.0138414
0.0136972
0.0135716
0.0134791
0.0134322
0.01345
0.0135514
0.0137557
0.0140679
0.0144761
0.0149367
0.0141003
0.0141621
0.0141156
0.0139996
0.0138472
0.0136808
0.0135169
0.0133684
0.0132515
0.0131796
0.0131747
0.0132597
0.0134615
0.0137902
0.0142358
0.01475
0.0139987
0.0140576
0.0140013
0.0138712
0.0137027
0.0135208
0.0133388
0.0131681
0.0130234
0.0129199
0.0128834
0.0129417
0.0131316
0.0134715
0.013954
0.0145256
0.0138435
0.0138958
0.0138308
0.0136882
0.0135058
0.0133094
0.0131078
0.0129086
0.0127334
0.0126036
0.0125355
0.0125612
0.0127302
0.0130758
0.0135956
0.0142321
0.0136727
0.0137384
0.0136693
0.0135138
0.0133186
0.0131114
0.0128881
0.0126441
0.0123956
0.0121836
0.0120317
0.0119666
0.0120601
0.0123756
0.0129407
0.0136855
0.0135345
0.0136201
0.0135589
0.0134035
0.0132073
0.0129994
0.0127667
0.0124925
0.0121859
0.0118833
0.0116296
0.0114514
0.0114261
0.0116497
0.012204
0.0130386
0.013425
0.0135351
0.0134913
0.0133451
0.0131581
0.0129585
0.0127269
0.0124407
0.0120992
0.0117389
0.0113852
0.0110891
0.010921
0.0110005
0.0114639
0.0123269
0.01335
0.0134893
0.0134697
0.0133432
0.0131693
0.0129762
0.0127499
0.0124653
0.0121051
0.011704
0.0112788
0.0108709
0.0105574
0.0104802
0.0107977
0.0116012
0.0133098
0.0134809
0.013489
0.0133862
0.0132225
0.0130283
0.0127948
0.0125026
0.012132
0.0117091
0.0112341
0.01071
0.0102645
0.0100685
0.0102492
0.0109116
0.0133065
0.0135095
0.0135463
0.0134674
0.0133068
0.0130959
0.0128419
0.0125216
0.0121204
0.0116521
0.0110916
0.0104289
0.00989149
0.00964879
0.00979358
0.0103382
0.0133399
0.0135727
0.0136358
0.0135736
0.0133979
0.0131552
0.0128456
0.0124404
0.011941
0.0113364
0.010623
0.00983881
0.0092914
0.00909744
0.00930736
0.00985689
0.0134096
0.0136669
0.0137493
0.0136876
0.0134742
0.0131525
0.012697
0.0120501
0.0112817
0.0104262
0.00961363
0.00885755
0.00843581
0.00839855
0.00876373
0.0094049
0.0135115
0.0137856
0.013873
0.0137847
0.013496
0.0129558
0.0121575
0.0109956
0.00990525
0.00893868
0.00820979
0.00763482
0.00744378
0.00763907
0.00820421
0.00897885
0.0136378
0.0139164
0.0139847
0.0138301
0.0133856
0.0123562
0.010939
0.00937522
0.00814235
0.00724662
0.00671962
0.00640429
0.00648621
0.00693537
0.00769719
0.00860524
0.0137741
0.0140364
0.0140488
0.0137641
0.0130269
0.0112094
0.00921825
0.00743478
0.00624844
0.00557846
0.0053315
0.0053405
0.0057001
0.00637767
0.00729668
0.0083089
0.0138992
0.0141094
0.0140093
0.013496
0.0123043
0.00967141
0.00721577
0.00541633
0.00448058
0.00416807
0.00426138
0.00458713
0.00516717
0.00600902
0.00702926
0.00810269
0.0139849
0.0140846
0.0137923
0.0129094
0.0111857
0.00789389
0.00519528
0.00372524
0.00317534
0.00320913
0.00358889
0.00414757
0.00486556
0.00580741
0.00688222
0.007983
0.0139959
0.0139017
0.0133028
0.011932
0.00974384
0.00600749
0.00365005
0.00267264
0.00239857
0.00264078
0.00321009
0.00392166
0.00472144
0.00572672
0.00683506
0.00793054
0.0138879
0.0135039
0.0124749
0.0106069
0.00812857
0.00440804
0.0027996
0.00212148
0.00195072
0.00229097
0.002992
0.00381582
0.00466736
0.0057215
0.0068465
0.00790742
0.0136214
0.0128622
0.0113456
0.0090797
0.00654038
0.00338126
0.00237823
0.00182225
0.00165522
0.00203673
0.00284978
0.00376995
0.0046577
0.00575772
0.00688513
0.00788377
0.013182
0.0120147
0.0100458
0.0075221
0.0052041
0.00279358
0.00214366
0.00163089
0.00142594
0.00182033
0.00274135
0.00375276
0.00466548
0.00580687
0.00692397
0.00783881
0.0125924
0.0110447
0.00875611
0.00615156
0.00418894
0.00245334
0.0019835
0.0014881
0.00122951
0.00162745
0.0026532
0.00374908
0.00467209
0.00584684
0.00694035
0.00776114
0.0118994
0.0100375
0.00759891
0.00513022
0.00346771
0.00224331
0.00185317
0.00136692
0.00105551
0.00145545
0.00257285
0.00374619
0.00466739
0.00586524
0.00692175
0.00764749
0.0111725
0.00911384
0.00669948
0.00448176
0.00294996
0.00210433
0.00173137
0.00125272
0.000898688
0.00129819
0.00249621
0.00373834
0.00464708
0.00585459
0.00686411
0.00750152
0.0105058
0.00839792
0.00620326
0.00421192
0.00262315
0.00200175
0.00160868
0.00113583
0.000755418
0.00114837
0.00241902
0.00372111
0.00461093
0.00581375
0.00677024
0.00732766
0.00999977
0.00799733
0.00618659
0.00430782
0.00250685
0.00192251
0.00147879
0.00100844
0.000621653
0.00100052
0.00233059
0.00369188
0.00456352
0.00574784
0.00664758
0.00713151
0.00971207
0.00791145
0.00653271
0.00462659
0.00254146
0.00185554
0.00133518
0.00086738
0.000495746
0.000850751
0.00222936
0.00365096
0.00450988
0.00566248
0.00650363
0.00691525
0.00968538
0.00802833
0.00694761
0.00500467
0.00265796
0.0017861
0.00117563
0.000716273
0.000378711
0.000700557
0.0021174
0.00359903
0.00445404
0.00556253
0.00634698
0.00668276
0.00986705
0.0082653
0.00719778
0.00535569
0.00278937
0.00169382
0.00100207
0.000561319
0.000273854
0.000553737
0.00199755
0.00353794
0.00439828
0.00545381
0.00618463
0.00644251
0.0101738
0.00855333
0.00732081
0.00552391
0.00286181
0.00156306
0.000821234
0.00041435
0.000185796
0.000417728
0.00187317
0.00346944
0.00434289
0.00533999
0.00602233
0.00620767
0.0104635
0.00873124
0.00727932
0.0054723
0.00280449
0.00139105
0.000645502
0.00028605
0.000117586
0.000299066
0.00174571
0.00339659
0.00428659
0.0052249
0.00586681
0.00598508
0.0105607
0.00862506
0.00699967
0.00519648
0.00259891
0.00118843
0.000486501
0.000185379
6.92335e-05
0.000203306
0.00161722
0.00332268
0.00422871
0.00511244
0.00572271
0.00577779
0.0102909
0.00812225
0.00643948
0.00470968
0.00228033
0.000977799
0.00035385
0.000113598
3.81468e-05
0.000131798
0.00148754
0.00325204
0.00417311
0.00500536
0.00559075
0.00559008
0.00949766
0.00719201
0.00564556
0.00406836
0.00190103
0.000776497
0.000247822
6.67991e-05
1.98168e-05
8.27495e-05
0.00135658
0.00318531
0.00412684
0.00490316
0.0054713
0.00542645
0.00810266
0.00594337
0.00471282
0.00336768
0.00151149
0.000595277
0.000165677
3.75766e-05
9.83478e-06
5.1445e-05
0.00122138
0.0031164
0.00409866
0.00480472
0.00536264
0.00529455
0.00623586
0.00458099
0.00377685
0.00271
0.00116249
0.000435907
0.000103375
1.99384e-05
4.62017e-06
3.24668e-05
0.00107991
0.00303695
0.00408447
0.00471108
0.00526054
0.00520053
0.00432731
0.00338405
0.00291658
0.00214132
0.000866365
0.00029961
5.88653e-05
9.68397e-06
2.02698e-06
2.10235e-05
0.000931008
0.00293712
0.00406719
0.00462211
0.00515907
0.00513819
0.00283884
0.00251619
0.00207674
0.00167363
0.00064025
0.000187011
2.95615e-05
4.14453e-06
8.17912e-07
1.40393e-05
0.000780053
0.00280539
0.00402464
0.00453894
0.00505478
0.00509891
0.00192372
0.00183253
0.00154538
0.00131964
0.0004544
0.00010069
1.25419e-05
1.49949e-06
3.15905e-07
9.55073e-06
0.000633073
0.00263422
0.00394127
0.00446195
0.00494829
0.00506811
0.00138099
0.00143399
0.00120237
0.00102847
0.000286677
4.43161e-05
4.3619e-06
4.52327e-07
1.37532e-07
6.61579e-06
0.000497369
0.00242198
0.00381076
0.00438546
0.0048417
0.00502535
0.00106255
0.00118006
0.000970364
0.000737156
0.000147349
1.53436e-05
1.22348e-06
1.26012e-07
8.43291e-08
4.67417e-06
0.000378187
0.00216403
0.00363567
0.0043008
0.00473799
0.00495504
0.000899847
0.00100206
0.000828047
0.000447099
5.17727e-05
4.03785e-06
2.79071e-07
4.71346e-08
7.21218e-08
3.48703e-06
0.000280377
0.00186931
0.00342429
0.00420788
0.00464069
0.00486095
0.000818354
0.000872984
0.000793935
0.000225503
1.54776e-05
8.7969e-07
5.9617e-08
3.43374e-08
7.39751e-08
2.84691e-06
0.000205782
0.00158352
0.00318284
0.00410837
0.00455168
0.00475279
0.000765008
0.000810979
0.000726596
9.26797e-05
3.06005e-06
1.48948e-07
1.91638e-08
3.5528e-08
8.37828e-08
2.58756e-06
0.000152634
0.00135963
0.00291201
0.00399522
0.00446585
0.00463946
0.000694738
0.000734405
0.000587581
3.00063e-05
5.74942e-07
2.41015e-08
1.44768e-08
3.95053e-08
1.01571e-07
2.54819e-06
0.000116033
0.00116662
0.00260437
0.00385196
0.00437374
0.00452263
0.000573146
0.000608911
0.000357051
7.73014e-06
8.65511e-08
7.25828e-09
1.52412e-08
4.43359e-08
1.28642e-07
2.63728e-06
8.94023e-05
0.000973223
0.00224813
0.00365768
0.00426194
0.0043957
0.000396188
0.000421444
0.000157294
1.79179e-06
1.73048e-08
5.60249e-09
1.66576e-08
4.98949e-08
1.65291e-07
2.75414e-06
6.74462e-05
0.000736327
0.00183323
0.00338726
0.00410471
0.00423616
0.000224893
0.000237044
4.98433e-05
4.03708e-07
7.06549e-09
5.59086e-09
1.8122e-08
5.55761e-08
2.01294e-07
2.72133e-06
5.06608e-05
0.000533458
0.00142621
0.00302468
0.00387475
0.00402283
0.000108397
0.000105265
1.33997e-05
9.57551e-08
5.26615e-09
5.66833e-09
1.92567e-08
6.00692e-08
2.24086e-07
2.55793e-06
3.77353e-05
0.000381901
0.00115241
0.00258271
0.00355109
0.00373299
4.64099e-05
3.85961e-05
2.99936e-06
2.67345e-08
4.72502e-09
5.67157e-09
1.99532e-08
6.28755e-08
2.312e-07
2.27114e-06
2.80162e-05
0.000264693
0.000858091
0.0020858
0.00312942
0.00335189
1.82975e-05
1.17148e-05
6.21186e-07
1.21806e-08
4.40971e-09
5.56803e-09
2.02159e-08
6.40253e-08
2.26348e-07
1.91784e-06
2.02102e-05
0.000176158
0.000590678
0.0015873
0.00262944
0.00288744
6.84758e-06
3.17788e-06
1.27975e-07
9.16964e-09
4.13899e-09
5.36726e-09
2.00721e-08
6.36192e-08
2.12432e-07
1.54307e-06
1.41607e-05
0.000113047
0.000384116
0.00114269
0.00208889
0.0023679
2.48575e-06
7.89424e-07
3.55454e-08
8.43503e-09
3.88621e-09
5.07986e-09
1.95846e-08
6.20592e-08
1.94217e-07
1.18955e-06
9.53344e-06
7.0122e-05
0.000239364
0.000782687
0.00156092
0.00183647
9.03871e-07
2.01974e-07
1.83817e-08
8.0853e-09
3.64575e-09
4.73387e-09
1.88183e-08
5.96291e-08
1.74599e-07
8.86582e-07
6.18402e-06
4.22024e-05
0.00014411
0.000515456
0.00110306
0.00134817
3.47841e-07
6.56389e-08
1.47291e-08
7.78044e-09
3.42185e-09
4.34876e-09
1.78465e-08
5.66585e-08
1.56223e-07
6.49876e-07
3.87638e-06
2.47129e-05
8.44296e-05
0.000330407
0.000747713
0.000948857
1.55414e-07
3.42036e-08
1.33138e-08
7.45783e-09
3.21696e-09
3.9497e-09
1.67291e-08
5.33216e-08
1.40131e-07
4.78561e-07
2.37707e-06
1.41444e-05
4.84639e-05
0.000208034
0.000492895
0.000648648
8.70364e-08
2.52657e-08
1.23337e-08
7.12752e-09
3.03409e-09
3.55076e-09
1.55231e-08
4.97847e-08
1.26479e-07
3.62187e-07
1.45018e-06
7.94985e-06
2.74941e-05
0.000129502
0.000319271
0.000434352
5.99638e-08
2.12503e-08
1.15125e-08
6.79991e-09
2.87435e-09
3.16319e-09
1.42762e-08
4.61121e-08
1.1473e-07
2.86153e-07
9.0251e-07
4.4263e-06
1.54927e-05
7.99957e-05
0.00020462
0.000286426
4.68449e-08
1.8536e-08
1.0879e-08
6.49894e-09
2.73784e-09
2.79642e-09
1.30279e-08
4.24059e-08
1.0433e-07
2.36949e-07
5.89572e-07
2.47222e-06
8.71208e-06
4.91619e-05
0.000130358
0.000186503
3.87725e-08
1.648e-08
1.04506e-08
6.23664e-09
2.62332e-09
2.46048e-09
1.18081e-08
3.87193e-08
9.48222e-08
2.03959e-07
4.1412e-07
1.41288e-06
4.9247e-06
3.01183e-05
8.28013e-05
0.000120129
3.2905e-08
1.49334e-08
1.02381e-08
6.02534e-09
2.52887e-09
2.14267e-09
1.06573e-08
3.51322e-08
8.59553e-08
1.80105e-07
3.14973e-07
8.47526e-07
2.82582e-06
1.84338e-05
5.25418e-05
7.6705e-05
2.82737e-08
1.38551e-08
1.02274e-08
5.86655e-09
2.45199e-09
1.85378e-09
9.59635e-09
3.17071e-08
7.76141e-08
1.61242e-07
2.56612e-07
5.48508e-07
1.66989e-06
1.12967e-05
3.33298e-05
4.86064e-05
0.0127873
0.0127236
0.0126898
0.0126879
0.012717
0.0127745
0.0128579
0.0129654
0.0130959
0.0132487
0.0134234
0.0136183
0.0138297
0.01405
0.014266
0.0144654
0.0127776
0.0127077
0.0126694
0.0126646
0.0126923
0.0127494
0.0128332
0.0129415
0.0130735
0.0132284
0.0134059
0.0136042
0.0138198
0.0140447
0.014265
0.0144677
0.0127684
0.0126917
0.0126483
0.0126404
0.0126664