/*--------------------------------*- C++ -*----------------------------------*\
  =========                 |
  \\      /  F ield         | OpenFOAM: The Open Source CFD Toolbox
   \\    /   O peration     | Website:  https://openfoam.org
    \\  /    A nd           | Version:  7
     \\/     M anipulation  |
\*---------------------------------------------------------------------------*/
FoamFile
{
    version     2.0;
    format      ascii;
    class       volScalarField;
    location    "0";
    object      N2;
}
// * * * * * * * * * * * * * * * * * * * * * * * * * * * * * * * * * * * * * //

dimensions      [0 0 0 0 0 0 0];

internalField   uniform 1.;

boundaryField
{
    inletfuel
    {
        type            fixedValue;
        value           uniform 0;
    }
    inletcoflow
    {
        type            fixedValue;
        value           uniform 0.85;
    }
    inletair
    {
        type            fixedValue;
        value           uniform 0.768;
    }
    outlet
    {
        type            inletOutlet;
        inletValue      uniform 0.768;
        value           nonuniform List<scalar> 
10368
(
0.737106
0.737559
0.738124
0.738754
0.739416
0.740085
0.740743
0.741379
0.741984
0.742554
0.743084
0.743567
0.743999
0.744372
0.744681
0.744917
0.736847
0.737314
0.737856
0.738455
0.739089
0.739739
0.740389
0.741024
0.741636
0.742219
0.742764
0.743267
0.743721
0.744121
0.744466
0.744758
0.736526
0.737033
0.737579
0.738166
0.738783
0.739418
0.740057
0.740689
0.741303
0.741893
0.742449
0.742968
0.743442
0.743869
0.744248
0.744589
0.736185
0.736733
0.737295
0.737881
0.738489
0.739113
0.739743
0.740369
0.740982
0.741575
0.742139
0.742669
0.743161
0.743611
0.744021
0.744402
0.735844
0.736427
0.737008
0.737599
0.738204
0.73882
0.739442
0.740061
0.74067
0.741264
0.741833
0.742372
0.742877
0.743346
0.743783
0.744196
0.735515
0.736127
0.736724
0.737322
0.737926
0.738537
0.739151
0.739763
0.740368
0.740959
0.741529
0.742074
0.742589
0.743074
0.743531
0.743969
0.735206
0.735837
0.736448
0.737051
0.737655
0.738261
0.738868
0.739473
0.740071
0.740659
0.741228
0.741776
0.742298
0.742793
0.743265
0.743721
0.73492
0.735563
0.736182
0.736789
0.737391
0.737992
0.738593
0.73919
0.73978
0.740362
0.740929
0.741476
0.742001
0.742504
0.742985
0.743452
0.734661
0.735308
0.73593
0.736536
0.737135
0.73773
0.738323
0.738911
0.739494
0.740069
0.74063
0.741175
0.7417
0.742205
0.742691
0.743162
0.734432
0.735075
0.735693
0.736296
0.736889
0.737476
0.73806
0.738639
0.739213
0.73978
0.740335
0.740875
0.741397
0.741901
0.742387
0.742855
0.73423
0.734862
0.735471
0.736065
0.73665
0.737228
0.737802
0.738371
0.738935
0.739493
0.74004
0.740574
0.741092
0.741591
0.742072
0.742531
0.734056
0.734668
0.735262
0.735843
0.736416
0.736984
0.737547
0.738106
0.738659
0.739208
0.739747
0.740274
0.740785
0.741278
0.741749
0.742194
0.733906
0.734489
0.735061
0.735625
0.736184
0.736739
0.737291
0.73784
0.738384
0.738924
0.739456
0.739976
0.740481
0.740966
0.741426
0.74185
0.733773
0.734316
0.734857
0.7354
0.735942
0.736485
0.737028
0.737568
0.738106
0.738642
0.73917
0.739686
0.740187
0.740666
0.741113
0.741513
0.733647
0.734131
0.734634
0.735149
0.735675
0.736207
0.736744
0.737283
0.737822
0.73836
0.738893
0.739415
0.73992
0.740397
0.740834
0.741207
0.733501
0.733906
0.734357
0.734841
0.735349
0.735876
0.736416
0.736966
0.737522
0.738082
0.738639
0.739184
0.739707
0.740196
0.740633
0.740985
0.736795
0.736361
0.735932
0.735516
0.735122
0.734756
0.734422
0.734121
0.733856
0.733628
0.733436
0.733281
0.733161
0.733077
0.733031
0.733045
0.736486
0.735905
0.735363
0.734861
0.734401
0.733985
0.733613
0.733287
0.733005
0.732769
0.732579
0.732434
0.732335
0.732284
0.73229
0.732388
0.736164
0.735475
0.734842
0.734263
0.733741
0.733276
0.732866
0.732511
0.73221
0.731964
0.731771
0.731631
0.731546
0.731517
0.73156
0.731707
0.735835
0.735057
0.734344
0.733698
0.73312
0.732608
0.732162
0.73178
0.731459
0.731202
0.731004
0.730867
0.730792
0.730781
0.730849
0.731029
0.735509
0.734648
0.733863
0.733157
0.732527
0.731974
0.731495
0.731087
0.730748
0.730479
0.730276
0.73014
0.730072
0.730076
0.730164
0.730366
0.735172
0.73423
0.733375
0.732608
0.731928
0.731333
0.73082
0.730386
0.730027
0.729742
0.729531
0.729391
0.729325
0.729338
0.72944
0.729661
0.734816
0.733791
0.732864
0.732036
0.731307
0.730673
0.730128
0.729669
0.72929
0.728992
0.728771
0.728627
0.728563
0.728586
0.728704
0.728942
0.734473
0.733369
0.732376
0.731494
0.73072
0.730051
0.729479
0.728999
0.728604
0.728293
0.728063
0.727914
0.72785
0.727879
0.728007
0.72826
0.734147
0.732969
0.731915
0.730984
0.730172
0.729473
0.728879
0.728382
0.727973
0.727651
0.727411
0.727255
0.727188
0.727218
0.727352
0.727613
0.733838
0.732592
0.731483
0.730508
0.729664
0.728943
0.728332
0.727822
0.727402
0.72707
0.72682
0.726654
0.726579
0.726605
0.726739
0.727005
0.733549
0.73224
0.731081
0.73007
0.7292
0.728462
0.727841
0.727323
0.726896
0.726556
0.726294
0.726115
0.726026
0.726041
0.726171
0.726435
0.73328
0.731913
0.73071
0.729669
0.728782
0.728034
0.727409
0.726888
0.726458
0.726111
0.725838
0.725642
0.725532
0.725528
0.725646
0.725905
0.733058
0.731646
0.73041
0.729349
0.728453
0.727704
0.727083
0.726567
0.726139
0.725789
0.725509
0.725299
0.725172
0.725147
0.725252
0.725503
0.732905
0.731462
0.730205
0.729133
0.728233
0.727487
0.72687
0.72636
0.725935
0.725585
0.725298
0.725076
0.724933
0.72489
0.724977
0.725214
0.732781
0.731312
0.730039
0.728958
0.728059
0.727316
0.726706
0.726202
0.725781
0.725431
0.725138
0.724905
0.724745
0.724684
0.724753
0.724974
0.732678
0.731188
0.729903
0.728818
0.72792
0.727183
0.72658
0.726083
0.725667
0.725317
0.725019
0.724775
0.7246
0.72452
0.72457
0.724775
0.732594
0.731087
0.729792
0.728704
0.727809
0.727079
0.726484
0.725995
0.725583
0.725234
0.724932
0.724677
0.724487
0.72439
0.724421
0.72461
0.732524
0.731003
0.729701
0.728613
0.727721
0.726999
0.726412
0.725929
0.725522
0.725174
0.724868
0.724605
0.7244
0.724286
0.724301
0.724474
0.745128
0.744949
0.744672
0.744322
0.743913
0.743453
0.742946
0.742396
0.741805
0.741178
0.740518
0.739828
0.739127
0.73844
0.737798
0.737234
0.745582
0.745415
0.745145
0.744799
0.744388
0.74392
0.7434
0.742829
0.742211
0.741548
0.740841
0.740093
0.739321
0.738549
0.737804
0.737109
0.746088
0.745922
0.745651
0.745299
0.744875
0.744387
0.743839
0.743233
0.742571
0.741856
0.741088
0.740269
0.739416
0.738553
0.737709
0.736906
0.746596
0.74643
0.746157
0.745795
0.745356
0.744844
0.744263
0.743616
0.742906
0.742134
0.7413
0.740408
0.739471
0.738516
0.737577
0.736677
0.747088
0.746924
0.746648
0.746279
0.745824
0.745288
0.744674
0.743986
0.743226
0.742396
0.741497
0.740531
0.73951
0.738463
0.737433
0.736441
0.747583
0.747422
0.747147
0.746772
0.746302
0.745741
0.745094
0.744363
0.743551
0.742662
0.741696
0.740654
0.739545
0.738402
0.737279
0.736196
0.748085
0.747937
0.747669
0.747292
0.746809
0.746225
0.745544
0.744768
0.743902
0.742949
0.741909
0.740786
0.739584
0.738337
0.737115
0.735935
0.748548
0.748421
0.748167
0.747792
0.747301
0.746697
0.745984
0.745167
0.744248
0.743233
0.742121
0.740917
0.739626
0.738278
0.736958
0.735683
0.74897
0.748872
0.748638
0.748271
0.747774
0.747153
0.746413
0.745556
0.744588
0.743513
0.742332
0.741049
0.73967
0.738227
0.73681
0.735444
0.74935
0.749289
0.749081
0.748727
0.748229
0.747595
0.746829
0.745937
0.744923
0.743791
0.742543
0.741182
0.739717
0.738186
0.736673
0.735218
0.749688
0.749672
0.749497
0.74916
0.748666
0.748021
0.747234
0.746309
0.745252
0.744067
0.742754
0.741318
0.739769
0.738154
0.736548
0.735006
0.749985
0.750023
0.749886
0.749572
0.749084
0.748432
0.747626
0.746672
0.745576
0.744341
0.742967
0.741458
0.739828
0.738129
0.736433
0.734808
0.75021
0.750305
0.75021
0.74992
0.749442
0.748788
0.747968
0.746992
0.745864
0.744588
0.743161
0.74159
0.739889
0.738113
0.736338
0.734645
0.750363
0.750502
0.750439
0.75017
0.7497
0.749044
0.748215
0.747223
0.746073
0.744768
0.743305
0.74169
0.739938
0.738106
0.736274
0.734532
0.750487
0.750667
0.750634
0.750383
0.749921
0.749264
0.748428
0.747423
0.746255
0.744926
0.743432
0.741779
0.739984
0.738103
0.736223
0.73444
0.75059
0.750806
0.750802
0.750567
0.750112
0.749454
0.748611
0.747596
0.746413
0.745064
0.743544
0.741859
0.740026
0.738103
0.736181
0.734364
0.750677
0.750927
0.750946
0.750726
0.750277
0.749619
0.748771
0.747747
0.746551
0.745185
0.743643
0.741931
0.740066
0.738105
0.736148
0.734301
0.750751
0.751031
0.751073
0.750866
0.750422
0.749764
0.748911
0.747879
0.746672
0.745291
0.743731
0.741995
0.740102
0.738109
0.73612
0.734248
0.741235
0.741568
0.74194
0.742326
0.742708
0.743073
0.743416
0.743732
0.744019
0.744279
0.744507
0.744705
0.744872
0.745007
0.745104
0.745154
0.74145
0.741883
0.742322
0.742756
0.743175
0.743568
0.743931
0.74426
0.744555
0.744816
0.745042
0.745232
0.745387
0.745502
0.745576
0.745606
0.741629
0.742138
0.742634
0.743112
0.743565
0.743985
0.744369
0.744717
0.745026
0.745299
0.745533
0.74573
0.745888
0.746005
0.74608
0.746109
0.741777
0.742346
0.742891
0.743408
0.743892
0.74434
0.744748
0.745116
0.745445
0.745735
0.745987
0.746199
0.746371
0.746499
0.746581
0.746616
0.741894
0.742512
0.743099
0.743652
0.744166
0.74464
0.745073
0.745464
0.745815
0.746128
0.7464
0.746632
0.746822
0.746967
0.747062
0.747105
0.741986
0.742652
0.743279
0.743866
0.744412
0.744914
0.745374
0.745791
0.746167
0.746505
0.746802
0.747059
0.747271
0.747436
0.747547
0.7476
0.742033
0.742741
0.743404
0.744025
0.7446
0.74513
0.745617
0.746063
0.746467
0.746835
0.747162
0.747448
0.74769
0.747883
0.748019
0.748091
0.742032
0.742774
0.743469
0.744117
0.744719
0.745275
0.745786
0.746257
0.746689
0.747085
0.747443
0.747761
0.748037
0.748264
0.748434
0.748534
0.741982
0.742753
0.743474
0.744147
0.744771
0.745348
0.745881
0.746374
0.74683
0.747253
0.747641
0.747993
0.748307
0.748575
0.748787
0.748926
0.741884
0.742679
0.743423
0.744115
0.744758
0.745352
0.745903
0.746414
0.74689
0.747338
0.747756
0.748144
0.748499
0.748816
0.749079
0.749266
0.741741
0.742555
0.743317
0.744027
0.744685
0.745292
0.745855
0.746379
0.746872
0.747341
0.747786
0.748211
0.748613
0.748984
0.749307
0.749553
0.741555
0.742386
0.743163
0.743887
0.744555
0.745172
0.745742
0.746274
0.746777
0.747262
0.747733
0.748195
0.748648
0.749082
0.749472
0.749788
0.741374
0.742215
0.743002
0.743734
0.744409
0.745029
0.745601
0.746134
0.74664
0.747134
0.747623
0.748116
0.748614
0.749106
0.749564
0.749949
0.74121
0.742058
0.742853
0.743592
0.744272
0.744895
0.745467
0.746001
0.74651
0.74701
0.747513
0.74803
0.748563
0.7491
0.749611
0.75005
0.741048
0.741903
0.742705
0.74345
0.744134
0.74476
0.745333
0.745867
0.746378
0.746884
0.747398
0.747936
0.748501
0.749079
0.749637
0.750127
0.740892
0.741752
0.742561
0.743312
0.744001
0.744629
0.745204
0.745738
0.74625
0.746761
0.747286
0.747842
0.748434
0.749049
0.749652
0.750188
0.740743
0.741608
0.742423
0.74318
0.743874
0.744506
0.745082
0.745617
0.746131
0.746647
0.747181
0.747753
0.748369
0.749017
0.749659
0.750236
0.740603
0.741473
0.742294
0.743058
0.743757
0.744392
0.74497
0.745508
0.746024
0.746544
0.747087
0.747671
0.748309
0.748987
0.749663
0.750277
0.733191
0.733478
0.733856
0.7343
0.734796
0.735333
0.735903
0.7365
0.737118
0.737751
0.738386
0.739003
0.739583
0.74011
0.74057
0.74095
0.732632
0.732935
0.733307
0.733745
0.734243
0.734796
0.735397
0.736039
0.736714
0.737416
0.738125
0.738812
0.739454
0.740036
0.740556
0.74102
0.732012
0.732353
0.732745
0.733198
0.733712
0.734287
0.734919
0.735602
0.73633
0.737096
0.737874
0.738629
0.739333
0.739976
0.740562
0.741106
0.731375
0.731753
0.732176
0.732654
0.733193
0.733795
0.734459
0.735183
0.735961
0.736787
0.737631
0.738451
0.739215
0.739919
0.74057
0.741183
0.73074
0.73115
0.731605
0.732113
0.73268
0.733312
0.734011
0.734775
0.735601
0.736485
0.737392
0.738273
0.739094
0.739856
0.740567
0.741242
0.730053
0.730492
0.730979
0.73152
0.732121
0.732788
0.733524
0.734332
0.735209
0.736155
0.737128
0.738071
0.738953
0.739774
0.740546
0.74128
0.729355
0.729822
0.730342
0.730919
0.731557
0.732262
0.733039
0.73389
0.734818
0.735824
0.736859
0.737857
0.738793
0.73967
0.740495
0.741282
0.728686
0.729175
0.729726
0.730338
0.731013
0.731755
0.732571
0.733464
0.734439
0.735501
0.736589
0.737635
0.738618
0.739541
0.740413
0.741243
0.728048
0.728556
0.729133
0.729778
0.730488
0.731268
0.732121
0.733053
0.734072
0.735184
0.736317
0.737402
0.738424
0.739386
0.740296
0.741162
0.727442
0.727965
0.728566
0.729241
0.729986
0.730801
0.731689
0.732658
0.733717
0.734872
0.73604
0.737157
0.73821
0.739204
0.740144
0.741038
0.726871
0.727405
0.728028
0.728731
0.729508
0.730357
0.731279
0.732281
0.733378
0.734567
0.735761
0.736901
0.737977
0.738993
0.739957
0.740874
0.726336
0.726878
0.727521
0.728251
0.72906
0.729941
0.730894
0.731928
0.733057
0.734274
0.735484
0.736638
0.737728
0.738759
0.739739
0.740672
0.725928
0.726478
0.727137
0.727891
0.728726
0.729634
0.730611
0.731666
0.732819
0.73405
0.735267
0.736425
0.737519
0.738555
0.739541
0.740482
0.725627
0.726175
0.726842
0.727611
0.728464
0.729391
0.730386
0.731459
0.732629
0.733868
0.735086
0.736245
0.737339
0.738376
0.739365
0.740311
0.725373
0.725916
0.726588
0.727368
0.728237
0.72918
0.73019
0.731277
0.732461
0.733705
0.734921
0.736078
0.737169
0.738205
0.739194
0.740143
0.725159
0.725696
0.726369
0.727157
0.728038
0.728995
0.730018
0.731116
0.732311
0.733558
0.734771
0.735923
0.73701
0.738043
0.739032
0.739983
0.724979
0.725507
0.726179
0.726973
0.727864
0.728832
0.729866
0.730973
0.732178
0.733424
0.734634
0.73578
0.736863
0.737892
0.738879
0.739831
0.724828
0.725347
0.726016
0.726813
0.727711
0.728687
0.72973
0.730846
0.732059
0.733304
0.734508
0.735649
0.736726
0.737751
0.738735
0.739689
0.732449
0.730915
0.729606
0.728518
0.727633
0.726919
0.726342
0.725868
0.725467
0.72512
0.72481
0.724535
0.724312
0.724177
0.724169
0.724321
0.732361
0.730811
0.729497
0.728412
0.727536
0.726835
0.726272
0.72581
0.725417
0.725073
0.724757
0.724467
0.724222
0.724057
0.724019
0.724143
0.732272
0.730707
0.72939
0.728311
0.727447
0.726761
0.726215
0.725767
0.725383
0.725042
0.724721
0.724416
0.724144
0.723946
0.723874
0.723967
0.732183
0.730604
0.729285
0.728214
0.727365
0.726699
0.726172
0.725741
0.725368
0.725031
0.724705
0.724383
0.724082
0.723847
0.723735
0.723793
0.732094
0.730503
0.729185
0.728125
0.727295
0.72665
0.726146
0.725735
0.725376
0.725043
0.724713
0.724373
0.72404
0.723763
0.723606
0.723624
0.732007
0.730405
0.729091
0.728045
0.727236
0.726618
0.726141
0.725753
0.725409
0.725083
0.724747
0.724389
0.724021
0.723696
0.723488
0.723461
0.731923
0.730312
0.729003
0.727976
0.727193
0.726606
0.72616
0.725799
0.725473
0.725153
0.724813
0.724436
0.72403
0.723651
0.723385
0.723306
0.731843
0.730224
0.728924
0.727919
0.727168
0.726618
0.726209
0.725877
0.725571
0.72526
0.724914
0.724517
0.724071
0.723632
0.7233
0.723161
0.73177
0.730144
0.728857
0.727878
0.727166
0.72666
0.726292
0.725993
0.725709
0.725407
0.725056
0.724639
0.724149
0.723644
0.723236
0.723029
0.731703
0.730074
0.728803
0.727858
0.727193
0.726737
0.726414
0.726152
0.725893
0.725599
0.725242
0.724804
0.724272
0.723693
0.723197
0.722912
0.731646
0.730016
0.728768
0.727865
0.727255
0.726855
0.726583
0.726361
0.726127
0.725843
0.725477
0.725016
0.724443
0.723785
0.723191
0.722814
0.731603
0.729975
0.728755
0.727905
0.727357
0.727019
0.726803
0.726625
0.72642
0.726145
0.72577
0.72528
0.724662
0.723931
0.723223
0.722739
0.731577
0.729954
0.728773
0.727983
0.727505
0.727236
0.72708
0.726952
0.726778
0.726514
0.726128
0.725605
0.724934
0.72413
0.723303
0.722691
0.731573
0.729959
0.728825
0.728106
0.727707
0.727514
0.727423
0.727347
0.72721
0.726959
0.72656
0.726001
0.725268
0.724381
0.723439
0.72268
0.731593
0.729997
0.728919
0.728282
0.727972
0.727861
0.727838
0.72782
0.727723
0.727488
0.727077
0.726476
0.725674
0.724695
0.723631
0.722716
0.731642
0.730072
0.729062
0.728517
0.728307
0.728286
0.728339
0.728381
0.728328
0.728112
0.727688
0.727041
0.726162
0.72508
0.723885
0.722808
0.731727
0.730193
0.729261
0.728821
0.728722
0.7288
0.728932
0.72904
0.729033
0.728838
0.728405
0.72771
0.726748
0.725551
0.724212
0.722958
0.731854
0.730365
0.729524
0.7292
0.729221
0.729408
0.729626
0.729802
0.729844
0.729674
0.729234
0.728493
0.727444
0.726121
0.724622
0.723176
0.732031
0.730597
0.729858
0.729661
0.729811
0.730112
0.730423
0.730673
0.730769
0.730628
0.730187
0.729405
0.728268
0.726809
0.72513
0.723476
0.732267
0.730896
0.730272
0.730211
0.730496
0.730915
0.731327
0.731661
0.731818
0.731716
0.731283
0.730465
0.72924
0.727638
0.725759
0.723872
0.73257
0.731268
0.730766
0.730836
0.731254
0.731805
0.732338
0.732768
0.733
0.732953
0.732543
0.731699
0.730383
0.72863
0.72653
0.72438
0.732947
0.731718
0.731334
0.731537
0.732089
0.732775
0.733444
0.733989
0.734318
0.734348
0.73398
0.733127
0.731729
0.729814
0.727472
0.725025
0.733393
0.732249
0.731989
0.732321
0.733008
0.73383
0.734634
0.735314
0.735766
0.735903
0.735607
0.734771
0.733304
0.731216
0.728612
0.725832
0.733916
0.732854
0.732709
0.733171
0.733991
0.734953
0.735902
0.73673
0.737326
0.7376
0.737414
0.736634
0.735128
0.732874
0.729989
0.726838
0.73451
0.733511
0.733471
0.734068
0.735012
0.736101
0.737193
0.738181
0.738948
0.739398
0.739371
0.738703
0.737204
0.734816
0.73164
0.728078
0.735203
0.73423
0.734271
0.734982
0.736051
0.737255
0.738475
0.739618
0.74058
0.741252
0.74145
0.740971
0.73955
0.737064
0.733598
0.729592
0.736277
0.735367
0.73549
0.736306
0.737485
0.738795
0.740148
0.741484
0.742655
0.743514
0.743938
0.743694
0.742419
0.739878
0.736117
0.731605
0.737527
0.736526
0.736692
0.737621
0.738902
0.740283
0.741767
0.743396
0.745072
0.746513
0.747543
0.747957
0.747227
0.744891
0.740768
0.735416
0.738572
0.737449
0.737575
0.738523
0.739818
0.741183
0.74269
0.744488
0.746544
0.748621
0.750385
0.751622
0.751761
0.750099
0.746043
0.739998
0.739446
0.738171
0.738187
0.739088
0.740316
0.741585
0.743018
0.744834
0.747089
0.749555
0.752026
0.754108
0.75529
0.754713
0.751354
0.745091
0.740103
0.738637
0.738498
0.739274
0.740398
0.741564
0.742877
0.744602
0.746925
0.749633
0.752578
0.755421
0.757646
0.758278
0.756089
0.750307
0.740537
0.738858
0.738535
0.739153
0.740178
0.741277
0.742539
0.744228
0.746553
0.74935
0.752577
0.756147
0.759295
0.760878
0.759859
0.75524
0.74073
0.738831
0.73831
0.738758
0.739718
0.74083
0.742125
0.743912
0.74636
0.749378
0.753083
0.757505
0.761312
0.763358
0.762812
0.759257
0.740678
0.738568
0.737856
0.738167
0.739166
0.740367
0.741914
0.744146
0.747121
0.750898
0.755513
0.760731
0.764724
0.766634
0.76588
0.762536
0.740377
0.738083
0.737218
0.737488
0.73865
0.740206
0.742549
0.746147
0.750652
0.755901
0.761177
0.766362
0.769768
0.770895
0.769335
0.765582
0.739845
0.737413
0.736483
0.736876
0.738415
0.741128
0.745402
0.751898
0.75825
0.764211
0.769161
0.773498
0.77575
0.775646
0.77297
0.768477
0.739123
0.736633
0.735794
0.736554
0.738925
0.74432
0.751994
0.760644
0.767813
0.773527
0.777598
0.780738
0.781645
0.780182
0.776373
0.771072
0.738302
0.735889
0.73538
0.736886
0.74084
0.750486
0.761084
0.770746
0.777727
0.782464
0.785364
0.787044
0.786625
0.783943
0.779198
0.773206
0.737513
0.735413
0.735587
0.738386
0.744749
0.758575
0.771169
0.780639
0.786434
0.789648
0.791198
0.791567
0.790178
0.786639
0.781258
0.774778
0.736932
0.735514
0.736833
0.741645
0.750703
0.767557
0.780531
0.788036
0.792136
0.794067
0.79468
0.794272
0.792387
0.788356
0.782598
0.77577
0.736766
0.736536
0.739594
0.746945
0.758146
0.776411
0.786511
0.791551
0.794749
0.796223
0.796474
0.795754
0.793682
0.789351
0.783296
0.776263
0.737262
0.738753
0.74413
0.753912
0.766129
0.782722
0.788487
0.792326
0.795571
0.797169
0.797392
0.796592
0.794464
0.789887
0.78358
0.776482
0.738635
0.742252
0.750139
0.761691
0.773499
0.785247
0.7883
0.791856
0.795608
0.797582
0.79792
0.797123
0.794992
0.79016
0.783638
0.776606
0.740932
0.746757
0.756867
0.769336
0.779189
0.785344
0.787312
0.790904
0.795298
0.797745
0.798267
0.797506
0.795407
0.790311
0.783623
0.776767
0.743984
0.751777
0.763347
0.775715
0.783004
0.78443
0.78609
0.789769
0.794795
0.79776
0.798519
0.797817
0.795796
0.790465
0.783668
0.777038
0.747503
0.756846
0.768917
0.780038
0.785169
0.783272
0.784855
0.788579
0.79412
0.797657
0.798709
0.798099
0.796202
0.790691
0.78385
0.777447
0.751108
0.761336
0.772897
0.782213
0.785698
0.782185
0.783696
0.787401
0.793298
0.797451
0.798855
0.798377
0.796642
0.791029
0.784203
0.777995
0.754331
0.764627
0.774655
0.782437
0.784458
0.781183
0.782641
0.786276
0.792338
0.797134
0.798961
0.798671
0.797115
0.791492
0.784723
0.778673
0.756694
0.766251
0.774131
0.781209
0.782406
0.780234
0.781694
0.785226
0.791262
0.796693
0.799024
0.798996
0.797606
0.792061
0.785384
0.779459
0.757959
0.766308
0.772131
0.779347
0.780482
0.779379
0.780845
0.784238
0.790058
0.796088
0.799035
0.799373
0.798106
0.792727
0.786157
0.780345
0.757984
0.765385
0.769897
0.777326
0.779034
0.778657
0.780066
0.783263
0.788708
0.795292
0.798998
0.799824
0.798617
0.793485
0.787005
0.781349
0.757087
0.763948
0.768324
0.775402
0.778046
0.778055
0.779313
0.782252
0.787194
0.79427
0.798921
0.800362
0.799149
0.794322
0.7879
0.78246
0.755699
0.762439
0.767408
0.774237
0.77743
0.777524
0.778538
0.781148
0.785524
0.793029
0.798824
0.800986
0.799724
0.795227
0.788828
0.783614
0.754525
0.761654
0.767365
0.774011
0.777148
0.777002
0.777703
0.779935
0.783752
0.791581
0.798727
0.801687
0.800378
0.796181
0.789751
0.784783
0.754441
0.762377
0.768509
0.77471
0.777121
0.776441
0.776796
0.778643
0.78198
0.789992
0.798656
0.802449
0.801157
0.797159
0.79065
0.785966
0.756314
0.765059
0.770921
0.776155
0.777165
0.775805
0.77583
0.777355
0.78032
0.788334
0.798633
0.803269
0.802095
0.798144
0.791561
0.78713
0.760863
0.7697
0.774237
0.777924
0.777064
0.775085
0.774841
0.776172
0.778879
0.786711
0.798685
0.804146
0.803181
0.799151
0.792509
0.788232
0.768262
0.775535
0.777756
0.779407
0.776659
0.774301
0.773878
0.775183
0.777719
0.785214
0.798813
0.805087
0.804352
0.800205
0.793531
0.789215
0.77737
0.781221
0.780592
0.780078
0.775963
0.773479
0.772986
0.77444
0.776874
0.783927
0.799014
0.806096
0.805551
0.801326
0.794662
0.790034
0.785493
0.785144
0.782105
0.779803
0.775098
0.772651
0.772212
0.773961
0.77634
0.782891
0.799243
0.807175
0.806753
0.802533
0.79594
0.790728
0.790157
0.786605
0.782265
0.778821
0.774291
0.771848
0.771592
0.773739
0.776098
0.782124
0.799462
0.808327
0.807981
0.803827
0.79738
0.791364
0.791099
0.786275
0.781554
0.777616
0.773526
0.771105
0.771149
0.773751
0.776118
0.781611
0.799605
0.809555
0.809271
0.805198
0.798958
0.792052
0.789892
0.785127
0.780574
0.776581
0.772738
0.770487
0.770886
0.773965
0.776369
0.781344
0.799636
0.810864
0.810647
0.80665
0.800633
0.792936
0.78801
0.783784
0.779601
0.775682
0.771932
0.770036
0.770789
0.774343
0.77682
0.781308
0.799561
0.812246
0.812105
0.808174
0.802328
0.794109
0.786384
0.782631
0.778789
0.774774
0.771201
0.769756
0.77083
0.774846
0.777449
0.781524
0.799462
0.813681
0.813615
0.809655
0.803943
0.795526
0.785301
0.781679
0.778143
0.773802
0.770765
0.769601
0.770984
0.77544
0.778247
0.782015
0.799423
0.815158
0.815152
0.81095
0.805392
0.797086
0.784681
0.780961
0.777658
0.772991
0.770496
0.769531
0.771223
0.776096
0.779209
0.782833
0.799534
0.816637
0.816709
0.812
0.806687
0.798655
0.784486
0.780441
0.777234
0.772454
0.770356
0.769512
0.77152
0.776795
0.780344
0.784002
0.799887
0.818086
0.818311
0.812875
0.807844
0.800159
0.784597
0.780099
0.77651
0.772217
0.770255
0.769527
0.771847
0.777518
0.781656
0.785541
0.800549
0.819467
0.819976
0.81373
0.808848
0.801595
0.784844
0.779829
0.775794
0.772169
0.770175
0.769559
0.772174
0.778258
0.78313
0.787475
0.801555
0.820723
0.82172
0.81474
0.809704
0.803101
0.78515
0.779643
0.775236
0.7722
0.770097
0.769601
0.772494
0.779006
0.784818
0.789757
0.802925
0.821804
0.823528
0.816042
0.810535
0.804664
0.785409
0.779453
0.775085
0.77226
0.770028
0.769629
0.772742
0.779668
0.786529
0.792234
0.804555
0.82269
0.825214
0.817626
0.811537
0.806281
0.785584
0.779354
0.775057
0.772308
0.769962
0.769636
0.772904
0.780214
0.788167
0.794799
0.806422
0.823405
0.826619
0.819351
0.812777
0.807931
0.785611
0.779225
0.775103
0.77234
0.769898
0.769616
0.772981
0.780621
0.789654
0.797334
0.80838
0.823947
0.827553
0.820953
0.814157
0.809516
0.78547
0.779078
0.775059
0.772343
0.769835
0.769573
0.772976
0.780862
0.790908
0.799725
0.810327
0.824328
0.827945
0.822173
0.815469
0.810862
0.785143
0.778793
0.774956
0.77232
0.769773
0.769508
0.772896
0.780931
0.791872
0.80188
0.812121
0.824542
0.827835
0.822852
0.816485
0.811779
0.784648
0.778401
0.77475
0.772268
0.769714
0.769427
0.772751
0.780824
0.792493
0.803709
0.813677
0.824586
0.827317
0.822991
0.817062
0.812158
0.783994
0.777861
0.774493
0.772195
0.769657
0.769337
0.772554
0.780554
0.792743
0.805142
0.814912
0.824451
0.826502
0.822699
0.817176
0.81206
0.7832
0.777234
0.774188
0.7721
0.769604
0.769242
0.772315
0.780137
0.792612
0.806121
0.815777
0.824128
0.825488
0.822122
0.816925
0.811607
0.782288
0.776538
0.773882
0.771994
0.769555
0.769146
0.772047
0.779598
0.792127
0.806608
0.816232
0.823606
0.824351
0.821387
0.816454
0.810941
0.78128
0.77584
0.773592
0.771881
0.769512
0.769052
0.771762
0.778959
0.791319
0.806573
0.816252
0.822884
0.823142
0.820589
0.815879
0.810186
0.780219
0.775177
0.77335
0.771773
0.769474
0.768962
0.771471
0.778252
0.79024
0.806015
0.815823
0.821956
0.821895
0.819788
0.815275
0.809417
0.779145
0.774598
0.773166
0.771672
0.769441
0.768879
0.77118
0.777501
0.78895
0.804956
0.814944
0.82082
0.820618
0.819019
0.814692
0.808673
0.778101
0.774121
0.773048
0.771587
0.769413
0.7688
0.770903
0.776737
0.787519
0.803447
0.813628
0.819471
0.819314
0.818294
0.81415
0.807978
0.777117
0.773758
0.772994
0.771518
0.76939
0.768728
0.770644
0.775982
0.786013
0.801577
0.811915
0.817904
0.817975
0.817604
0.813653
0.807337
0.750835
0.751148
0.751213
0.75102
0.75058
0.74992
0.749061
0.748021
0.746802
0.745406
0.743826
0.742066
0.740142
0.738114
0.736092
0.734192
0.750931
0.751287
0.751381
0.751204
0.75077
0.750108
0.749242
0.748191
0.746959
0.745546
0.743943
0.742153
0.740194
0.738124
0.736061
0.734127
0.751024
0.751427
0.751555
0.751396
0.750968
0.750304
0.749432
0.74837
0.747125
0.745693
0.744067
0.742248
0.740252
0.738137
0.736032
0.734063
0.751112
0.751568
0.751733
0.751595
0.751175
0.75051
0.74963
0.748559
0.747299
0.74585
0.744201
0.74235
0.740316
0.738155
0.736005
0.733999
0.751195
0.75171
0.751917
0.751803
0.751392
0.750725
0.749839
0.748757
0.747484
0.746017
0.744344
0.742462
0.740387
0.738178
0.735982
0.733937
0.751273
0.751853
0.752106
0.752019
0.751618
0.750951
0.750058
0.748965
0.747679
0.746194
0.744497
0.742583
0.740466
0.738207
0.735964
0.733878
0.751344
0.751997
0.752302
0.752245
0.751856
0.751188
0.750289
0.749185
0.747885
0.746383
0.744662
0.742715
0.740554
0.738244
0.73595
0.733821
0.751409
0.752143
0.752506
0.752482
0.752105
0.751438
0.750531
0.749417
0.748103
0.746585
0.744841
0.742859
0.740652
0.738289
0.735943
0.733769
0.751468
0.752291
0.752718
0.75273
0.752368
0.7517
0.750786
0.749661
0.748335
0.746801
0.745033
0.743017
0.740763
0.738344
0.735944
0.733723
0.751521
0.752443
0.75294
0.752992
0.752645
0.751976
0.751054
0.749919
0.748581
0.747032
0.745242
0.743191
0.740888
0.738412
0.735955
0.733685
0.751571
0.7526
0.753174
0.75327
0.752938
0.752268
0.751337
0.750193
0.748843
0.747281
0.745469
0.743384
0.74103
0.738494
0.735977
0.733657
0.751617
0.752764
0.753421
0.753563
0.753248
0.752576
0.751637
0.750484
0.749125
0.74755
0.745717
0.743597
0.741191
0.738594
0.736013
0.733642
0.751663
0.752937
0.753685
0.753876
0.753577
0.752903
0.751956
0.750794
0.749427
0.747841
0.745989
0.743835
0.741376
0.738713
0.736067
0.733643
0.751713
0.753123
0.753967
0.754209
0.753928
0.753252
0.752296
0.751127
0.749753
0.748157
0.746287
0.7441
0.741586
0.738855
0.736141
0.733664
0.751772
0.753327
0.754272
0.754568
0.754304
0.753626
0.752662
0.751488
0.750106
0.748502
0.746615
0.744396
0.741825
0.739025
0.736241
0.733708
0.751848
0.753556
0.754605
0.754954
0.754709
0.754029
0.753059
0.75188
0.750491
0.74888
0.746978
0.744726
0.742099
0.739227
0.736369
0.733778
0.751952
0.753818
0.754972
0.755374
0.755146
0.754469
0.753494
0.752311
0.750916
0.749298
0.74738
0.745097
0.742411
0.739468
0.736532
0.73388
0.752103
0.754126
0.755382
0.755833
0.755623
0.754949
0.753974
0.752788
0.751387
0.749762
0.747828
0.745513
0.74277
0.739752
0.736736
0.734021
0.752317
0.754495
0.755843
0.75634
0.756146
0.75548
0.754506
0.75332
0.751911
0.750278
0.748326
0.74598
0.743181
0.740087
0.736988
0.73421
0.752613
0.75494
0.756369
0.756903
0.756725
0.756069
0.755099
0.753914
0.752496
0.750852
0.748881
0.746504
0.743648
0.740478
0.737296
0.734456
0.753006
0.755474
0.756972
0.757534
0.75737
0.756726
0.755762
0.754579
0.753151
0.751493
0.749499
0.747088
0.744176
0.740933
0.737667
0.734765
0.753503
0.756106
0.757664
0.758247
0.758093
0.757462
0.756506
0.755325
0.753885
0.752209
0.750187
0.747738
0.744771
0.741458
0.73811
0.735142
0.754114
0.756847
0.758455
0.759052
0.758905
0.75829
0.757345
0.756167
0.754708
0.753006
0.750947
0.748459
0.745437
0.742056
0.73863
0.735593
0.754854
0.757706
0.759352
0.759954
0.759814
0.759221
0.758291
0.757118
0.755632
0.753893
0.751784
0.749249
0.746174
0.742734
0.739234
0.736128
0.755733
0.758685
0.760348
0.760949
0.760825
0.760266
0.759358
0.758189
0.756667
0.754875
0.752701
0.750108
0.746989
0.743499
0.739918
0.736742
0.75679
0.759789
0.761441
0.762041
0.761948
0.761437
0.76056
0.759395
0.757828
0.755965
0.753705
0.751049
0.747895
0.744353
0.740692
0.737443
0.758435
0.761385
0.76292
0.76346
0.763377
0.762903
0.762053
0.760886
0.759251
0.757285
0.754912
0.752186
0.749027
0.74546
0.741736
0.738448
0.761138
0.763813
0.765154
0.765679
0.765707
0.765372
0.764619
0.763471
0.761713
0.759541
0.756925
0.754078
0.750846
0.747186
0.74331
0.739887
0.763497
0.766012
0.767304
0.767965
0.768201
0.76806
0.76742
0.766277
0.764349
0.761899
0.758982
0.755923
0.752559
0.748815
0.744779
0.741132
0.765277
0.767816
0.769265
0.770217
0.770757
0.770864
0.77036
0.769218
0.767095
0.764317
0.761061