/*--------------------------------*- C++ -*----------------------------------*\
  =========                 |
  \\      /  F ield         | OpenFOAM: The Open Source CFD Toolbox
   \\    /   O peration     | Website:  https://openfoam.org
    \\  /    A nd           | Version:  7
     \\/     M anipulation  |
\*---------------------------------------------------------------------------*/
FoamFile
{
    version     2.0;
    format      ascii;
    class       volScalarField;
    location    "0";
    object      nut;
}
// * * * * * * * * * * * * * * * * * * * * * * * * * * * * * * * * * * * * * //

dimensions      [0 2 -1 0 0 0 0];

internalField   uniform 1.e-05;

boundaryField
{
    inletfuel
    {
        type            zeroGradient;
    }
    inletcoflow
    {
        type            zeroGradient;
    }
    inletair
    {
        type            zeroGradient;
    }
    outlet
    {
        type            inletOutlet;
        inletValue      uniform 1e-05;
        value           nonuniform List<scalar> 
10368
(
5.75218e-06
5.85736e-06
5.93512e-06
5.99312e-06
6.03619e-06
6.06527e-06
6.08052e-06
6.08177e-06
6.06831e-06
6.03945e-06
5.99402e-06
5.93166e-06
5.85189e-06
5.75333e-06
5.63562e-06
5.4961e-06
5.91561e-06
5.99395e-06
6.05256e-06
6.09537e-06
6.12598e-06
6.14692e-06
6.1571e-06
6.1554e-06
6.14049e-06
6.1118e-06
6.06822e-06
6.00976e-06
5.9365e-06
5.84831e-06
5.74485e-06
5.62373e-06
6.05714e-06
6.11008e-06
6.1509e-06
6.1808e-06
6.20151e-06
6.21436e-06
6.21966e-06
6.21497e-06
6.19825e-06
6.16899e-06
6.12609e-06
6.06982e-06
6.00081e-06
5.91973e-06
5.82706e-06
5.72169e-06
6.1796e-06
6.20997e-06
6.23426e-06
6.25239e-06
6.26426e-06
6.2701e-06
6.26951e-06
6.26122e-06
6.24223e-06
6.21185e-06
6.16891e-06
6.11385e-06
6.0477e-06
5.97176e-06
5.88715e-06
5.79425e-06
6.28257e-06
6.29378e-06
6.30432e-06
6.31147e-06
6.31496e-06
6.31418e-06
6.30816e-06
6.29535e-06
6.27362e-06
6.24178e-06
6.19836e-06
6.14392e-06
6.07969e-06
6.0074e-06
5.92842e-06
5.84455e-06
6.36448e-06
6.36213e-06
6.36044e-06
6.35806e-06
6.35378e-06
6.34669e-06
6.33547e-06
6.31838e-06
6.29339e-06
6.25985e-06
6.21565e-06
6.16137e-06
6.09834e-06
6.02847e-06
5.95308e-06
5.87522e-06
6.42367e-06
6.41304e-06
6.40189e-06
6.3915e-06
6.38034e-06
6.36744e-06
6.35137e-06
6.33029e-06
6.30213e-06
6.26662e-06
6.22135e-06
6.16676e-06
6.10423e-06
6.03573e-06
5.96249e-06
5.88828e-06
6.45783e-06
6.44329e-06
6.42674e-06
6.41005e-06
6.39349e-06
6.37569e-06
6.35534e-06
6.33065e-06
6.29957e-06
6.26198e-06
6.21532e-06
6.15996e-06
6.09725e-06
6.02916e-06
5.95693e-06
5.88438e-06
6.46474e-06
6.45007e-06
6.4315e-06
6.41158e-06
6.39127e-06
6.36979e-06
6.34601e-06
6.31825e-06
6.28455e-06
6.2449e-06
6.19667e-06
6.14014e-06
6.07661e-06
6.00805e-06
5.93564e-06
5.86308e-06
6.44546e-06
6.43373e-06
6.41662e-06
6.39657e-06
6.37479e-06
6.35108e-06
6.32476e-06
6.29441e-06
6.25824e-06
6.21636e-06
6.16612e-06
6.10777e-06
6.04256e-06
5.97242e-06
5.8985e-06
5.82439e-06
6.39759e-06
6.39224e-06
6.37993e-06
6.36231e-06
6.34115e-06
6.31695e-06
6.28927e-06
6.25705e-06
6.21875e-06
6.17462e-06
6.12207e-06
6.06129e-06
5.99352e-06
5.92061e-06
5.84373e-06
5.76634e-06
6.32029e-06
6.32368e-06
6.31905e-06
6.30694e-06
6.2891e-06
6.26635e-06
6.23871e-06
6.20551e-06
6.16555e-06
6.1192e-06
6.06409e-06
6.00032e-06
5.92905e-06
5.85205e-06
5.77054e-06
5.68759e-06
6.21405e-06
6.22922e-06
6.23481e-06
6.23058e-06
6.21833e-06
6.19896e-06
6.17281e-06
6.13962e-06
6.09857e-06
6.05013e-06
5.99229e-06
5.92501e-06
5.84935e-06
5.76691e-06
5.67879e-06
5.58716e-06
6.08072e-06
6.11191e-06
6.13035e-06
6.13581e-06
6.1306e-06
6.11591e-06
6.0924e-06
6.06016e-06
6.01857e-06
5.96821e-06
5.90749e-06
5.83632e-06
5.75557e-06
5.6665e-06
5.56974e-06
5.46529e-06
5.92523e-06
5.97877e-06
6.01353e-06
6.02974e-06
6.03133e-06
6.02083e-06
5.99997e-06
5.96889e-06
5.92689e-06
5.87471e-06
5.81112e-06
5.73597e-06
5.64984e-06
5.55352e-06
5.44692e-06
5.32699e-06
5.75882e-06
5.83913e-06
5.89189e-06
5.91957e-06
5.92741e-06
5.91985e-06
5.89946e-06
5.86822e-06
5.82454e-06
5.77053e-06
5.70418e-06
5.62493e-06
5.53294e-06
5.42845e-06
5.31141e-06
5.17641e-06
6.98002e-06
7.10642e-06
7.21732e-06
7.31424e-06
7.39693e-06
7.46411e-06
7.51401e-06
7.54435e-06
7.55277e-06
7.5413e-06
7.50759e-06
7.45216e-06
7.37582e-06
7.27936e-06
7.1647e-06
7.03682e-06
7.41546e-06
7.56001e-06
7.69207e-06
7.8074e-06
7.90368e-06
7.97952e-06
8.03405e-06
8.0663e-06
8.07461e-06
8.06219e-06
8.0263e-06
7.96789e-06
7.88691e-06
7.78292e-06
7.65634e-06
7.5055e-06
7.86232e-06
8.02399e-06
8.1727e-06
8.29997e-06
8.40263e-06
8.48056e-06
8.53405e-06
8.56289e-06
8.56668e-06
8.54915e-06
8.5084e-06
8.4448e-06
8.35777e-06
8.24705e-06
8.11249e-06
7.95108e-06
8.3058e-06
8.48552e-06
8.64715e-06
8.78123e-06
8.88536e-06
8.96081e-06
9.00882e-06
9.03021e-06
9.02675e-06
9.00242e-06
8.95619e-06
8.88855e-06
8.79819e-06
8.68365e-06
8.54341e-06
8.37593e-06
8.73719e-06
8.93461e-06
9.10557e-06
9.24238e-06
9.34433e-06
9.41378e-06
9.45324e-06
9.46574e-06
9.45323e-06
9.42192e-06
9.37128e-06
9.30172e-06
9.21104e-06
9.09663e-06
8.95512e-06
8.78577e-06
9.7412e-06
9.96864e-06
1.01569e-05
1.03013e-05
1.04038e-05
1.04678e-05
1.04983e-05
1.05005e-05
1.04771e-05
1.04367e-05
1.03796e-05
1.03064e-05
1.02139e-05
1.00967e-05
9.94947e-06
9.7725e-06
1.02213e-05
1.04634e-05
1.06545e-05
1.0794e-05
1.08868e-05
1.09381e-05
1.0957e-05
1.09465e-05
1.09125e-05
1.0865e-05
1.08057e-05
1.07354e-05
1.06493e-05
1.05388e-05
1.03976e-05
1.02269e-05
1.06696e-05
1.09217e-05
1.11125e-05
1.1244e-05
1.13246e-05
1.13633e-05
1.13713e-05
1.13493e-05
1.13046e-05
1.12493e-05
1.11865e-05
1.11176e-05
1.10354e-05
1.09295e-05
1.07931e-05
1.0629e-05
1.10961e-05
1.13535e-05
1.15395e-05
1.1659e-05
1.17245e-05
1.17521e-05
1.17491e-05
1.17174e-05
1.16623e-05
1.1596e-05
1.15251e-05
1.14527e-05
1.13706e-05
1.12673e-05
1.11327e-05
1.09741e-05
1.15113e-05
1.17681e-05
1.19424e-05
1.20425e-05
1.20891e-05
1.21023e-05
1.20853e-05
1.20427e-05
1.19756e-05
1.18977e-05
1.1817e-05
1.1737e-05
1.165e-05
1.15453e-05
1.1411e-05
1.12574e-05
1.19216e-05
1.21697e-05
1.23216e-05
1.23932e-05
1.24174e-05
1.24054e-05
1.23764e-05
1.23252e-05
1.22481e-05
1.21564e-05
1.20612e-05
1.19683e-05
1.18717e-05
1.17619e-05
1.16286e-05
1.14825e-05
1.23282e-05
1.25586e-05
1.26768e-05
1.27146e-05
1.27036e-05
1.26702e-05
1.26247e-05
1.25605e-05
1.24689e-05
1.23598e-05
1.22474e-05
1.21388e-05
1.20282e-05
1.19079e-05
1.17728e-05
1.16363e-05
1.09184e-05
1.10983e-05
1.117e-05
1.11742e-05
1.11391e-05
1.10934e-05
1.10396e-05
1.09734e-05
1.08845e-05
1.07786e-05
1.06687e-05
1.05604e-05
1.04487e-05
1.03305e-05
1.02068e-05
1.00906e-05
1.06379e-05
1.0796e-05
1.08428e-05
1.08237e-05
1.07737e-05
1.07174e-05
1.06577e-05
1.05889e-05
1.0499e-05
1.03914e-05
1.02765e-05
1.016e-05
1.00388e-05
9.91247e-06
9.78402e-06
9.66817e-06
1.03423e-05
1.04812e-05
1.05084e-05
1.04708e-05
1.04111e-05
1.03486e-05
1.0285e-05
1.02151e-05
1.01261e-05
1.00191e-05
9.90274e-06
9.7818e-06
9.65246e-06
9.51799e-06
9.38404e-06
9.26451e-06
1.0035e-05
1.01576e-05
1.01691e-05
1.01185e-05
1.00531e-05
9.98751e-06
9.92254e-06
9.85366e-06
9.76739e-06
9.66241e-06
9.54589e-06
9.42173e-06
9.28712e-06
9.1467e-06
9.00749e-06
8.88279e-06
9.72002e-06
9.82886e-06
9.8282e-06
9.76885e-06
9.70077e-06
9.63448e-06
9.57e-06
9.50337e-06
9.42082e-06
9.3189e-06
9.20359e-06
9.07797e-06
8.93992e-06
8.79552e-06
8.65267e-06
8.52285e-06
9.4009e-06
9.49817e-06
9.48817e-06
9.4235e-06
9.35488e-06
9.28947e-06
9.2267e-06
9.16311e-06
9.08475e-06
8.98638e-06
8.87325e-06
8.74765e-06
8.60816e-06
8.46177e-06
8.31681e-06
8.18303e-06
6.65197e-06
6.72418e-06
6.78332e-06
6.83467e-06
6.87739e-06
6.91173e-06
6.93807e-06
6.95662e-06
6.96859e-06
6.976e-06
6.97913e-06
6.9786e-06
6.97425e-06
6.96688e-06
6.95572e-06
6.93393e-06
7.04015e-06
7.11087e-06
7.16269e-06
7.20392e-06
7.23676e-06
7.26291e-06
7.28256e-06
7.29665e-06
7.30757e-06
7.3179e-06
7.32794e-06
7.33769e-06
7.34652e-06
7.35612e-06
7.36195e-06
7.35646e-06
7.41626e-06
7.47827e-06
7.51915e-06
7.54907e-06
7.57097e-06
7.5874e-06
7.601e-06
7.61172e-06
7.62296e-06
7.6379e-06
7.65678e-06
7.67867e-06
7.70328e-06
7.73172e-06
7.76096e-06
7.78328e-06
7.78925e-06
7.83906e-06
7.86754e-06
7.88543e-06
7.89598e-06
7.90149e-06
7.90674e-06
7.91249e-06
7.92197e-06
7.94026e-06
7.96768e-06
8.00248e-06
8.04436e-06
8.09429e-06
8.14941e-06
8.20169e-06
8.15347e-06
8.19188e-06
8.21061e-06
8.21915e-06
8.22075e-06
8.21661e-06
8.21102e-06
8.20881e-06
8.21281e-06
8.23115e-06
8.26499e-06
8.31166e-06
8.37035e-06
8.44241e-06
8.52382e-06
8.60553e-06
9.05027e-06
9.07941e-06
9.09021e-06
9.09115e-06
9.08513e-06
9.07372e-06
9.05887e-06
9.04831e-06
9.04347e-06
9.05576e-06
9.09447e-06
9.15472e-06
9.23445e-06
9.33507e-06
9.45056e-06
9.56895e-06
9.46524e-06
9.485e-06
9.48873e-06
9.48353e-06
9.47141e-06
9.45439e-06
9.43392e-06
9.41652e-06
9.40554e-06
9.40796e-06
9.44172e-06
9.50786e-06
9.60249e-06
9.7258e-06
9.86953e-06
1.00177e-05
9.85846e-06
9.8717e-06
9.87133e-06
9.86197e-06
9.8449e-06
9.82226e-06
9.79742e-06
9.77536e-06
9.76044e-06
9.7561e-06
9.78151e-06
9.84909e-06
9.95439e-06
1.00973e-05
1.02671e-05
1.04417e-05
1.02357e-05
1.02429e-05
1.02392e-05
1.02261e-05
1.02027e-05
1.0172e-05
1.0141e-05
1.01153e-05
1.00985e-05
1.0091e-05
1.01097e-05
1.01773e-05
1.02923e-05
1.04544e-05
1.06513e-05
1.08505e-05
1.06031e-05
1.06036e-05
1.05951e-05
1.05754e-05
1.05412e-05
1.04977e-05
1.04566e-05
1.04272e-05
1.04106e-05
1.04039e-05
1.04214e-05
1.04904e-05
1.06184e-05
1.08023e-05
1.10297e-05
1.12535e-05
1.09634e-05
1.0957e-05
1.09429e-05
1.09132e-05
1.08624e-05
1.07992e-05
1.07431e-05
1.07095e-05
1.06945e-05
1.06921e-05
1.07151e-05
1.07904e-05
1.09347e-05
1.11466e-05
1.14079e-05
1.16574e-05
1.13168e-05
1.1305e-05
1.12857e-05
1.12444e-05
1.1173e-05
1.10855e-05
1.10103e-05
1.09713e-05
1.0958e-05
1.09614e-05
1.09956e-05
1.1084e-05
1.12481e-05
1.14915e-05
1.17898e-05
1.20647e-05
1.0007e-05
9.99238e-06
9.97455e-06
9.93222e-06
9.85612e-06
9.76263e-06
9.68333e-06
9.64442e-06
9.63318e-06
9.64084e-06
9.68031e-06
9.76919e-06
9.92635e-06
1.01596e-05
1.04437e-05
1.06967e-05
9.73857e-06
9.72119e-06
9.70207e-06
9.65949e-06
9.57864e-06
9.47756e-06
9.39243e-06
9.35092e-06
9.33899e-06
9.34908e-06
9.39342e-06
9.48736e-06
9.64891e-06
9.88796e-06
1.01786e-05
1.04307e-05
9.4604e-06
9.44065e-06
9.41997e-06
9.37682e-06
9.29519e-06
9.18977e-06
9.10119e-06
9.05741e-06
9.04433e-06
9.05599e-06
9.10334e-06
9.20012e-06
9.36365e-06
9.60524e-06
9.89921e-06
1.0148e-05
9.1747e-06
9.15304e-06
9.13086e-06
9.08721e-06
9.00634e-06
8.89913e-06
8.80885e-06
8.76331e-06
8.74902e-06
8.76152e-06
8.81068e-06
8.90851e-06
9.07191e-06
9.31368e-06
9.60848e-06
9.85239e-06
8.88392e-06
8.86072e-06
8.83728e-06
8.79336e-06
8.71362e-06
8.60663e-06
8.51589e-06
8.46915e-06
8.45384e-06
8.46665e-06
8.51677e-06
8.61429e-06
8.77606e-06
9.01622e-06
9.30985e-06
9.54776e-06
8.59031e-06
8.56589e-06
8.54145e-06
8.4975e-06
8.41908e-06
8.31358e-06
8.22321e-06
8.1758e-06
8.15978e-06
8.17263e-06
8.22313e-06
8.31939e-06
8.47849e-06
8.71569e-06
9.00654e-06
9.23776e-06
6.23674e-06
6.32808e-06
6.42459e-06
6.51402e-06
6.59029e-06
6.65186e-06
6.69999e-06
6.73636e-06
6.76245e-06
6.77835e-06
6.78372e-06
6.77849e-06
6.76245e-06
6.73503e-06
6.69498e-06
6.63899e-06
6.55963e-06
6.66495e-06
6.77025e-06
6.86514e-06
6.94457e-06
7.00878e-06
7.05983e-06
7.09969e-06
7.12913e-06
7.14761e-06
7.1545e-06
7.14928e-06
7.13214e-06
7.10434e-06
7.06611e-06
7.01738e-06
6.86879e-06
6.98495e-06
7.09918e-06
7.19958e-06
7.28189e-06
7.34852e-06
7.40229e-06
7.44654e-06
7.48015e-06
7.50287e-06
7.51417e-06
7.51362e-06
7.50026e-06
7.47427e-06
7.43657e-06
7.38934e-06
7.16269e-06
7.28821e-06
7.40928e-06
7.51322e-06
7.59843e-06
7.66858e-06
7.72744e-06
7.77839e-06
7.81936e-06
7.85062e-06
7.87158e-06
7.88078e-06
7.87445e-06
7.85183e-06
7.81422e-06
7.76506e-06
7.44333e-06
7.57589e-06
7.7007e-06
7.80685e-06
7.89518e-06
7.97019e-06
8.03693e-06
8.09744e-06
8.14948e-06
8.19295e-06
8.22666e-06
8.24638e-06
8.24769e-06
8.22889e-06
8.19093e-06
8.1374e-06
8.20272e-06
8.34831e-06
8.48186e-06
8.59616e-06
8.69439e-06
8.78297e-06
8.86695e-06
8.94604e-06
9.01733e-06
9.07971e-06
9.12817e-06
9.15896e-06
9.16771e-06
9.1513e-06
9.10977e-06
9.04616e-06
8.51887e-06
8.66714e-06
8.80058e-06
8.91841e-06
9.02679e-06
9.13163e-06
9.23532e-06
9.33493e-06
9.42507e-06
9.4999e-06
9.55618e-06
9.59193e-06
9.60436e-06
9.58981e-06
9.54624e-06
9.47577e-06
8.81011e-06
8.96126e-06
9.09914e-06
9.22721e-06
9.35281e-06
9.48054e-06
9.6095e-06
9.73179e-06
9.83702e-06
9.91899e-06
9.97638e-06
1.00106e-05
1.00214e-05
1.00056e-05
9.95807e-06
9.88159e-06
9.08163e-06
9.24063e-06
9.39016e-06
9.53535e-06
9.68355e-06
9.83698e-06
9.99123e-06
1.0136e-05
1.02569e-05
1.03446e-05
1.03984e-05
1.04245e-05
1.04278e-05
1.04068e-05
1.0353e-05
1.027e-05
9.34107e-06
9.51411e-06
9.68174e-06
9.84695e-06
1.00165e-05
1.01952e-05
1.0378e-05
1.05472e-05
1.06828e-05
1.07725e-05
1.08191e-05
1.0834e-05
1.08279e-05
1.07998e-05
1.07408e-05
1.06482e-05
9.59489e-06
9.78749e-06
9.97376e-06
1.01564e-05
1.03459e-05
1.05453e-05
1.07485e-05
1.09364e-05
1.1086e-05
1.1182e-05
1.12279e-05
1.12371e-05
1.12243e-05
1.11893e-05
1.11235e-05
1.10202e-05
9.84418e-06
1.00549e-05
1.02572e-05
1.0453e-05
1.06499e-05
1.08571e-05
1.10721e-05
1.12761e-05
1.14435e-05
1.15556e-05
1.16129e-05
1.16274e-05
1.16145e-05
1.1575e-05
1.15015e-05
1.13852e-05
8.64886e-06
8.83949e-06
9.02058e-06
9.19028e-06
9.35843e-06
9.53789e-06
9.72893e-06
9.91619e-06
1.00776e-05
1.0195e-05
1.02653e-05
1.02925e-05
1.02876e-05
1.02514e-05
1.01811e-05
1.00738e-05
8.36288e-06
8.54978e-06
8.72506e-06
8.88503e-06
9.04295e-06
9.2155e-06
9.40326e-06
9.59238e-06
9.76213e-06
9.89332e-06
9.97964e-06
1.00196e-05
1.00204e-05
9.985e-06
9.91522e-06
9.80821e-06
8.06798e-06
8.24959e-06
8.41742e-06
8.56749e-06
8.7172e-06
8.88426e-06
9.06986e-06
9.26151e-06
9.43938e-06
9.5832e-06
9.68362e-06
9.7344e-06
9.74009e-06
9.70731e-06
9.63869e-06
9.53225e-06
7.76973e-06
7.94516e-06
8.10501e-06
8.2466e-06
8.38902e-06
8.55289e-06
8.73776e-06
8.93212e-06
9.11699e-06
9.27107e-06
9.38213e-06
9.44167e-06
9.45261e-06
9.42215e-06
9.35429e-06
9.24831e-06
7.47295e-06
7.64178e-06
7.79392e-06
7.92759e-06
8.06497e-06
8.22672e-06
8.41202e-06
8.60883e-06
8.79902e-06
8.96047e-06
9.07929e-06
9.14626e-06
9.1613e-06
9.13223e-06
9.06455e-06
8.95882e-06
7.18134e-06
7.34356e-06
7.48823e-06
7.61536e-06
7.74875e-06
7.90939e-06
8.09536e-06
8.29386e-06
8.48749e-06
8.65328e-06
8.77817e-06
8.85059e-06
8.86824e-06
8.83963e-06
8.77169e-06
8.66612e-06
6.98299e-06
6.97961e-06
6.95465e-06
6.9162e-06
6.8682e-06
6.81458e-06
6.75777e-06
6.69892e-06
6.64041e-06
6.58216e-06
6.52313e-06
6.46397e-06
6.40697e-06
6.35185e-06
6.2991e-06
6.23985e-06
7.4103e-06
7.3871e-06
7.34734e-06
7.29437e-06
7.23168e-06
7.16334e-06
7.09214e-06
7.01949e-06
6.94717e-06
6.8803e-06
6.81422e-06
6.74903e-06
6.69074e-06
6.63838e-06
6.59036e-06
6.54214e-06
7.83123e-06
7.7872e-06
7.72864e-06
7.65816e-06
7.57946e-06
7.4967e-06
7.41247e-06
7.32803e-06
7.24487e-06
7.16662e-06
7.09048e-06
7.01933e-06
6.95771e-06
6.90517e-06
6.86246e-06
6.82803e-06
8.24189e-06
8.17989e-06
8.10191e-06
8.01191e-06
7.91528e-06
7.8172e-06
7.72036e-06
7.62515e-06
7.53205e-06
7.44414e-06
7.3578e-06
7.27751e-06
7.21243e-06
7.16071e-06
7.12391e-06
7.1043e-06
8.64411e-06
8.56685e-06
8.46947e-06
8.35825e-06
8.24135e-06
8.12603e-06
8.01574e-06
7.90987e-06
7.80697e-06
7.70958e-06
7.61429e-06
7.52663e-06
7.45799e-06
7.40761e-06
7.37899e-06
7.37296e-06
9.62052e-06
9.52528e-06
9.40142e-06
9.25835e-06
9.10836e-06
8.96305e-06
8.82845e-06
8.70316e-06
8.58234e-06
8.46797e-06
8.35746e-06
8.25731e-06
8.18307e-06
8.13348e-06
8.11354e-06
8.11919e-06
1.00805e-05
9.97869e-06
9.83928e-06
9.67224e-06
9.49328e-06
9.32004e-06
9.16338e-06
9.02223e-06
8.88814e-06
8.76111e-06
8.6422e-06
8.53711e-06
8.46354e-06
8.42011e-06
8.41163e-06
8.42938e-06
1.04921e-05
1.03923e-05
1.02473e-05
1.00639e-05
9.85895e-06
9.65652e-06
9.47516e-06
9.31663e-06
9.16886e-06
9.02794e-06
8.90018e-06
8.79149e-06
8.71961e-06
8.68339e-06
8.68604e-06
8.71537e-06
1.08501e-05
1.07624e-05
1.06247e-05
1.04364e-05
1.02126e-05
9.98285e-06
9.77512e-06
9.59714e-06
9.43518e-06
9.28113e-06
9.14103e-06
9.02734e-06
8.95581e-06
8.92548e-06
8.9379e-06
8.97905e-06
1.11514e-05
1.10879e-05
1.09722e-05
1.07938e-05
1.05617e-05
1.03097e-05
1.00757e-05
9.87549e-06
9.69731e-06
9.529e-06
9.37538e-06
9.25464e-06
9.18098e-06
9.15286e-06
9.1728e-06
9.22625e-06
1.13977e-05
1.13639e-05
1.1285e-05
1.11327e-05
1.09066e-05
1.064e-05
1.03821e-05
1.01585e-05
9.96082e-06
9.77655e-06
9.60969e-06
9.47916e-06
9.40095e-06
9.3723e-06
9.39873e-06
9.46413e-06
1.15827e-05
1.15842e-05
1.15437e-05
1.14335e-05
1.12299e-05
1.09619e-05
1.06863e-05
1.04391e-05
1.02211e-05
1.00211e-05
9.84359e-06
9.70381e-06
9.61882e-06
9.58582e-06
9.61766e-06
9.6956e-06
1.00578e-05
1.00862e-05
1.00861e-05
1.00177e-05
9.86348e-06
9.63974e-06
9.39454e-06
9.16811e-06
8.96664e-06
8.78601e-06
8.62988e-06
8.50813e-06
8.43389e-06
8.40438e-06
8.43566e-06
8.50926e-06
9.63687e-06
9.6696e-06
9.68634e-06
9.6501e-06
9.52199e-06
9.31609e-06
9.08008e-06
8.85581e-06
8.65695e-06
8.48059e-06
8.32946e-06
8.21334e-06
8.14206e-06
8.11315e-06
8.1473e-06
8.22239e-06
9.22728e-06
9.25617e-06
9.27853e-06
9.26161e-06
9.16384e-06
8.97633e-06
8.75121e-06
8.53301e-06
8.33714e-06
8.16519e-06
8.01982e-06
7.91016e-06
7.84304e-06
7.81678e-06
7.8532e-06
7.92899e-06
8.83596e-06
8.85578e-06
8.87641e-06
8.87032e-06
8.79509e-06
8.62871e-06
8.41627e-06
8.20426e-06
8.01251e-06
7.84634e-06
7.70777e-06
7.60488e-06
7.5424e-06
7.51991e-06
7.558e-06
7.63354e-06
8.46572e-06
8.47375e-06
8.48851e-06
8.48689e-06
8.42769e-06
8.28031e-06
8.08088e-06
7.87656e-06
7.69027e-06
7.53047e-06
7.39896e-06
7.30265e-06
7.24488e-06
7.22658e-06
7.26577e-06
7.34049e-06
8.11673e-06
8.11257e-06
8.11946e-06
8.11815e-06
8.06985e-06
7.93894e-06
7.75207e-06
7.55583e-06
7.37555e-06
7.22222e-06
7.09768e-06
7.00781e-06
6.95458e-06
6.94018e-06
6.98003e-06
7.05328e-06
1.10987e-05
1.11443e-05
1.10696e-05
1.0943e-05
1.08264e-05
1.07242e-05
1.06349e-05
1.05548e-05
1.04669e-05
1.03622e-05
1.02465e-05
1.01206e-05
9.98309e-06
9.84265e-06
9.70842e-06
9.58923e-06
1.15755e-05
1.16093e-05
1.15175e-05
1.13779e-05
1.12558e-05
1.11508e-05
1.106e-05
1.09803e-05
1.08928e-05
1.07853e-05
1.06641e-05
1.05281e-05
1.03776e-05
1.0223e-05
1.00728e-05
9.93395e-06
1.20762e-05
1.20965e-05
1.19867e-05
1.18357e-05
1.17102e-05
1.16045e-05
1.15136e-05
1.14357e-05
1.13498e-05
1.12398e-05
1.11137e-05
1.09681e-05
1.08055e-05
1.06376e-05
1.04718e-05
1.03128e-05
1.26024e-05
1.26074e-05
1.24788e-05
1.23181e-05
1.2191e-05
1.20866e-05
1.19969e-05
1.19222e-05
1.18387e-05
1.1727e-05
1.15964e-05
1.14421e-05
1.12683e-05
1.1088e-05
1.09069e-05
1.07267e-05
1.31561e-05
1.31438e-05
1.29959e-05
1.28266e-05
1.26997e-05
1.25983e-05
1.25108e-05
1.24404e-05
1.23604e-05
1.22479e-05
1.21135e-05
1.1952e-05
1.1768e-05
1.15762e-05
1.13796e-05
1.11771e-05
1.37389e-05
1.37077e-05
1.35398e-05
1.33625e-05
1.32369e-05
1.31403e-05
1.30557e-05
1.29908e-05
1.2916e-05
1.28038e-05
1.26672e-05
1.25003e-05
1.23073e-05
1.21048e-05
1.18918e-05
1.16652e-05
1.4353e-05
1.43008e-05
1.41124e-05
1.39269e-05
1.38027e-05
1.3712e-05
1.36315e-05
1.35736e-05
1.3506e-05
1.33962e-05
1.32604e-05
1.30903e-05
1.28899e-05
1.26763e-05
1.24452e-05
1.21921e-05
1.50007e-05
1.49252e-05
1.47152e-05
1.45202e-05
1.43969e-05
1.43123e-05
1.42383e-05
1.41898e-05
1.41328e-05
1.40295e-05
1.38974e-05
1.37265e-05
1.35206e-05
1.3294e-05
1.30418e-05
1.27606e-05
1.56846e-05
1.55826e-05
1.53491e-05
1.51432e-05
1.502e-05
1.49422e-05
1.48785e-05
1.48433e-05
1.48017e-05
1.47112e-05
1.45853e-05
1.44156e-05
1.42049e-05
1.3962e-05
1.36844e-05
1.33737e-05
1.64076e-05
1.62742e-05
1.60146e-05
1.57978e-05
1.5675e-05
1.56074e-05
1.55591e-05
1.55414e-05
1.55211e-05
1.545e-05
1.53338e-05
1.51662e-05
1.49492e-05
1.46859e-05
1.43774e-05
1.40349e-05
1.71719e-05
1.70006e-05
1.67124e-05
1.6488e-05
1.63684e-05
1.63164e-05
1.62906e-05
1.62958e-05
1.63018e-05
1.62556e-05
1.61516e-05
1.59867e-05
1.57597e-05
1.54727e-05
1.51271e-05
1.47506e-05
1.79796e-05
1.77618e-05
1.74459e-05
1.72205e-05
1.71091e-05
1.70798e-05
1.70853e-05
1.71188e-05
1.7153e-05
1.71335e-05
1.70442e-05
1.68831e-05
1.66434e-05
1.63291e-05
1.59432e-05
1.55323e-05
1.88313e-05
1.8559e-05
1.82214e-05
1.80033e-05
1.79047e-05
1.79056e-05
1.79507e-05
1.80136e-05
1.80745e-05
1.80818e-05
1.80108e-05
1.78569e-05
1.76097e-05
1.72643e-05
1.68395e-05
1.63922e-05
1.97254e-05
1.93966e-05
1.90448e-05
1.88394e-05
1.87572e-05
1.87912e-05
1.88755e-05
1.89635e-05
1.90486e-05
1.90858e-05
1.90421e-05
1.89091e-05
1.86651e-05
1.82913e-05
1.78274e-05
1.73338e-05
2.06571e-05
2.02778e-05
1.99164e-05
1.97235e-05
1.96551e-05
1.97131e-05
1.98336e-05
1.99548e-05
2.00741e-05
2.01491e-05
2.01427e-05
2.00422e-05
1.98132e-05
1.94209e-05
1.89162e-05
1.83606e-05
2.16245e-05
2.12026e-05
2.08341e-05
2.06492e-05
2.05864e-05
2.06587e-05
2.08137e-05
2.0984e-05
2.1158e-05
2.12947e-05
2.13415e-05
2.12746e-05
2.10612e-05
2.06605e-05
2.01157e-05
1.94871e-05
2.26292e-05
2.21668e-05
2.17897e-05
2.16074e-05
2.15493e-05
2.16426e-05
2.18362e-05
2.2077e-05
2.23348e-05
2.25579e-05
2.26652e-05
2.26211e-05
2.24207e-05
2.20215e-05
2.14426e-05
2.07448e-05
2.36773e-05
2.31662e-05
2.2787e-05
2.26069e-05
2.25761e-05
2.27141e-05
2.2951e-05
2.32691e-05
2.36186e-05
2.39343e-05
2.41054e-05
2.40894e-05
2.39066e-05
2.35214e-05
2.29185e-05
2.21601e-05
2.47703e-05
2.41914e-05
2.38079e-05
2.36486e-05
2.36823e-05
2.39e-05
2.41845e-05
2.45593e-05
2.49843e-05
2.53783e-05
2.56245e-05
2.56702e-05
2.55337e-05
2.51817e-05
2.45561e-05
2.3736e-05
2.58866e-05
2.52277e-05
2.48228e-05
2.46894e-05
2.47988e-05
2.51086e-05
2.54628e-05
2.59006e-05
2.63951e-05
2.68564e-05
2.71969e-05
2.73703e-05
2.73173e-05
2.70254e-05
2.63723e-05
2.5468e-05
2.69918e-05
2.62695e-05
2.58279e-05
2.57173e-05
2.58938e-05
2.62765e-05
2.67424e-05
2.73063e-05
2.7914e-05
2.84696e-05
2.89417e-05
2.92674e-05
2.93161e-05
2.9079e-05
2.84126e-05
2.74151e-05
2.80831e-05
2.73353e-05
2.69075e-05
2.68293e-05
2.71048e-05
2.7579e-05
2.81657e-05
2.88668e-05
2.95982e-05
3.02793e-05
3.08951e-05
3.1368e-05
3.15492e-05
3.13769e-05
3.07456e-05
2.9652e-05
2.92219e-05
2.84235e-05
2.7998e-05
2.79716e-05
2.84236e-05
2.90475e-05
2.97578e-05
3.05571e-05
3.13632e-05
3.21542e-05
3.29145e-05
3.35664e-05
3.39798e-05
3.3929e-05
3.33896e-05
3.21886e-05
3.03691e-05
2.9516e-05
2.90827e-05
2.91042e-05
2.97157e-05
3.05102e-05
3.1368e-05
3.22995e-05
3.32112e-05
3.41024e-05
3.50038e-05
3.58678e-05
3.6601e-05
3.67243e-05
3.63182e-05
3.50657e-05
3.15974e-05
3.06846e-05
3.02354e-05
3.03884e-05
3.11645e-05
3.21528e-05
3.32084e-05
3.43021e-05
3.53516e-05
3.63293e-05
3.73565e-05
3.83772e-05
3.93754e-05
3.98082e-05
3.9575e-05
3.84194e-05
3.30027e-05
3.19323e-05
3.14677e-05
3.18231e-05
3.29241e-05
3.41223e-05
3.53264e-05
3.65213e-05
3.76258e-05
3.86544e-05
3.97492e-05
4.09042e-05
4.21888e-05
4.31135e-05
4.30901e-05
4.21857e-05
4.37596e-05
4.17698e-05
4.11926e-05
4.21503e-05
4.40956e-05
4.58287e-05
4.73815e-05
4.88212e-05
5.0199e-05
5.1447e-05
5.27544e-05
5.41562e-05
5.59251e-05
5.78251e-05
5.88659e-05
5.85919e-05
4.58462e-05
4.34824e-05
4.33138e-05
4.50293e-05
4.71837e-05
4.88264e-05
5.0115e-05
5.13214e-05
5.26697e-05
5.38465e-05
5.51711e-05
5.66383e-05
5.85893e-05
6.07977e-05
6.2817e-05
6.33688e-05
4.69942e-05
4.46053e-05
4.49894e-05
4.73213e-05
4.96352e-05
5.10761e-05
5.18244e-05
5.26865e-05
5.40441e-05
5.53275e-05
5.68877e-05
5.87051e-05
6.12069e-05
6.38251e-05
6.62649e-05
6.76588e-05
4.80129e-05
4.56729e-05
4.65954e-05
4.93936e-05
5.16894e-05
5.26607e-05
5.287e-05
5.34892e-05
5.46775e-05
5.59999e-05
5.8041e-05
6.04988e-05
6.37796e-05
6.70057e-05
6.95115e-05
7.10558e-05
4.87148e-05
4.64881e-05
4.78154e-05
5.09521e-05
5.315e-05
5.36001e-05
5.34061e-05
5.3681e-05
5.47919e-05
5.63406e-05
5.87769e-05
6.2269e-05
6.6414e-05
7.02582e-05
7.26704e-05
7.43725e-05
4.92645e-05
4.71393e-05
4.88171e-05
5.21538e-05
5.39365e-05
5.38161e-05
5.34918e-05
5.36188e-05
5.47769e-05
5.69713e-05
6.0073e-05
6.51664e-05
6.97738e-05
7.38033e-05
7.57419e-05
7.64767e-05
4.97849e-05
4.77022e-05
4.95583e-05
5.30473e-05
5.3957e-05
5.42534e-05
5.41974e-05
5.45863e-05
5.63457e-05
5.93184e-05
6.37473e-05
7.05874e-05
7.51605e-05
7.77685e-05
7.82047e-05
7.7501e-05
5.03592e-05
4.82273e-05
5.01008e-05
5.35408e-05
5.37952e-05
5.51539e-05
5.57684e-05
5.77625e-05
6.15915e-05
6.71004e-05
7.2938e-05
8.06687e-05
8.41685e-05
8.1566e-05
7.94978e-05
7.73098e-05
5.1017e-05
4.87421e-05
5.0446e-05
5.32434e-05
5.43564e-05
5.69853e-05
6.02064e-05
6.65595e-05
7.49842e-05
8.29014e-05
8.98089e-05
9.52284e-05
9.10802e-05
8.35089e-05
7.89629e-05
7.52958e-05
5.18282e-05
4.94025e-05
5.0734e-05
5.29414e-05
5.57378e-05
6.23925e-05
7.22997e-05
8.60095e-05
9.76674e-05
0.000104077
0.000104474
0.000100785
9.15336e-05
8.11304e-05
7.57873e-05
7.17266e-05
5.28046e-05
5.02787e-05
5.12853e-05
5.39846e-05
5.92477e-05
7.6519e-05
9.69185e-05
0.000111834
0.000114447
0.000111241
0.000104035
9.00622e-05
7.73297e-05
7.17233e-05
7.01886e-05
6.74129e-05
5.40646e-05
5.14212e-05
5.2519e-05
5.66535e-05
6.7953e-05
0.000103135
0.000122492
0.000119546
0.000106849
8.97334e-05
7.47476e-05
6.47596e-05
6.21384e-05
6.36526e-05
6.52686e-05
6.37713e-05
5.54874e-05
5.30964e-05
5.51409e-05
6.32831e-05
8.49738e-05
0.000127867
0.000121927
9.39566e-05
6.8183e-05
5.79563e-05
5.44749e-05
5.32366e-05
5.57237e-05
6.04128e-05
6.24258e-05
6.09338e-05
5.66334e-05
5.55624e-05
6.07056e-05
7.75372e-05
0.000109259
0.000126356
8.89345e-05
5.71565e-05
4.41313e-05
4.25856e-05
4.67051e-05
4.94918e-05
5.41583e-05
5.92325e-05
6.07164e-05
5.9038e-05
5.79947e-05
5.9783e-05
7.26963e-05
0.000101472
0.000124911
9.47789e-05
5.75987e-05
4.006e-05
3.54319e-05
3.73512e-05
4.48408e-05
4.9175e-05
5.44382e-05
5.91534e-05
5.9753e-05
5.80463e-05
6.02244e-05
6.823e-05
9.67358e-05
0.000117154
0.000118885
6.51819e-05
4.73573e-05
3.55333e-05
3.27471e-05
3.58389e-05
4.49441e-05
4.98302e-05
5.55943e-05
5.96426e-05
5.93714e-05
5.79271e-05
6.47592e-05
8.61823e-05
0.000115521
0.000113994
9.38782e-05
5.44266e-05
4.61243e-05
3.4935e-05
3.16423e-05
3.54315e-05
4.5835e-05
5.11466e-05
5.71466e-05
6.03194e-05
5.94319e-05
5.86662e-05
7.40095e-05
0.000105174
0.00011604
9.23154e-05
7.02375e-05
5.2051e-05
4.67961e-05
3.53584e-05
3.02844e-05
3.48677e-05
4.67635e-05
5.2779e-05
5.87976e-05
6.10266e-05
5.97804e-05
6.00516e-05
8.97917e-05
0.000112045
0.000102311
7.14937e-05
5.73176e-05
5.1882e-05
4.8063e-05
3.62413e-05
2.87949e-05
3.43166e-05
4.77672e-05
5.4563e-05
6.0274e-05
6.16028e-05
6.04912e-05
6.20575e-05
0.000100748
0.000110696
8.10553e-05
6.06333e-05
5.37524e-05
5.23441e-05
4.95281e-05
3.72792e-05
2.73224e-05
3.36683e-05
4.86186e-05
5.63119e-05
6.15546e-05
6.2068e-05
6.13951e-05
6.46413e-05
0.000102413
9.96834e-05
6.99183e-05
5.64939e-05
5.28105e-05
5.34639e-05
5.08977e-05
3.79817e-05
2.5967e-05
3.30729e-05
4.9451e-05
5.78731e-05
6.26385e-05
6.2451e-05
6.24812e-05
6.77031e-05
0.00010071
8.52255e-05
6.95135e-05
5.78641e-05
5.21436e-05
5.49882e-05
5.16626e-05
3.81905e-05
2.4598e-05
3.22626e-05
5.01182e-05
5.92063e-05
6.36349e-05
6.29022e-05
6.37564e-05
7.08908e-05
9.45143e-05
8.35098e-05
7.64988e-05
6.32341e-05
5.27168e-05
5.67672e-05
5.20402e-05
3.70945e-05
2.29817e-05
3.11373e-05
5.06324e-05
6.02946e-05
6.45907e-05
6.33528e-05
6.51042e-05
7.40986e-05
9.14544e-05
8.79223e-05
8.60743e-05
7.17823e-05
5.57748e-05
5.88528e-05
5.10589e-05
3.45086e-05
2.0976e-05
2.94525e-05
5.09818e-05
6.13e-05
6.554e-05
6.37281e-05
6.65014e-05
7.74427e-05
9.21189e-05
9.56706e-05
9.32936e-05
8.05162e-05
6.11321e-05
6.07333e-05
4.80294e-05
3.09485e-05
1.8598e-05
2.73109e-05
5.12398e-05
6.24424e-05
6.65142e-05
6.4117e-05
6.79341e-05
8.0509e-05
9.42265e-05
9.98659e-05
9.82002e-05
8.78068e-05
6.78745e-05
6.17245e-05
4.25188e-05
2.63135e-05
1.59709e-05
2.46812e-05
5.12825e-05
6.38005e-05
6.74754e-05
6.45711e-05
6.94565e-05
8.287e-05
9.86655e-05
0.000101715
0.00010066
9.33798e-05
7.36234e-05
6.05655e-05
3.63922e-05
2.13032e-05
1.3515e-05
2.19359e-05
5.1104e-05
6.54126e-05
6.83493e-05
6.51044e-05
7.09868e-05
8.47216e-05
0.000102188
0.000101998
0.000101143
9.67568e-05
7.75077e-05
5.70839e-05
3.11258e-05
1.6963e-05
1.1697e-05
1.9255e-05
5.05779e-05
6.72592e-05
6.91659e-05
6.5682e-05
7.26734e-05
8.5623e-05
0.000103475
0.00010192
0.000101602
9.92186e-05
7.9288e-05
5.31979e-05
2.71692e-05
1.43202e-05
1.06371e-05
1.69688e-05
4.97745e-05
6.9232e-05
6.99983e-05
6.626e-05
7.44082e-05
8.59426e-05
0.000105184
0.00010331
0.000103419
0.000101357
7.87136e-05
4.99621e-05
2.44614e-05
1.29614e-05
1.02135e-05
1.51457e-05
4.86706e-05
7.11759e-05
7.10524e-05
6.67724e-05
7.60547e-05
8.5881e-05
0.000109536
0.0001071
0.000106678
0.000102714
7.62239e-05
4.69836e-05
2.2062e-05
1.21045e-05
9.98728e-06
1.37577e-05
4.73465e-05
7.28857e-05
7.24855e-05
6.7454e-05
7.73546e-05
8.53578e-05
0.000118219
0.00011169
0.000109306
0.000101458
7.33196e-05
4.34251e-05
1.92536e-05
1.13765e-05
9.85239e-06
1.2828e-05
4.56178e-05
7.41997e-05
7.46671e-05
6.83411e-05
7.81182e-05
8.44862e-05
0.000119445
0.000110938
0.000109289
9.74362e-05
7.04585e-05
3.87093e-05
1.60299e-05
1.07776e-05
9.72794e-06
1.21566e-05
4.33615e-05
7.50833e-05
7.752e-05
6.9302e-05
7.85856e-05
8.36961e-05
0.000112535
0.000106461
0.000107409
8.99138e-05
6.76904e-05
3.26214e-05
1.34433e-05
1.053e-05
9.62901e-06
1.15954e-05
4.02585e-05
7.55818e-05
8.05736e-05
7.03579e-05
7.87761e-05
8.39901e-05
9.94785e-05
0.000102078
0.000102256
8.49386e-05
6.25198e-05
2.57144e-05
1.17601e-05
1.04657e-05
9.52311e-06
1.11267e-05
3.63846e-05
7.55809e-05
8.36275e-05
7.15108e-05
7.85071e-05
8.49047e-05
9.25033e-05
9.85422e-05
9.46003e-05
8.65844e-05
5.48199e-05
1.91864e-05
1.10925e-05
1.04814e-05
9.39575e-06
1.06713e-05
3.20632e-05
7.47849e-05
8.62742e-05
7.29015e-05
7.77821e-05
8.62506e-05
8.83454e-05
9.49324e-05
8.56416e-05
8.73095e-05
4.16264e-05
1.43548e-05
1.09109e-05
1.05097e-05
9.25149e-06
1.02514e-05
2.79276e-05
7.29671e-05
8.83049e-05
7.46136e-05
7.63507e-05
8.70004e-05
8.39842e-05
8.8786e-05
7.90341e-05
7.68815e-05
2.73756e-05
1.21374e-05
1.09256e-05
1.0526e-05
9.09063e-06
9.83459e-06
2.44542e-05
6.97602e-05
8.96313e-05
7.62346e-05
7.46161e-05
8.71716e-05
8.08635e-05
8.35899e-05
7.67555e-05
5.5272e-05
1.61044e-05