/*--------------------------------*- C++ -*----------------------------------*\
  =========                 |
  \\      /  F ield         | OpenFOAM: The Open Source CFD Toolbox
   \\    /   O peration     | Website:  https://openfoam.org
    \\  /    A nd           | Version:  7
     \\/     M anipulation  |
\*---------------------------------------------------------------------------*/
FoamFile
{
    version     2.0;
    format      ascii;
    class       volVectorField;
    location    "0";
    object      U;
}
// * * * * * * * * * * * * * * * * * * * * * * * * * * * * * * * * * * * * * //

dimensions      [0 1 -1 0 0 0 0];

internalField   uniform (0 0 0);

boundaryField
{
    inletfuel
    {
        type            decayingTurbulenceInflowGenerator;
        LField          uniform 0.0009;
        refField        uniform (58.74 0 0);
        RField          uniform (12.42 0 0 12.42 0 12.42);
        direction       1;
        value           nonuniform List<vector> 
1408
(
(61.7501 3.31506 -0.292722)
(61.598 3.60009 -0.212188)
(61.411 3.80909 -0.107649)
(61.1954 3.93604 0.0231741)
(60.9623 3.97768 0.179737)
(60.727 3.9335 0.358786)
(60.508 3.80624 0.554906)
(60.3254 3.60124 0.76104)
(60.1982 3.32613 0.969309)
(60.1426 2.99038 1.17167)
(60.1694 2.60408 1.3606)
(60.2829 2.17736 1.53005)
(60.4796 1.71911 1.6757)
(60.7484 1.2363 1.79566)
(61.0715 0.733407 1.89012)
(61.4256 0.212747 1.96136)
(62.1257 2.69295 -0.0569801)
(61.907 2.97571 0.0699901)
(61.6351 3.18502 0.215186)
(61.3224 3.31328 0.380085)
(60.987 3.35623 0.56324)
(60.6513 3.31278 0.760791)
(60.3413 3.1856 0.966767)
(60.0834 2.98024 1.17391)
(59.9019 2.70504 1.37425)
(59.8163 2.36995 1.5602)
(59.8382 1.98562 1.72536)
(59.9701 1.5622 1.86497)
(60.2043 1.10838 1.97664)
(60.5234 0.630514 2.06042)
(60.9018 0.132782 2.11837)
(61.3082 -0.382867 2.15425)
(62.5796 2.04645 0.106655)
(62.3014 2.31697 0.272094)
(61.9496 2.51767 0.450173)
(61.543 2.64 0.641574)
(61.1068 2.67886 0.844476)
(60.6713 2.6331 1.05469)
(60.2698 2.50509 1.26616)
(59.9356 2.30083 1.47163)
(59.698 2.02896 1.66348)
(59.5793 1.69979 1.83488)
(59.5914 1.32387 1.98029)
(59.7344 0.910985 2.09647)
(59.996 0.469146 2.18252)
(60.352 0.00398597 2.23998)
(60.7696 -0.481146 2.27219)
(61.2096 -0.984195 2.28343)
(63.0814 1.39189 0.209204)
(62.7515 1.64098 0.405105)
(62.3272 1.8247 0.608212)
(61.8333 1.9341 0.818662)
(61.302 1.96361 1.03443)
(60.7713 1.91192 1.25132)
(60.282 1.78169 1.46359)
(59.8732 1.57918 1.66443)
(59.5792 1.31325 1.84693)
(59.4245 0.994101 2.005)
(59.4209 0.632043 2.13431)
(59.5656 0.23601 2.23274)
(59.8416 -0.187002 2.30065)
(60.2187 -0.632447 2.34045)
(60.6569 -1.09764 2.35594)
(61.1112 -1.58069 2.3515)
(63.5963 0.745252 0.265969)
(63.2223 0.965144 0.484697)
(62.734 1.1247 0.70558)
(62.1617 1.21475 0.92817)
(61.5444 1.22989 1.15039)
(60.9267 1.16891 1.36833)
(60.3558 1.03486 1.57675)
(59.8767 0.834236 1.76967)
(59.5273 0.576004 1.94114)
(59.3338 0.270195 2.08619)
(59.3074 -0.0736731 2.20156)
(59.443 -0.447647 2.28626)
(59.719 -0.846058 2.34133)
(60.0998 -1.26548 2.36959)
(60.5403 -1.70403 2.37487)
(60.9907 -2.16001 2.36104)
(64.089 0.121508 0.295693)
(63.6771 0.306108 0.530508)
(63.1337 0.435554 0.762794)
(62.4936 0.501063 0.99157)
(61.8011 0.497623 1.2146)
(61.1067 0.424615 1.42839)
(60.463 0.285357 1.62845)
(59.9192 0.0867112 1.80978)
(59.5159 -0.162514 1.96769)
(59.2808 -0.452614 2.0985)
(59.2243 -0.774959 2.20015)
(59.339 -1.12284 2.27241)
(59.6 -1.49202 2.31692)
(59.9679 -1.88029 2.33663)
(60.3939 -2.28658 2.33496)
(60.8255 -2.70952 2.31518)
(64.5262 -0.466156 0.319085)
(64.0815 -0.321143 0.56437)
(63.4915 -0.226156 0.802863)
(62.7946 -0.188977 1.03282)
(62.0391 -0.213785 1.25194)
(61.2799 -0.300649 1.45699)
(60.573 -0.445742 1.64425)
(59.9707 -0.64208 1.80998)
(59.5156 -0.881045 1.95082)
(59.2359 -1.1537 2.06451)
(59.1416 -1.45228 2.15005)
(59.2237 -1.77138 2.20831)
(59.4556 -2.10809 2.2413)
(59.7956 -2.4615 2.25192)
(60.1935 -2.83143 2.24331)
(60.5957 -3.21694 2.21811)
(64.8808 -1.00691 0.357122)
(64.4067 -0.904027 0.608555)
(63.7782 -0.845974 0.849094)
(63.0357 -0.839151 1.07638)
(62.23 -0.886609 1.2876)
(61.418 -0.987647 1.47983)
(60.6579 -1.13812 1.6501)
(60.0037 -1.33121 1.79583)
(59.4987 -1.55867 1.91503)
(59.1713 -1.81246 2.00695)
(59.0315 -2.08589 2.07196)
(59.0703 -2.37482 2.11182)
(59.2605 -2.67756 2.12915)
(59.5604 -2.99432 2.12708)
(59.9199 -3.32577 2.10859)
(60.2863 -3.67157 2.07595)
(65.1329 -1.49282 0.428672)
(64.6323 -1.43268 0.683284)
(63.9729 -1.41207 0.922907)
(63.1959 -1.43566 1.14437)
(62.3523 -1.50514 1.34444)
(61.4999 -1.61907 1.52025)
(60.6968 -1.77318 1.66945)
(59.997 -1.96113 1.79052)
(59.4439 -2.1755 1.88289)
(59.0661 -2.40933 1.94722)
(58.8742 -2.65716 1.98544)
(58.8601 -2.91595 2.0004)
(58.9979 -3.18502 1.99565)
(59.248 -3.4655 1.97487)
(59.5623 -3.75862 1.94125)
(59.8904 -4.06475 1.89724)
(65.2714 -1.91897 0.548367)
(64.7469 -1.90018 0.804312)
(64.0641 -1.91552 1.04094)
(63.2635 -1.96743 1.25418)
(62.3948 -2.05631 1.44037)
(61.5139 -2.18001 1.59654)
(60.6777 -2.33463 1.72083)
(59.9388 -2.51461 1.81268)
(59.3399 -2.71393 1.87285)
(58.9099 -2.92698 1.90343)
(58.6606 -3.14955 1.90783)
(58.5858 -3.37961 1.89038)
(58.663 -3.61718 1.85594)
(58.8561 -3.86388 1.80907)
(59.1208 -4.12134 1.75378)
(59.4101 -4.39026 1.693)
(65.2935 -2.28343 0.72491)
(64.7485 -2.30279 0.980885)
(64.0502 -2.35029 1.21285)
(63.2368 -2.42634 1.4159)
(62.3552 -2.52993 1.58582)
(61.458 -2.6587 1.71964)
(60.5989 -2.80938 1.81583)
(59.8281 -2.97784 1.8746)
(59.187 -3.1598 1.89789)
(58.7046 -3.35138 1.88909)
(58.3944 -3.54974 1.85323)
(58.2537 -3.7537 1.79628)
(58.2642 -3.96367 1.72459)
(58.3951 -4.18109 1.64421)
(58.6071 -4.40771 1.56039)
(58.858 -4.64428 1.47693)
(65.2044 -2.58702 0.95994)
(64.643 -2.63941 1.21458)
(63.9375 -2.71333 1.44012)
(63.1225 -2.80724 1.63109)
(62.2403 -2.91916 1.78274)
(61.3391 -3.04689 1.8921)
(60.468 -3.18825 1.95792)
(59.6738 -3.34104 1.98101)
(58.9961 -3.50318 1.96424)
(58.4637 -3.67282 1.91234)
(58.0923 -3.84861 1.83163)
(57.883 -4.03001 1.72979)
(57.823 -4.2174 1.61491)
(57.8878 -4.41182 1.49475)
(58.0445 -4.61425 1.37612)
(58.2561 -4.82512 1.26425)
(65.0151 -2.83262 1.24782)
(64.4428 -2.9112 1.49903)
(63.7388 -3.00399 1.71597)
(62.9332 -3.10796 1.89263)
(62.0633 -3.22057 2.02423)
(61.1709 -3.34026 2.10776)
(60.3001 -3.46643 2.14226)
(59.4931 -3.59928 2.12902)
(58.7871 -3.73921 2.07152)
(58.2105 -3.88657 1.97542)
(57.7809 -4.0416 1.84837)
(57.5036 -4.20444 1.69932)
(57.3716 -4.37508 1.53808)
(57.3676 -4.55354 1.37419)
(57.4655 -4.7397 1.21622)
(57.6346 -4.93303 1.07111)
(64.7407 -3.02485 1.57622)
(64.1641 -3.12115 1.82084)
(63.4709 -3.22387 2.02608)
(62.6863 -3.32898 2.18596)
(61.8412 -3.43395 2.29594)
(60.9713 -3.53841 2.3532)
(60.1144 -3.6437 2.35705)
(59.3077 -3.75266 2.30907)
(58.585 -3.86821 2.21309)
(57.9737 -3.99325 2.0754)
(57.4928 -4.12947 1.90417)
(57.1515 -4.27752 1.70948)
(56.9487 -4.4371 1.50234)
(56.8739 -4.60688 1.29393)
(56.9089 -4.78502 1.09459)
(57.0299 -4.96955 0.913043)
(64.3989 -3.16873 1.92802)
(63.8254 -3.27322 2.16134)
(63.1525 -3.3761 2.35079)
(62.4001 -3.47308 2.4911)
(61.593 -3.56229 2.57816)
(60.7599 -3.64485 2.60969)
(59.9319 -3.72435 2.58538)
(59.1407 -3.8061 2.50685)
(58.4158 -3.89581 2.37786)
(57.783 -3.99853 2.20464)
(57.2617 -4.1176 1.99551)
(56.864 -4.25424 1.76084)
(56.5939 -4.40768 1.51243)
(56.4481 -4.57516 1.2624)
(56.4156 -4.75306 1.0227)
(56.4804 -4.93741 0.803765)
(64.008 -3.26938 2.28298)
(63.4459 -3.37181 2.49908)
(62.8029 -3.46498 2.66803)
(62.0938 -3.54499 2.7857)
(61.3373 -3.61118 2.84914)
(60.5552 -3.6664 2.85675)
(59.7719 -3.71648 2.8084)
(59.0128 -3.76899 2.70556)
(58.3028 -3.83211 2.55174)
(57.6646 -3.91287 2.35237)
(57.117 -4.01613 2.11522)
(56.6738 -4.14377 1.85014)
(56.3432 -4.29452 1.56883)
(56.1277 -4.46458 1.28391)
(56.0238 -4.64848 1.00827)
(56.0233 -4.84012 0.753812)
(61.5831 3.32777 -0.589462)
(61.986 2.67697 -0.334425)
(62.4908 1.99889 -0.162347)
(63.0631 1.3125 -0.0621397)
(63.6616 0.636865 -0.0164052)
(64.2427 -0.00986509 -0.00250298)
(64.7651 -0.611673 0.00510797)
(65.1937 -1.15579 0.0326486)
(65.5028 -1.63327 0.103572)
(65.6779 -2.03945 0.235656)
(65.7155 -2.37398 0.438572)
(65.6219 -2.6404 0.712554)
(65.4115 -2.84543 1.04847)
(65.1038 -2.99766 1.42928)
(64.7207 -3.10618 1.83229)
(64.2852 -3.17928 2.23231)
(60.9667 3.58835 -1.11398)
(61.322 2.88839 -0.755535)
(61.8418 2.14326 -0.515141)
(62.4871 1.37825 -0.383174)
(63.2031 0.620478 -0.337329)
(63.9268 -0.103108 -0.344867)
(64.5952 -0.768069 -0.36612)
(65.1529 -1.35445 -0.35974)
(65.5587 -1.84851 -0.288879)
(65.7889 -2.244 -0.127281)
(65.8383 -2.54227 0.13652)
(65.7181 -2.75217 0.497714)
(65.4522 -2.88818 0.936232)
(65.072 -2.96797 1.42069)
(64.6118 -3.00937 1.91355)
(64.1053 -3.02745 2.37714)
(60.1734 3.72141 -1.63811)
(60.4112 2.99384 -1.15166)
(60.8816 2.20246 -0.828175)
(61.5473 1.37699 -0.661972)
(62.3434 0.551876 -0.62481)
(63.1879 -0.236698 -0.669711)
(63.9943 -0.954469 -0.737294)
(64.6834 -1.5727 -0.765295)
(65.1939 -2.07101 -0.699392)
(65.4896 -2.43998 -0.503644)
(65.5612 -2.68239 -0.166727)
(65.4247 -2.81295 0.296679)
(65.1149 -2.85652 0.849795)
(64.6773 -2.84322 1.44181)
(64.1609 -2.80323 2.01724)
(63.6122 -2.76096 2.52587)
(59.2935 3.71938 -2.13762)
(59.3509 2.99323 -1.49816)
(59.7052 2.18588 -1.07676)
(60.3279 1.32795 -0.875952)
(61.1507 0.459161 -0.860436)
(62.0768 -0.375808 -0.963397)
(62.9983 -1.13239 -1.09839)
(63.8112 -1.77162 -1.17496)
(64.4306 -2.26479 -1.11722)
(64.8025 -2.59704 -0.879162)
(64.9094 -2.77059 -0.453538)
(64.7698 -2.80557 0.128943)
(64.429 -2.7381 0.808242)
(63.9489 -2.61417 1.50862)
(63.3957 -2.48008 2.15467)
(62.8311 -2.37323 2.68546)
(58.4385 3.57774 -2.59303)
(58.2705 2.88794 -1.7762)
(58.4474 2.10292 -1.24091)
(58.9579 1.24929 -1.00492)
(59.7386 0.368404 -1.02557)
(60.688 -0.487957 -1.20999)
(61.6839 -1.26498 -1.43498)
(62.6009 -1.91288 -1.57411)
(63.3286 -2.39336 -1.52568)
(63.7888 -2.68433 -1.23482)
(63.9484 -2.7844 -0.703257)
(63.8224 -2.71633 0.0150245)
(63.4652 -2.52691 0.829574)
(62.9555 -2.2796 1.63539)
(62.38 -2.04099 2.33651)
(61.8196 -1.86555 2.86486)
(57.6665 3.26088 -3.02722)
(57.2298 2.65521 -1.99144)
(57.1581 1.94535 -1.31137)
(57.4654 1.14551 -1.03292)
(58.1071 0.294113 -1.10751)
(58.993 -0.550908 -1.40606)
(60.0023 -1.32368 -1.75363)
(60.9967 -1.96306 -1.97455)
(61.838 -2.42098 -1.93522)
(62.4126 -2.66679 -1.57375)
(62.6569 -2.69154 -0.908385)
(62.571 -2.51509 -0.0266228)
(62.213 -2.19118 0.940672)
(61.681 -1.80186 1.85315)
(61.0888 -1.43982 2.59407)
(60.545 -1.18417 3.0935)
(57.1757 2.73332 -3.40733)
(56.4666 2.27192 -2.11776)
(56.0917 1.70503 -1.2592)
(56.0953 1.02316 -0.924741)
(56.4697 0.256575 -1.0654)
(57.1642 -0.530609 -1.50665)
(58.0883 -1.26026 -2.00485)
(59.1102 -1.86159 -2.32149)
(60.0661 -2.2813 -2.28741)
(60.7918 -2.48267 -1.83835)
(61.1689 -2.44512 -1.01716)
(61.1613 -2.17507 0.0458251)
(60.8211 -1.72241 1.17124)
(60.2675 -1.18394 2.18009)
(59.6522 -0.683308 2.93859)
(59.1241 -0.33464 3.38348)
(57.145 2.03014 -3.67724)
(56.2258 1.76306 -2.13781)
(55.5494 1.39688 -1.08809)
(55.1875 0.887778 -0.684454)
(55.1853 0.255817 -0.886303)
(55.5625 -0.425284 -1.47132)
(56.2947 -1.06418 -2.11923)
(57.2839 -1.58658 -2.52493)
(58.3491 -1.94573 -2.48821)
(59.2616 -2.1081 -1.94922)
(59.8207 -2.03959 -0.979073)
(59.9279 -1.71926 0.248988)
(59.6164 -1.17482 1.50833)
(59.0288 -0.506518 2.58531)
(58.3671 0.130178 3.33676)
(57.8348 0.576951 3.71508)
(57.5884 1.17998 -3.80931)
(56.5469 1.14563 -2.05081)
(55.6032 1.02138 -0.816533)
(54.8499 0.721364 -0.336027)
(54.3974 0.259959 -0.584056)
(54.3629 -0.270558 -1.29149)
(54.8206 -0.763788 -2.0628)
(55.7332 -1.15343 -2.53339)
(56.9117 -1.41819 -2.48386)
(58.0507 -1.54224 -1.86643)
(58.8391 -1.47855 -0.777586)
(59.089 -1.16345 0.576564)
(58.802 -0.580014 1.9304)
(58.1499 0.184404 3.04155)
(57.4019 0.944217 3.76538)
(56.8313 1.4884 4.07688)
(58.4253 0.230632 -3.76753)
(57.3492 0.4501 -1.84679)
(56.1915 0.581646 -0.459662)
(55.0619 0.496911 0.0906327)
(54.1426 0.218859 -0.185807)
(53.6628 -0.12597 -0.974737)
(53.8142 -0.41503 -1.81673)
(54.6374 -0.606582 -2.31009)
(55.9447 -0.729511 -2.23685)
(57.3468 -0.804606 -1.56871)
(58.4007 -0.775369 -0.414991)
(58.8058 -0.522136 1.00664)
(58.5222 0.0390229 2.40541)
(57.7594 0.852207 3.51468)
(56.8729 1.70775 4.19341)
(56.2218 2.3367 4.44417)
(59.4985 -0.745472 -3.52018)
(58.4487 -0.272897 -1.51477)
(57.132 0.0926273 -0.031626)
(55.6809 0.190204 0.560983)
(54.3493 0.0777444 0.268943)
(53.4714 -0.062573 -0.547187)
(53.3511 -0.0918054 -1.38534)
(54.1099 -0.0138333 -1.84398)
(55.5693 0.0640525 -1.73791)
(57.2598 0.0638202 -1.06279)
(58.5974 0.0450167 0.082845)
(59.1535 0.1901 1.50101)
(58.8399 0.666799 2.8913)
(57.912 1.46978 3.96247)
(56.831 2.37589 4.57743)
(56.055 3.06044 4.77228)
(60.6084 -1.65435 -3.05484)
(59.6004 -0.953282 -1.05468)
(58.1652 -0.414105 0.447379)
(56.4795 -0.207128 1.03507)
(54.8632 -0.203607 0.730531)
(53.7203 -0.141405 -0.0535167)
(53.4295 0.1334 -0.799631)
(54.1797 0.54859 -1.15728)
(55.8128 0.890591 -1.01349)
(57.7983 1.00469 -0.388132)
(59.4182 0.943739 0.664749)
(60.1078 0.95128 2.00475)
(59.7255 1.28665 3.33466)
(58.5797 2.01149 4.33117)
(57.2533 2.90551 4.85862)
(56.3122 3.59867 4.99503)
(61.4051 -2.27645 -2.52195)
(60.4066 -1.42348 -0.594907)
(58.8876 -0.810269 0.856945)
(57.0898 -0.590005 1.39483)
(55.38 -0.54585 1.07458)
(54.1715 -0.333423 0.358898)
(53.8527 0.210204 -0.244243)
(54.6471 0.940216 -0.46952)
(56.4282 1.53977 -0.296083)
(58.6427 1.78041 0.240111)
(60.4787 1.70085 1.15251)
(61.2589 1.58607 2.37567)
(60.7931 1.76871 3.62057)
(59.4367 2.37538 4.52826)
(57.8808 3.20326 4.96229)
(56.7817 3.85904 5.04365)
(61.8696 -2.63041 -2.05799)
(60.8485 -1.69338 -0.221433)
(59.2666 -1.07298 1.15526)
(57.436 -0.892679 1.62773)
(55.753 -0.854051 1.28915)
(54.6009 -0.545041 0.644259)
(54.3344 0.199572 0.182305)
(55.1881 1.17285 0.0799595)
(57.0715 1.97705 0.271361)
(59.4366 2.32767 0.713041)
(61.4167 2.24717 1.48725)
(62.2521 2.042 2.59775)
(61.7126 2.09405 3.76179)
(60.1886 2.58221 4.58831)
(58.4543 3.32667 4.94008)
(57.2319 3.92727 4.97623)
(62.1696 -2.85272 -1.61589)
(61.1025 -1.86469 0.119769)
(59.4609 -1.27311 1.40623)
(57.6361 -1.1628 1.80191)
(56.0468 -1.15305 1.44091)
(55.0202 -0.770372 0.868966)
(54.8493 0.147217 0.551999)
(55.7679 1.33305 0.571935)
(57.7286 2.31939 0.774506)
(60.2066 2.77478 1.11372)
(62.2992 2.70339 1.74537)
(63.176 2.42137 2.74158)
(62.5672 2.34824 3.8237)
(60.8925 2.71125 4.56865)
(59.0007 3.3586 4.83981)
(57.6695 3.89198 4.83359)
(62.3433 -2.97356 -1.21185)
(61.2146 -1.95951 0.422111)
(59.5156 -1.4204 1.61352)
(57.7214 -1.39695 1.92825)
(56.2676 -1.4292 1.54193)
(55.4079 -0.990075 1.03981)
(55.3548 0.0737356 0.86327)
(56.3346 1.43953 0.99913)
(58.3482 2.58195 1.2069)
(60.9066 3.13278 1.4419)
(63.086 3.07707 1.93415)
(63.9951 2.73078 2.82028)
(63.3252 2.54066 3.82314)
(61.5192 2.77849 4.48919)
(59.4917 3.32309 4.68372)
(58.0679 3.78413 4.63952)
(62.4257 -3.01977 -0.853223)
(61.2269 -1.99775 0.684115)
(59.4737 -1.52505 1.78245)
(57.7249 -1.59578 2.01712)
(56.4292 -1.6758 1.60401)
(55.756 -1.19277 1.16576)
(55.8276 -0.00696887 1.12018)
(56.8598 1.50754 1.36261)
(58.9049 2.77996 1.57075)
(61.5171 3.415 1.70408)
(63.7628 3.37863 2.06453)
(64.6984 2.97908 2.84797)
(63.977 2.68168 3.77645)
(62.0593 2.79869 4.3682)
(59.9177 3.24062 4.492)
(58.4169 3.62884 4.41465)
(62.4448 -3.0135 -0.541516)
(61.1735 -1.99594 0.907535)
(59.37 -1.59653 1.91875)
(57.6746 -1.76228 2.07768)
(56.5455 -1.89096 1.63736)
(56.0633 -1.37323 1.25587)
(56.2568 -0.0864652 1.32947)
(57.3305 1.54883 1.66776)
(59.3897 2.9272 1.87266)
(62.0349 3.63483 1.90954)
(64.3305 3.61936 2.14819)
(65.2887 3.17577 2.83785)
(64.5256 2.78133 3.69796)
(62.5149 2.78466 4.2212)
(60.2789 3.12763 4.28084)
(58.7155 3.44573 4.17521)
(61.9082 0.564392 1.67)
(61.5882 1.13084 1.55308)
(61.289 1.68013 1.40866)
(61.033 2.21004 1.23508)
(60.8376 2.71516 1.0336)
(60.7132 3.18678 0.808754)
(60.6622 3.6136 0.568119)
(60.6793 3.98289 0.321419)
(60.7522 4.2821 0.0796994)
(60.8637 4.50011 -0.145879)
(60.9942 4.62813 -0.344991)
(61.1249 4.66046 -0.509227)
(61.2401 4.59488 -0.632824)
(61.3296 4.43249 -0.713605)
(61.389 4.17789 -0.753413)
(61.4201 3.83851 -0.758293)
(62.7128 0.635528 1.27815)
(62.4307 1.27686 1.10441)
(62.1436 1.90307 0.893788)
(61.8787 2.51355 0.64321)
(61.6589 3.10195 0.355118)
(61.4993 3.65618 0.0379259)
(61.4047 4.15934 -0.294526)
(61.369 4.59225 -0.624739)
(61.3756 4.9367 -0.933499)
(61.4014 5.17719 -1.20211)
(61.4208 5.30271 -1.41416)
(61.4112 5.30735 -1.5574)
(61.3578 5.19031 -1.62508)
(61.2559 4.95544 -1.61738)
(61.1126 4.61106 -1.54212)
(60.9442 4.16963 -1.41484)
(63.471 0.66467 0.821843)
(63.2652 1.35973 0.582432)
(63.0234 2.04295 0.294237)
(62.7745 2.71679 -0.0482847)
(62.5461 3.37452 -0.441706)
(62.359 3.99954 -0.872466)
(62.2218 4.5678 -1.31818)
(62.129 5.05283 -1.7507)
(62.0606 5.4304 -2.14)
(61.987 5.6818 -2.45756)
(61.8757 5.79588 -2.67914)
(61.6997 5.76805 -2.78745)
(61.4455 5.60018 -2.77453)
(61.1167 5.2992 -2.64376)
(60.7354 4.87738 -2.41148)
(60.3375 4.35188 -2.10705)
(64.11 0.662904 0.331386)
(64.0049 1.39056 0.0264973)
(63.8304 2.1118 -0.340733)
(63.6137 2.83363 -0.780448)
(63.3861 3.54816 -1.28894)
(63.1749 4.2321 -1.84691)
(62.9953 4.85186 -2.42151)
(62.8447 5.372 -2.97183)
(62.7015 5.76318 -3.45486)
(62.5301 6.00645 -3.8304)
(62.2901 6.09334 -4.06468)
(61.9484 6.02394 -4.13358)
(61.491 5.8038 -4.02628)
(60.93 5.44345 -3.74867)
(60.3044 4.95891 -3.32685)
(59.6723 4.37197 -2.80745)
(64.5632 0.63752 -0.16036)
(64.5615 1.37826 -0.51881)
(64.459 2.1222 -0.953208)
(64.2782 2.88176 -1.48133)
(64.0526 3.64581 -2.10128)
(63.8168 4.38017 -2.78797)
(63.5946 5.03739 -3.49718)
(63.3897 5.57192 -4.17412)
(63.1821 5.95091 -4.76183)
(62.9316 6.15934 -5.20753)
(62.589 6.19698 -5.46629)
(62.1126 6.07135 -5.50484)
(61.4842 5.79363 -5.30614)
(60.7214 5.37821 -4.87575)
(59.8786 4.84526 -4.24828)
(59.0361 4.22174 -3.48952)
(64.7857 0.582023 -0.666969)
(64.8707 1.31809 -1.05536)
(64.8279 2.07625 -1.53169)
(64.6741 2.87521 -2.12759)
(64.4437 3.69534 -2.8465)
(64.1784 4.4828 -3.6586)
(63.9119 5.16852 -4.50749)
(63.6577 5.69342 -5.32332)
(63.402 6.02475 -6.0343)
(63.1035 6.15847 -6.57394)
(62.7047 6.10977 -6.88356)
(62.1499 5.89897 -6.91611)
(61.4098 5.54496 -6.64297)
(60.5012 5.0676 -6.06363)
(59.4899 4.49369 -5.21715)
(58.4769 3.85814 -4.18883)
(64.6608 0.473091 -1.14809)
(64.771 1.18615 -1.51861)
(64.7402 1.95785 -1.98186)
(64.5831 2.81225 -2.59289)
(64.3345 3.71176 -3.36729)
(64.0386 4.56792 -4.27361)
(63.7351 5.27843 -5.24467)
(63.4478 5.76736 -6.19683)
(63.1753 6.00737 -7.04456)
(62.8845 6.01523 -7.70703)
(62.5123 5.83034 -8.10859)
(61.9853 5.4915 -8.18333)
(61.2516 5.02853 -7.88356)
(60.3139 4.47055 -7.19457)
(59.241 3.85752 -6.15121)
(58.1468 3.2375 -4.85303)
(64.1545 0.279132 -1.55322)
(64.1884 0.95313 -1.84402)
(64.0916 1.74757 -2.21789)
(63.8875 2.68834 -2.76377)
(63.6117 3.70612 -3.51725)
(63.3005 4.66067 -4.45114)
(62.9857 5.40435 -5.49316)
(62.6943 5.84275 -6.55096)
(62.4432 5.95965 -7.52924)
(62.2209 5.80056 -8.3327)
(61.9711 5.43505 -8.86578)
(61.6017 4.92422 -9.03889)
(61.0257 4.3125 -8.78147)
(60.2154 3.6451 -8.05785)
(59.2273 2.98539 -6.88871)
(58.1772 2.40228 -5.37555)
(63.3075 -0.044534 -1.90403)
(63.1518 0.572871 -2.05569)
(62.9044 1.40728 -2.2613)
(62.6149 2.48036 -2.65333)
(62.32 3.67347 -3.29488)
(62.031 4.77413 -4.17085)
(61.748 5.5766 -5.21313)
(61.4873 5.96716 -6.33)
(61.2879 5.94613 -7.42053)
(61.1787 5.59193 -8.37316)
(61.1295 5.00663 -9.06642)
(61.0343 4.27635 -9.38373)
(60.7589 3.46584 -9.23203)
(60.2256 2.64725 -8.55453)
(59.4628 1.9217 -7.34851)
(58.5757 1.38889 -5.70114)
(62.192 -0.537421 -2.23782)
(61.744 0.000351586 -2.20542)
(61.2757 0.894005 -2.17646)
(60.8835 2.15326 -2.33329)
(60.6023 3.5898 -2.77056)
(60.3956 4.89705 -3.49316)
(60.2024 5.79863 -4.45054)
(60.0096 6.16208 -5.56532)
(59.8805 6.00837 -6.73645)
(59.9045 5.4479 -7.83036)
(60.1012 4.61293 -8.69025)
(60.3605 3.61725 -9.17074)
(60.4905 2.55475 -9.16485)
(60.3465 1.53859 -8.60291)
(59.9153 0.724593 -7.45382)
(59.2807 0.252224 -5.77093)
(60.9019 -1.21772 -2.58828)
(60.092 -0.790202 -2.34983)
(59.3647 0.176542 -2.04715)
(58.8818 1.67296 -1.91194)
(58.6677 3.42088 -2.06796)
(58.6128 4.99767 -2.54446)
(58.5703 6.04591 -3.32494)
(58.4815 6.41665 -4.36594)
(58.4336 6.15439 -5.57407)
(58.592 5.39494 -6.78428)
(59.0456 4.29306 -7.78936)
(59.6894 2.99429 -8.41432)
(60.2689 1.63412 -8.55731)
(60.5636 0.383045 -8.15585)
(60.5137 -0.532619 -7.14999)
(60.1738 -0.92938 -5.53835)
(59.5459 -2.07009 -2.96753)
(58.3565 -1.7906 -2.52919)
(57.3738 -0.750013 -1.95294)
(56.8358 1.01877 -1.50918)
(56.7428 3.13155 -1.33738)
(56.8937 5.0308 -1.48906)
(57.0471 6.27001 -2.0002)
(57.094 6.68887 -2.88972)
(57.1415 6.35686 -4.08444)
(57.4326 5.42244 -5.37414)
(58.1316 4.05165 -6.47956)
(59.1408 2.42809 -7.19495)
(60.1436 0.745334 -7.45016)
(60.8504 -0.753094 -7.22065)
(61.1637 -1.76046 -6.42523)
(61.1064 -2.05584 -4.98693)
(58.468 -2.85905 -3.2875)
(56.9988 -2.73186 -2.71162)
(55.8384 -1.64363 -1.94472)
(55.2876 0.354885 -1.27152)
(55.3158 2.78641 -0.824186)
(55.6449 4.97336 -0.664564)
(55.9693 6.39322 -0.887829)
(56.1473 6.88154 -1.59329)
(56.2941 6.5273 -2.73836)
(56.7025 5.47664 -4.06432)
(57.5886 3.89578 -5.21271)
(58.8559 2.00662 -5.94753)
(60.1409 0.0646708 -6.24598)
(61.1151 -1.61854 -6.14267)
(61.6671 -2.67212 -5.54896)
(61.7955 -2.85841 -4.31459)
(57.7331 -3.46234 -3.51384)
(56.098 -3.46469 -2.86244)
(54.8373 -2.35606 -1.9917)
(54.2936 -0.197068 -1.18139)
(54.4078 2.46715 -0.54133)
(54.852 4.86831 -0.133691)
(55.2929 6.42817 -0.108)
(55.5766 6.98257 -0.643372)
(55.8162 6.63285 -1.73051)
(56.324 5.5154 -3.06911)
(57.3412 3.79149 -4.22909)
(58.7656 1.71732 -4.94703)
(60.2045 -0.397652 -5.24465)
(61.3156 -2.19097 -5.2165)
(61.9919 -3.25176 -4.77591)
(62.2166 -3.34167 -3.71581)
(57.15 -3.98556 -3.69446)
(55.4087 -4.11207 -3.00013)
(54.0868 -2.99968 -2.07266)
(53.558 -0.713492 -1.17373)
(53.7349 2.14457 -0.379133)
(54.2552 4.72767 0.254674)
(54.782 6.41049 0.52236)
(55.1631 7.03111 0.159082)
(55.5017 6.69959 -0.863723)
(56.1105 5.5374 -2.20587)
(57.2391 3.69914 -3.36589)
(58.7756 1.47649 -4.05101)
(60.306 -0.768711 -4.32604)
(61.4889 -2.632 -4.34781)
(62.2321 -3.67612 -4.03788)
(62.5083 -3.67142 -3.13934)
(56.6947 -4.4268 -3.83155)
(54.8959 -4.66898 -3.1199)
(53.5437 -3.56583 -2.1733)
(53.033 -1.18278 -1.22554)
(53.2487 1.83238 -0.310166)
(53.8084 4.56606 0.526235)
(54.3923 6.354 1.02251)
(54.8609 7.03751 0.826508)
(55.3018 6.73222 -0.13059)
(56.0122 5.54138 -1.47193)
(57.2372 3.61285 -2.62732)
(58.8517 1.27402 -3.27343)
(60.4279 -1.06383 -3.51397)
(61.6352 -2.96383 -3.56635)
(62.4034 -3.97421 -3.36459)
(62.6985 -3.87998 -2.60945)
(56.3432 -4.79135 -3.92999)
(54.524 -5.13907 -3.21994)
(53.1647 -4.05455 -2.28218)
(52.6729 -1.60037 -1.31618)
(52.9064 1.53944 -0.308109)
(53.4747 4.3954 0.70744)
(54.0907 6.27136 1.41499)
(54.6364 7.01292 1.37686)
(55.1794 6.73781 0.483617)
(55.9899 5.53 -0.855339)
(57.2992 3.53062 -2.00541)
(58.9673 1.10291 -2.61249)
(60.5572 -1.29674 -2.81345)
(61.7566 -3.20783 -2.88258)
(62.5211 -4.17364 -2.76872)
(62.8129 -3.99709 -2.13749)
(56.074 -5.08813 -3.99577)
(54.2611 -5.53071 -3.30036)
(52.9115 -4.47094 -2.39106)
(52.4379 -1.96644 -1.42906)
(52.6726 1.27064 -0.350875)
(53.2255 4.22457 0.821669)
(53.8535 6.17335 1.72118)
(54.4661 6.9671 1.82888)
(55.1079 6.72382 0.995523)
(56.0149 5.50699 -0.340996)
(57.3985 3.45241 -1.48712)
(59.1025 0.957968 -2.05831)
(60.6853 -1.47935 -2.2191)
(61.856 -3.38303 -2.29539)
(62.5984 -4.29845 -2.25215)
(62.8728 -4.0476 -1.72606)
(55.7816 -4.99643 0.407622)
(56.2763 -5.13301 0.468552)
(56.8875 -5.20604 0.604781)
(57.5733 -5.2113 0.802905)
(58.289 -5.14405 1.04456)
(58.9916 -5.0005 1.30863)
(59.6442 -4.77753 1.57359)
(60.2188 -4.47427 1.81911)
(60.6983 -4.09246 2.02805)
(61.0772 -3.63722 2.18752)
(61.3607 -3.11751 2.289)
(61.5633 -2.54561 2.32812)
(61.7057 -1.93629 2.30353)
(61.8122 -1.30539 2.21546)
(61.9065 -0.668202 2.06456)
(62.0092 -0.037938 1.85091)
(55.2845 -5.07473 -0.0616109)
(55.7499 -5.28885 -0.0265632)
(56.3958 -5.4387 0.120257)
(57.1716 -5.51846 0.363033)
(58.0182 -5.52025 0.675796)
(58.8757 -5.43476 1.02573)
(59.6903 -5.2531 1.37754)
(60.4196 -4.96872 1.69814)
(61.0363 -4.57983 1.96036)
(61.5293 -4.09074 2.14549)
(61.9025 -3.51278 2.24425)
(62.1731 -2.86423 2.25518)
(62.3669 -2.16804 2.18235)
(62.5135 -1.44929 2.03237)
(62.6414 -0.731415 1.8113)
(62.7723 -0.0329824 1.52318)
(54.8743 -5.11518 -0.537301)
(55.2435 -5.39045 -0.549892)
(55.8591 -5.60598 -0.41002)
(56.6662 -5.75727 -0.131665)
(57.5942 -5.83355 0.252602)
(58.5681 -5.81852 0.696287)
(59.5187 -5.69452 1.14616)
(60.3902 -5.4463 1.5512)
(61.1445 -5.06513 1.87053)
(61.7632 -4.55242 2.07854)
(62.2465 -3.92147 2.16597)
(62.611 -3.19729 2.13716)
(62.8845 -2.41356 2.00492)
(63.0996 -1.60742 1.78501)
(63.2857 -0.812721 1.49082)
(63.4633 -0.054326 1.1312)
(54.592 -5.12529 -0.981204)
(54.8022 -5.43464 -1.06691)
(55.3216 -5.69372 -0.959877)
(56.0949 -5.9034 -0.665476)
(57.0442 -6.05144 -0.218358)
(58.0827 -6.11417 0.32112)
(59.1295 -6.06225 0.877373)
(60.118 -5.8676 1.37549)
(61.0006 -5.51103 1.75608)
(61.7499 -4.98802 1.98479)
(62.3591 -4.31266 2.05379)
(62.8397 -3.51742 1.97648)
(63.2175 -2.64883 1.77779)
(63.5237 -1.75916 1.48481)
(63.7864 -0.895239 1.1201)
(64.0216 -0.088783 0.698002)
(54.4667 -5.10961 -1.35249)
(54.4687 -5.41683 -1.53718)
(54.8353 -5.68693 -1.49653)
(55.5154 -5.93157 -1.21712)
(56.4261 -6.13977 -0.727283)
(57.4735 -6.28049 -0.0984733)
(58.5695 -6.31097 0.568023)
(59.6415 -6.18687 1.16642)
(60.6345 -5.87396 1.61263)
(61.5116 -5.35827 1.86131)
(62.2542 -4.65216 1.9078)
(62.8637 -3.79568 1.77764)
(63.3584 -2.85018 1.51045)
(63.7655 -1.88598 1.14659)
(64.109 -0.965304 0.718805)
(64.3989 -0.127279 0.248519)
(54.5243 -5.06553 -1.63142)
(54.2642 -5.32155 -1.94953)
(54.4189 -5.55789 -2.02552)
(54.945 -5.80347 -1.81109)
(55.7571 -6.05302 -1.3126)
(56.7563 -6.2697 -0.605599)
(57.853 -6.3955 0.178553)
(58.9745 -6.36562 0.891763)
(60.0622 -6.12459 1.41479)
(61.0672 -5.6424 1.68702)
(61.953 -4.92569 1.70895)
(62.7026 -4.02149 1.52232)
(63.3211 -3.009 1.18435)
(63.8285 -1.98134 0.750416)
(64.2436 -1.02025 0.265983)
(64.5693 -0.17283 -0.237155)
(54.8088 -4.98626 -1.73872)
(54.2573 -5.12645 -2.21751)
(54.1609 -5.2676 -2.47112)
(54.4878 -5.4628 -2.39542)
(55.1508 -5.71723 -1.94948)
(56.0481 -5.99174 -1.1973)
(57.0943 -6.21503 -0.301474)
(58.2246 -6.29985 0.535019)
(59.3814 -6.16364 1.14492)
(60.5019 -5.75208 1.44751)
(61.5235 -5.05984 1.45027)
(62.4021 -4.13828 1.21345)
(63.124 -3.0865 0.811622)
(63.7003 -2.02464 0.314512)
(64.1448 -1.05742 -0.21634)
(64.4552 -0.238911 -0.731739)
(55.2931 -4.86858 -1.62268)
(54.475 -4.83318 -2.25967)
(54.1352 -4.82224 -2.73511)
(54.258 -4.91461 -2.8723)
(54.7562 -5.12753 -2.55458)
(55.526 -5.42403 -1.81152)
(56.4895 -5.72537 -0.831658)
(57.5953 -5.92568 0.118656)
(58.7902 -5.91426 0.815401)
(59.9959 -5.60791 1.15569)
(61.1182 -4.98302 1.15498)
(62.0812 -4.09139 0.888977)
(62.8517 -3.05026 0.441903)
(63.4329 -2.00681 -0.10695)
(63.8356 -1.08798 -0.675753)
(64.0533 -0.350906 -1.18705)
(55.9383 -4.698 -1.29839)
(54.9022 -4.43534 -2.07081)
(54.345 -4.22693 -2.79643)
(54.276 -4.17517 -3.21372)
(54.6135 -4.30637 -3.10088)
(55.254 -4.58708 -2.42566)
(56.1272 -4.93729 -1.39466)
(57.1947 -5.23912 -0.345462)
(58.4053 -5.35771 0.434324)
(59.6614 -5.18131 0.821067)
(60.8357 -4.66525 0.839491)
(61.8225 -3.8579 0.572663)
(62.5741 -2.89082 0.099808)
(63.0886 -1.9352 -0.497683)
(63.3718 -1.13571 -1.11031)
(63.4132 -0.545309 -1.61551)
(56.7104 -4.44829 -0.819735)
(55.5189 -3.91921 -1.68753)
(54.7734 -3.48712 -2.67209)
(54.5227 -3.27211 -3.42079)
(54.7069 -3.30044 -3.57959)
(55.231 -3.53735 -3.02527)
(56.0297 -3.9041 -1.97285)
(57.0664 -4.27969 -0.839586)
(58.2798 -4.51497 0.0177481)
(59.5465 -4.47613 0.460528)
(60.7102 -4.10013 0.525756)
(61.6495 -3.42971 0.290681)
(62.3143 -2.60654 -0.19139)
(62.7003 -1.81929 -0.846978)
(62.801 -1.22219 -1.52676)
(62.5953 -0.853375 -2.0402)
(57.5854 -4.08241 -0.273922)
(56.3066 -3.26636 -1.18395)
(55.392 -2.61224 -2.41481)
(54.9508 -2.24832 -3.52385)
(54.9759 -2.18267 -4.00263)
(55.4007 -2.36542 -3.60839)
(56.1606 -2.71851 -2.55421)
(57.1956 -3.12832 -1.34668)
(58.4063 -3.44698 -0.416474)
(59.6333 -3.53263 0.0926545)
(60.7064 -3.31101 0.234799)
(61.5179 -2.82007 0.0657764)
(62.0374 -2.20655 -0.413808)
(62.2594 -1.66839 -1.14842)
(62.1497 -1.35874 -1.93241)
(61.6602 -1.28852 -2.48024)
(58.5438 -3.55938 0.233092)
(57.2461 -2.46217 -0.657697)
(56.1669 -1.62477 -2.10149)
(55.4999 -1.16724 -3.57318)
(55.3386 -1.05112 -4.39543)
(55.6799 -1.18822 -4.18105)
(56.4546 -1.49792 -3.13154)
(57.5367 -1.88973 -1.85237)
(58.7416 -2.23952 -0.852124)
(59.8601 -2.41642 -0.267121)
(60.7381 -2.34605 -0.0183982)
(61.3298 -2.06244 -0.0885654)
(61.6582 -1.71102 -0.558133)
(61.7166 -1.48985 -1.39814)
(61.4186 -1.54103 -2.32619)
(60.6631 -1.83728 -2.93647)
(59.3718 -2.99208 0.546124)
(58.1089 -1.69199 -0.281873)
(56.8914 -0.762403 -1.86302)
(55.9987 -0.298694 -3.614)
(55.6514 -0.195169 -4.71408)
(55.9363 -0.309474 -4.64543)
(56.7754 -0.557411 -3.5949)
(57.9436 -0.884948 -2.25481)
(59.1385 -1.20955 -1.19912)
(60.0989 -1.42601 -0.547457)
(60.7173 -1.4682 -0.192843)
(61.0494 -1.36528 -0.160772)
(61.1941 -1.25389 -0.618053)
(61.1444 -1.32546 -1.56112)
(60.7486 -1.70895 -2.62891)
(59.8347 -2.34157 -3.30493)
(59.9914 -2.49174 0.687995)
(58.7826 -1.06996 -0.0690186)
(57.4612 -0.119517 -1.7262)
(56.3763 0.296099 -3.66343)
(55.8707 0.352093 -4.95432)
(56.1229 0.245398 -4.98313)
(57.0451 0.06215 -3.92458)
(58.3075 -0.184278 -2.53726)
(59.4887 -0.456885 -1.44296)
(60.2838 -0.679665 -0.742241)
(60.6434 -0.796117 -0.302351)
(60.7326 -0.828347 -0.185447)
(60.7279 -0.899672 -0.631222)
(60.6237 -1.19367 -1.65502)
(60.2067 -1.83033 -2.82999)
(59.2332 -2.72106 -3.55688)
(60.5298 -2.00022 0.73962)
(59.3877 -0.496866 0.0590733)
(57.9757 0.433183 -1.64643)
(56.7061 0.765668 -3.72899)
(56.0482 0.751869 -5.1712)
(56.2799 0.646616 -5.27307)
(57.3022 0.535933 -4.20036)
(58.669 0.38637 -2.77025)
(59.8317 0.18342 -1.6449)