/*--------------------------------*- C++ -*----------------------------------*\
  =========                 |
  \\      /  F ield         | OpenFOAM: The Open Source CFD Toolbox
   \\    /   O peration     | Website:  https://openfoam.org
    \\  /    A nd           | Version:  7
     \\/     M anipulation  |
\*---------------------------------------------------------------------------*/
FoamFile
{
    version     2.0;
    format      ascii;
    class       volScalarField;
    location    "0.1";
    object      alphat;
}
// * * * * * * * * * * * * * * * * * * * * * * * * * * * * * * * * * * * * * //

dimensions      [1 -1 -1 0 0 0 0];

internalField   nonuniform List<scalar> 
815
(
0.000209634926911
0.000207787709118
0.000206378048806
0.000191603559914
0.000191822110225
0.000192053368778
0.000234651693315
0.000234677707663
0.000235459210351
0.000269469750499
0.000270025567111
0.000270667614935
0.000284815203534
0.000284615214738
0.000284894105425
0.000274399424237
0.000274409514484
0.000274513908872
0.000245313490565
0.000244904556767
0.000244975209542
0.000215913703962
0.000215960710441
0.000215923136738
0.000212271076613
0.000212001300718
0.000211753730474
0.000225957445917
0.000225954273513
0.000225583371692
0.000239741967514
0.000239541436495
0.000239104905647
0.000244152329878
0.000244003599499
0.000243605802126
0.00024095809494
0.000240925005277
0.000240566604332
0.000234051821802
0.0002337872487
0.000233454223846
0.000226180393642
0.000226139274056
0.000225890389075
0.000222476332072
0.00022222840898
0.00022196693729
0.000224478774403
0.000224350123516
0.000224138882035
0.000233758068543
0.00023365826422
0.000233461953442
0.000249189082455
0.000249113428955
0.000248928825658
0.000268760573012
0.000268699160093
0.000268504173051
0.000290024133071
0.000290039650149
0.000289836149361
0.000311938440006
0.00031171849804
0.000311390808787
0.000332124900013
0.000332008283686
0.000331614277639
0.000350992634044
0.000350634228063
0.000350077736538
0.000366732322489
0.000366410475453
0.000365771630668
0.000377978217481
0.0003776405943
0.000376945664903
0.000378217921493
0.000377869822394
0.00037717843437
0.000346696045518
0.000346355638119
0.000345813681787
0.00025169829978
0.000251457368563
0.000251275911946
0.00014107991403
0.000140889400646
0.000140903495949
0.000110466990383
0.000110430145461
0.000110387064201
0.000204109236154
0.000192619145487
0.000236380535168
0.000271807578451
0.000285244262911
0.00027486012095
0.000245056558336
0.000216099770059
0.000211485762834
0.000225273847648
0.000238623745087
0.000243220875191
0.000240254963677
0.000233151151218
0.000225716423229
0.000221772658303
0.000224015182878
0.000233382677802
0.000248890226615
0.000268489753667
0.000289856382074
0.000311285985122
0.000331474053908
0.000349765766373
0.000365385500533
0.000376517247603
0.000376796076647
0.000345675121369
0.000251529727063
0.000141116400304
0.000110377484865
8.28651996912e-05
9.53234453584e-05
9.02938738987e-05
7.64982077771e-05
0.00012210279182
0.000265550622123
0.000250389541285
0.00020050804443
0.000194151041135
0.000186660712605
0.000178760762772
0.000170072033775
0.000159103382361
0.000146592862087
0.000131313729428
0.000111100918483
9.05172241051e-05
7.55589465132e-05
6.88218636893e-05
7.03822126912e-05
7.98463601942e-05
9.18400949831e-05
8.52140635546e-05
8.30764366085e-05
0.000151275994369
0.000293031506427
0.00024696152929
0.000193725146083
0.000195265281304
0.000196981120106
0.000198125512045
0.000196171777141
0.000187097262418
0.000167822698507
0.000140228661877
0.000112202847622
9.13837727801e-05
7.91998217175e-05
7.41536326855e-05
7.46621563971e-05
8.00970900788e-05
8.65518674762e-05
8.16953149806e-05
0.000102449005804
0.00019733121887
0.00031519798161
0.000237725904442
0.000238524267817
0.000241724442391
0.000243955840912
0.000242984407658
0.00023554509526
0.000219007953371
0.000192913263995
0.00016159231053
0.000133093737589
0.000111953213377
9.77210878165e-05
8.90273180512e-05
8.48501423877e-05
8.42523425077e-05
8.56500460495e-05
8.88633586268e-05
0.000132247799679
0.000229958777577
0.00030340459181
0.000224745872789
0.000273561970788
0.000275792960794
0.000276348974757
0.000273112263745
0.000263722382402
0.000246604297565
0.000221998624295
0.000193377442045
0.000166019930071
0.000143391723909
0.000125663872146
0.000112221353372
0.000102771013452
9.68667896293e-05
9.5028449654e-05
0.000106780188667
0.0001539123328
0.000218683229905
0.000252188130505
0.00020876617189
0.000286036041032
0.00028708579275
0.000286773640792
0.000283735692142
0.000276369598899
0.000263519164606
0.000244963888968
0.000222271444357
0.000198602934741
0.000176784265318
0.000157653252159
0.000141412840549
0.000128341594071
0.000118639577511
0.000113919429937
0.000125171814749
0.000152444040655
0.000174501386851
0.000187728494384
0.000190183576781
0.000275384408628
0.000276381420415
0.000276750041223
0.000275754984257
0.000272215905139
0.000265246081502
0.00025422133071
0.000239441849008
0.000222177718409
0.000203972012914
0.000185983531593
0.000169237977703
0.000154667178236
0.000142975443501
0.00013533454945
0.000138170988003
0.000144907981521
0.000143058004648
0.000143788304816
0.000172006190775
0.000245522211078
0.00024679805328
0.000248054300702
0.000248979177471
0.000248826847617
0.000246813253601
0.000242103776238
0.000234403321568
0.000224016645382
0.000211674985157
0.000198256461593
0.000184432281342
0.000171221770568
0.000159750218083
0.000151541477534
0.000148894087603
0.000147146272374
0.000136656144177
0.000125666759091
0.000159525579436
0.00021634925222
0.000217178203378
0.000218104368453
0.000218924664624
0.000219094712176
0.000218008895464
0.000214958510766
0.000209574679674
0.000202099665713
0.000193428812167
0.000184500509714
0.000175837170806
0.000167861172222
0.000160962358787
0.000155975096126
0.000154144860764
0.000152249406784
0.000139501052283
0.000121106814912
0.000155245975043
0.000211112600527
0.000210729092235
0.00021012326007
0.00020906319567
0.000207015654138
0.000203440516915
0.000197777649396
0.000189877722934
0.000180251897125
0.000170182866308
0.00016117844759
0.000154384749991
0.000150122665384
0.000148244461412
0.000148742398593
0.000151570557513
0.000152657204954
0.000139445233712
0.000120012136187
0.000157329576125
0.000224493887009
0.000222964719952
0.000220714449388
0.000217480414276
0.000212745450965
0.000206053805738
0.000197053852415
0.000185870189567
0.000173282322881
0.000160739837015
0.000149882890394
0.000141944575876
0.000137488700301
0.000136724442724
0.000139675299073
0.0001451112873
0.000147516196435
0.000134534576402
0.000120664022652
0.000161383594341
0.000237679139317
0.000235692352061
0.000232751223255
0.000228577725984
0.000222717867732
0.000214806015655
0.000204665402208
0.000192560913872
0.000179299005067
0.000166145780004
0.000154446267658
0.00014523521321
0.000139138122329
0.000136540030449
0.000137451910289
0.00014061284839
0.000140928374453
0.000129902770482
0.000125336836181
0.000163606652375
0.000242383615127
0.000240528058373
0.000237797270129
0.000233956321591
0.000228658704196
0.000221666760521
0.000212932421069
0.000202724293576
0.000191634726068
0.00018046839378
0.00016999306718
0.000160806437265
0.00015341946496
0.000148258875441
0.000145489535266
0.000144193948061
0.000141129056921
0.000132791735005
0.000135446995596
0.000163681942742
0.000239579685522
0.000238147106514
0.000236111642362
0.000233317768208
0.000229556702966
0.000224736070701
0.000218905588089
0.000212277993194
0.000205164138907
0.000197870591257
0.000190596875893
0.000183478480309
0.000176680424171
0.000170494983735
0.00016518723805
0.000160441714565
0.000154851514184
0.000148529830884
0.0001513110401
0.000161487161824
0.000232662210855
0.000231725160669
0.000230510670216
0.000228992614211
0.00022714283866
0.000225036314859
0.000222821310816
0.000220650398863
0.000218559724896
0.000216394857205
0.000213840714861
0.00021059647945
0.00020651537485
0.000201733475178
0.000196573468024
0.000190989777536
0.0001846601854
0.000178510026109
0.000173210314935
0.00015604610143
0.000225409781263
0.000224904645152
0.000224446406089
0.000224167761685
0.000224264393628
0.000225022509402
0.000226704736904
0.000229408688413
0.000232913450532
0.000236648075684
0.000239844528021
0.000241815955984
0.000242191950225
0.000240979924154
0.000238352573023
0.000234302196013
0.000228395602221
0.000219653792994
0.000201133012232
0.00015568733747
0.000221574240381
0.000221421554731
0.000221639220575
0.00022255105453
0.000224609773519
0.000228360361807
0.000234221243908
0.000242229558474
0.000251867968214
0.000262112389697
0.000271717021084
0.000279630831899
0.00028528363288
0.000288571760958
0.000289438764533
0.000287540535565
0.000281511884389
0.000267396188778
0.0002336491996
0.000163171336091
0.000223932152439
0.000224099713356
0.000224979703671
0.000227126813177
0.000231298736389
0.000238344407807
0.000248871879038
0.000262850563123
0.000279395112381
0.000296928777848
0.000313637944413
0.000328001130383
0.000339117775914
0.000346652471172
0.000350314434636
0.000349223133862
0.00034090205259
0.000319039226915
0.000269893375863
0.000180419364859
0.00023340963876
0.000233908103253
0.000235493193115
0.000238986005188
0.000245493085081
0.000256213844561
0.000271966823499
0.000292632979084
0.000316897758164
0.000342553539079
0.000367150514437
0.000388589208762
0.000405473547353
0.00041698903254
0.00042238369947
0.000420319005728
0.000407430381645
0.000376342447139
0.000313072178127
0.000211129494247
0.000249028191124
0.000249862527824
0.000252169031906
0.000257049248666
0.000265980687833
0.000280547981061
0.000301812347391
0.000329579575174
0.000362113502511
0.000396591782977
0.000429943362128
0.000459476734086
0.000483165306957
0.000499544671238
0.000507190237423
0.000504091364753
0.000486431029289
0.000446419197753
0.00037043670565
0.000259193808049
0.000268709306571
0.000269813881601
0.000272726677788
0.000278810695715
0.000289908527619
0.000308031300439
0.00033457511441
0.000369394056058
0.000410461700884
0.000454459102772
0.00049777242754
0.000537136107388
0.000569868310809
0.00059374657078
0.000606538683796
0.000605357387822
0.000585536815854
0.000538796037106
0.000451460203263
0.000325744487261
0.000290132516727
0.000291371650211
0.000294626348855
0.0003014778756
0.00031411193006
0.000335027904466
0.000366142228164
0.000407624509243
0.00045741451506
0.000511877622618
0.000566933315983
0.000618758773521
0.000664015030412
0.000699671459391
0.000722559771168
0.000728574938945
0.000711518100136
0.00066101345176
0.00056059047806
0.000408866706031
0.000311481458753
0.000312649344898
0.000315894112506
0.000322937431924
0.000336270387115
0.000358959245915
0.000393701781572
0.000441369446805
0.000500207502876
0.000566453711994
0.000635600721647
0.000703242074108
0.000765331704498
0.000817964671865
0.000856798826042
0.000876081546446
0.000867127500914
0.000815403173458
0.000697683109322
0.000502456440065
0.000331553670563
0.000332468854461
0.000335371370604
0.000342049361757
0.000355253177022
0.000378696387338
0.000416159140917
0.000469676120389
0.000538181488364
0.000617919707979
0.000703922688184
0.000791095986298
0.000874542504999
0.000949257587388
0.00100938265896
0.00104694761838
0.00104970400522
0.000997150300031
0.000855607366188
0.000599182584611
0.00034964440827
0.000350189229636
0.000352519781014
0.00035843254179
0.000370880671959
0.000394290390158
0.000433824286469
0.000493178267491
0.00057233502417
0.000667594727083
0.000773379738773
0.000883689482874
0.000992487020631
0.00109327429346
0.00117815586109
0.00123624573952
0.00125093272214
0.0011947962463
0.00102233869398
0.000692301581505
0.000365095485218
0.000365250590042
0.000366954969173
0.000371954492846
0.000383365660276
0.000406374723655
0.000447815767305
0.000513502323396
0.000604708545769
0.000717666571992
0.000845931502068
0.000982245926554
0.00111895725003
0.00124750311304
0.0013573161796
0.00143396757736
0.00145615523038
0.00138986334051
0.00117962100707
0.000772445939549
0.000376144492945
0.000376058886326
0.000377311588192
0.000381572514708
0.000392098226331
0.000414880121737
0.00045868385637
0.000531814693098
0.000636800597975
0.000769407160154
0.000921929551951
0.0010853716886
0.00124986511788
0.00140413150206
0.00153435294638
0.00162228708133
0.00164235117915
0.00155642909951
0.00130484820812
0.000828673696617
0.000376525408059
0.000376607333265
0.000377947796104
0.000382079858166
0.000392343863161
0.000415564290584
0.000462663084712
0.000544649989236
0.00066493406828
0.000818106039452
0.000994612000346
0.001183107608
0.00137083957246
0.00154333247125
0.00168337356767
0.00176938445437
0.0017734364504
0.00165749227014
0.00136549850091
0.000844472043385
0.000345894012407
0.000346998000788
0.000349512288731
0.000354568367614
0.000365291845904
0.000389024651111
0.000438940409592
0.000529445517431
0.000664877562548
0.000837436734121
0.00103436105192
0.00124110137076
0.00144173423571
0.00161873289157
0.00175228756572
0.0018191748966
0.00179223197018
0.0016386290113
0.00131744866122
0.000798780007662
0.000252405531134
0.00025488958137
0.000258831557731
0.000264512477149
0.00027395563906
0.000293407053009
0.000336802079982
0.000423957071992
0.000565117075384
0.000750146050295
0.000959314925016
0.00117273798942
0.00137138950682
0.00153582588162
0.00164586091793
0.00167959870393
0.0016151096454
0.00143152636669
0.001114929277
0.000674691875714
0.000141739941089
0.000143452021687
0.000145824906636
0.000148646861744
0.000152517356717
0.000160417538669
0.000180982670941
0.000231735474413
0.000332427432948
0.000485477399423
0.000671423829161
0.000864155848684
0.00103997277871
0.00117783764421
0.00125936164755
0.00126749902577
0.00119027981183
0.00102214927974
0.000775470145415
0.000491594604383
0.000110402043521
0.000110578004381
0.000110711151823
0.00011064705378
0.00011047599795
0.000111134673963
0.000115670653745
0.000130997992146
0.000167315501363
0.000231606485865
0.000320790401702
0.000422815532796
0.000521900078799
0.000602208993806
0.000650301767718
0.000656250913622
0.000615966100874
0.000532820486767
0.000421485166134
0.000318027812749
0.000142612357512
4.22976445406e-05
0.000140066295165
4.10463794371e-05
0.000136615754359
3.9729179757e-05
0.000133113588904
3.87468032439e-05
0.000129962588863
3.84557742558e-05
0.000127798908851
3.9027038812e-05
0.000127633091967
4.04094562964e-05
0.000129130352123
4.23825082006e-05
0.000130874009751
4.46025333587e-05
0.000131976864358
4.69322233622e-05
0.000132081338009
5.01062621798e-05
0.000131661515587
5.57978159737e-05
0.000129848808184
6.8401221087e-05
0.000125335805337
9.97523919467e-05
8.62991023027e-05
5.6413842582e-05
6.35100281568e-05
6.60155319942e-05
5.9473607447e-05
7.15903883914e-05
6.12318346195e-05
7.55199793075e-05
6.61798620247e-05
7.9246523865e-05
7.29137412821e-05
8.3195701516e-05
8.08928905985e-05
8.7367060312e-05
8.99522619404e-05
9.162066948e-05
9.94930124294e-05
9.58018862243e-05
0.000109172577435
9.97675580393e-05
0.000118371023533
0.000103426112442
0.000126395750079
0.000106722644415
0.000132081718367
0.000109638715267
0.000134279770644
0.000112141059564
0.00013239476868
0.000114247055071
0.000128361912972
0.000115925915582
0.000129517554885
0.000117297974359
0.000159627774355
0.000119224946274
)
;

boundaryField
{
    inletfuel
    {
        type            calculated;
        value           nonuniform 0();
    }
    inletair
    {
        type            calculated;
        value           nonuniform 0();
    }
    outlet
    {
        type            calculated;
        value           nonuniform List<scalar> 
26
(
0.00032463584884
0.000324662208556
0.000324718660684
0.000324799126508
0.00032498036954
0.000325373612289
0.000325921017657
0.00032661112226
0.000327409738839
0.000328253624169
0.000329007901958
0.000329429013974
0.000329221497158
0.000328251551006
0.000326560960771
0.000324209389409
0.000321204969574
0.000317530439751
0.000313161518181
0.000308107496431
0.000302438437978
0.000296408456937
0.000290821934053
0.000289220835465
0.000312798886875
0.000334159415589
)
;
    }
    axis
    {
        type            empty;
    }
    leftside
    {
        type            compressible::alphatWallFunction;
        Prt             0.85;
        value           nonuniform List<scalar> 
32
(
0
0
0
0
0
0
0
0
0
0
0
0
0
0
2.63653336862e-08
3.44981607733e-06
5.44448792829e-06
6.71180360996e-06
7.7378027642e-06
8.72886879372e-06
9.75589944854e-06
1.0827137308e-05
1.19194519455e-05
1.29963977483e-05
1.4024809373e-05
1.49775593061e-05
1.58344865571e-05
1.65728269208e-05
1.71878693331e-05
1.76756516459e-05
1.80917899317e-05
1.86875578248e-05
)
;
    }
    burnerwall
    {
        type            compressible::alphatWallFunction;
        Prt             0.85;
        value           nonuniform 0();
    }
    front
    {
        type            wedge;
    }
    back
    {
        type            wedge;
    }
    procBoundary1to0
    {
        type            processor;
        value           nonuniform List<scalar> 
27
(
0.000265446953874
0.0002656356881
0.000264514473813
0.000263260698473
9.13639513439e-05
9.69532680982e-05
8.91895637083e-05
7.42120416833e-05
0.000107582955183
0.000243840391007
0.000248572041079
0.00025954526635
0.000251033223378
0.000238800762689
0.000223493622866
0.000206056679539
0.000186923281187
0.00016659713398
0.000144266486251
0.000121307425685
0.000102854704349
8.73744847374e-05
7.67903241501e-05
7.45620886068e-05
7.45620886068e-05
0.000143582572784
4.33190898224e-05
)
;
    }
}


// ************************************************************************* //
