/*--------------------------------*- C++ -*----------------------------------*\
  =========                 |
  \\      /  F ield         | OpenFOAM: The Open Source CFD Toolbox
   \\    /   O peration     | Website:  https://openfoam.org
    \\  /    A nd           | Version:  7
     \\/     M anipulation  |
\*---------------------------------------------------------------------------*/
FoamFile
{
    version     2.0;
    format      ascii;
    class       volScalarField;
    location    "0.1";
    object      dQ;
}
// * * * * * * * * * * * * * * * * * * * * * * * * * * * * * * * * * * * * * //

dimensions      [1 2 -3 0 0 0 0];

internalField   nonuniform List<scalar> 
815
(
0.00433305498271
0.0130263144966
0.0220437369651
0.00753060153613
0.0227097132474
0.0381986423836
0.00177209800406
0.00525679584087
0.00861372501019
0.000737651386882
0.00219511739786
0.00359813123019
0.000329343747549
0.000977260780241
0.00159916839609
0.000133943203627
0.000398052979949
0.000651869057936
4.7802343241e-05
0.000142010687871
0.000233249738391
1.57379434424e-05
4.6946414786e-05
7.73993472636e-05
6.09898120293e-06
1.81985839559e-05
3.00827795003e-05
3.01874879778e-06
9.02715653115e-06
1.49323299953e-05
1.77787525361e-06
5.31139385017e-06
8.78347377515e-06
1.13638723054e-06
3.39661194327e-06
5.61955877476e-06
7.51287766221e-07
2.24677034431e-06
3.71868571434e-06
4.99331564244e-07
1.49212340491e-06
2.47123558201e-06
3.29782059842e-07
9.86746091908e-07
1.63597153645e-06
2.20287861618e-07
6.58577414173e-07
1.09229249193e-06
1.51868693639e-07
4.54397538199e-07
7.54023172355e-07
1.11875414075e-07
3.34756795396e-07
5.5536923316e-07
8.94619650076e-08
2.67659005688e-07
4.43801000755e-07
7.72305346395e-08
2.31017485374e-07
3.82768454335e-07
7.03690890749e-08
2.10504906024e-07
3.48603924083e-07
6.61148095636e-08
1.97604688937e-07
3.27017195835e-07
6.24927505132e-08
1.86847684481e-07
3.0916960324e-07
5.87742582543e-08
1.7561718916e-07
2.90493793242e-07
5.42828720337e-08
1.62239609791e-07
2.68391794645e-07
4.90761766573e-08
1.46691950344e-07
2.42715724996e-07
4.35834282057e-08
1.30291496957e-07
2.15644591893e-07
3.92672800614e-08
1.17424615218e-07
1.9447622353e-07
3.92545539132e-08
1.17499574063e-07
1.94897791166e-07
4.32678265255e-08
1.29708138207e-07
2.15609162169e-07
4.26147431701e-08
1.28010822041e-07
2.1323598919e-07
0.0269151726833
0.0464292152551
0.0100957880962
0.00422294900491
0.00186980228197
0.000763388160131
0.000274042046094
9.15378257496e-05
3.56889702737e-05
1.77427353533e-05
1.04289503171e-05
6.67755856938e-06
4.42155774491e-06
2.94073481721e-06
1.94962565462e-06
1.30244162477e-06
8.99666304662e-07
6.62517884024e-07
5.29078009822e-07
4.55950739336e-07
4.15018364191e-07
3.89070282508e-07
3.67854091107e-07
3.45606254564e-07
3.19437878433e-07
2.89013270795e-07
2.56914859583e-07
2.3182505256e-07
2.32479026651e-07
2.5748528909e-07
2.55189961313e-07
0.424008045241
0.318013482599
0.183097420106
0.0666968222813
0.0144109661926
0.00170939045755
0.000132723289459
0.104264930917
0.180550614213
0.296770761625
0.480801801897
0.773971248022
1.24979152695
1.06561724423
0.73244175698
0.507773894943
0.369136438792
0.292057430114
0.246539610196
0.214968022423
0.193441163478
0.169208939147
0.107159039717
0.0391719682209
0.00852362492717
0.00100461909904
9.42542468011e-05
0.17321194465
0.223933321529
0.249957470834
0.257902173499
0.252109528414
0.2312255828
0.196334322083
0.158899839335
0.128512895927
0.108587220788
0.0974276752502
0.0911356695783
0.089043326555
0.0912553078438
0.0889542725031
0.0571016747423
0.0193179875176
0.00413874283598
0.000466921286384
6.28885067814e-05
0.0357672695871
0.0516816308992
0.0651102714894
0.0735513363881
0.075283233124
0.0704568196997
0.0614126765535
0.0515227941423
0.0437280350664
0.038997047913
0.0368941468868
0.0367076163587
0.0387674182735
0.0430615562143
0.0449337505569
0.0280259239057
0.00897338947834
0.00197250428514
0.00028189730229
5.03701138405e-05
0.0149663327683
0.0215497586293
0.026987081679
0.0301829427536
0.0305073092647
0.0282617524817
0.0245535098722
0.0208281459802
0.018119266776
0.0166808404674
0.0162720978247
0.0166367884417
0.0179302766284
0.0202157994252
0.0211405203046
0.0125052408782
0.00421624690045
0.00107255983844
0.000220754164311
6.20820141878e-05
0.00659696609951
0.00942389575001
0.0116853496658
0.0129393705557
0.0129899934071
0.0120478243846
0.0106033365293
0.00923234022909
0.00830772279985
0.00790442193768
0.00796811877361
0.00836315947156
0.00906245330531
0.0100199646448
0.0102289248817
0.00606628876345
0.00234126904422
0.000765955963459
0.000257328161844
9.6929659211e-05
0.00269858159216
0.00386611608249
0.00481445255061
0.00537681814661
0.00548281188354
0.00521876135375
0.00476824257488
0.00433365772179
0.00405779408388
0.00399880189295
0.00415634443799
0.00447049911586
0.00488912473179
0.00533908181382
0.00533056701119
0.00340674360905
0.00162535307289
0.000730824783455
0.000363195612803
0.000151551783306
0.000976939544268
0.00142295121743
0.00181429826135
0.00209675255087
0.00224375770154
0.00227122419065
0.00222354466734
0.00215623968273
0.00211780860871
0.00214553675436
0.00225970500002
0.00245037430426
0.00269421596547
0.00293824983548
0.00290933579337
0.00212922995564
0.00127307600136
0.000752591699589
0.000482619309707
0.000213223093735
0.000330155441897
0.000491678721467
0.000647679237199
0.000783174045068
0.000889212288171
0.000965659643803
0.00101901694019
0.00106066928212
0.00110558755112
0.00117022677241
0.00126591784709
0.00139218689761
0.00153728122821
0.0016744301631
0.0016772420984
0.00138989465392
0.00101497791738
0.000737944339455
0.000552834109269
0.000255935361478
0.000129842753718
0.000196915334534
0.000266788289881
0.000334797145854
0.000397643710088
0.000453607859229
0.00050345934225
0.000550015893969
0.000598440170117
0.000654989023202
0.000725000859664
0.00081098320152
0.000910470917677
0.00100728676613
0.00104051239598
0.000957084935628
0.000813937948444
0.0006823390916
0.000557296894798
0.000261321199938
6.47011274818e-05
9.88425041833e-05
0.000135706480897
0.00017353911394
0.000210936712912
0.000247157011153
0.000282518201197
0.000318247539813
0.000356408237432
0.000399454866973
0.000449642937472
0.000508417209784
0.000575866054364
0.000646106540393
0.000694486353748
0.000696298593052
0.000661524244291
0.000607891147048
0.000508481024825
0.000234563314713
3.80426043231e-05
5.82978124667e-05
8.05482301879e-05
0.000103988826088
0.000128001836354
0.000152371786422
0.000177434470373
0.000203933546492
0.000232883857598
0.000265411954169
0.00030268318015
0.000345721867142
0.000394971669246
0.000448163657649
0.000495837420669
0.00052744581909
0.000539174645005
0.000522010937022
0.000427463998356
0.000194716083619
2.43915123845e-05
3.75046841963e-05
5.21158771327e-05
6.78453778425e-05
8.44413216841e-05
0.000101918276388
0.000120599047752
0.0001409913254
0.000163667210792
0.000189210718249
0.000218241657654
0.000251375795613
0.00028906897211
0.000330676870586
0.000372574498678
0.000409479312683
0.000434565423668
0.000426224140008
0.000335729279223
0.00015132674948
1.61781452535e-05
2.49862018393e-05
3.49605738247e-05
4.59461698027e-05
5.78813912837e-05
7.08787501049e-05
8.52307374728e-05
0.000101309909441
0.000119477436234
0.000140056754638
0.000163372525543
0.000189743357077
0.000219382606944
0.00025200415136
0.000285942433358
0.000317987114435
0.000340791331375
0.000331218785907
0.000254255662932
0.000112549132286
1.07878945314e-05
1.67540007993e-05
2.36294623047e-05
3.13838153376e-05
4.00547356459e-05
4.97898043242e-05
6.08409005741e-05
7.3487557877e-05
8.79709091287e-05
0.000104472967114
0.000123144148204
0.000144086774648
0.000167290034349
0.000192415179677
0.00021844042007
0.000242859655443
0.000258783637361
0.000248579679688
0.000189282153989
8.36905406406e-05
7.17121943616e-06
1.11983266205e-05
1.5917287501e-05
2.13561984336e-05
2.75930372956e-05
3.47746671835e-05
4.31036915066e-05
5.27834891735e-05
6.39736987633e-05
7.67747585838e-05
9.12403633864e-05
0.000107351951483
0.000124945724875
0.000143639860693
0.000162614361046
0.0001797211638
0.00018976858444
0.000181061296192
0.000137436124434
6.09608168031e-05
4.80013718038e-06
7.52840364175e-06
1.07675116641e-05
1.45625027475e-05
1.89929221111e-05
2.41800969596e-05
3.02713565967e-05
3.74007775627e-05
4.56626967489e-05
5.51048363611e-05
6.57301232211e-05
7.74683760832e-05
9.01115168195e-05
0.000103274745724
0.00011626918033
0.000127568945271
0.000133556173895
0.000126645563987
9.58871410813e-05
4.29611710239e-05
3.31920445783e-06
5.21733282777e-06
7.48570138897e-06
1.01639671355e-05
1.33137576861e-05
1.70200478145e-05
2.13768071287e-05
2.64611142409e-05
3.23179146995e-05
3.89559487731e-05
4.6346970081e-05
5.43974853445e-05
6.29119766513e-05
7.15656309556e-05
7.9829710857e-05
8.67020383681e-05
8.9855800461e-05
8.43922895282e-05
6.37247815595e-05
2.89001363609e-05
2.44333653291e-06
3.83850947045e-06
5.5029679383e-06
7.46189887238e-06
9.75288986513e-06
1.24255704761e-05
1.55307523723e-05
1.91055993292e-05
2.31634558863e-05
2.76879425003e-05
3.26275740295e-05
3.78800492046e-05
4.32717995488e-05
4.8551897609e-05
5.33445389717e-05
5.69665581843e-05
5.79681598744e-05
5.36101237216e-05
4.03102489835e-05
1.84231468435e-05
1.94849018458e-06
3.05238160573e-06
4.35718321354e-06
5.87197565423e-06
7.61104544106e-06
9.59451662858e-06
1.1842312224e-05
1.43666115804e-05
1.71625468817e-05
2.01992713765e-05
2.34141312732e-05
2.67036214522e-05
2.99223276623e-05
3.28785096724e-05
3.53167017755e-05
3.67996633964e-05
3.64855476737e-05
3.29014458178e-05
2.44575020101e-05
1.12563528117e-05
1.67623718083e-06
2.61595829739e-06
3.71224300898e-06
4.95964646873e-06
6.35237968878e-06
7.88713237562e-06
9.56224412253e-06
1.13745232517e-05
1.33094026843e-05
1.5329742701e-05
1.73713680344e-05
1.93405867543e-05
2.11208634944e-05
2.25747700394e-05
2.3535350546e-05
2.37468363204e-05
2.27664721278e-05
1.99105059434e-05
1.4535185455e-05
6.76142354584e-06
1.52360577397e-06
2.37002966683e-06
3.34539770662e-06
4.43266537361e-06
5.60958747836e-06
6.8540728867e-06
8.14865068027e-06
9.48074876681e-06
1.08320869951e-05
1.21658555071e-05
1.34234180291e-05
1.45271144755e-05
1.53907257979e-05
1.59254916194e-05
1.6033205399e-05
1.55817318947e-05
1.43696043821e-05
1.21281700496e-05
8.66433112699e-06
4.11269031782e-06
1.4271865861e-06
2.2159055237e-06
3.11724996126e-06
4.10603400615e-06
5.14718412557e-06
6.20310352755e-06
7.24360599455e-06
8.25053745481e-06
9.2066742412e-06
1.00803673819e-05
1.08215461391e-05
1.13696474328e-05
1.16667953834e-05
1.16637482286e-05
1.13156617859e-05
1.05701757206e-05
9.3577737373e-06
7.60590897778e-06
5.30696105174e-06
2.58365713051e-06
1.34925200991e-06
2.09417565083e-06
2.94272459416e-06
3.86511950202e-06
4.81709758305e-06
5.74820025228e-06
6.6169515336e-06
7.40211006943e-06
8.0914347394e-06
8.66056137235e-06
9.06730968339e-06
9.26522908113e-06
9.21967281348e-06
8.91225125869e-06
8.33615729252e-06
7.48848443193e-06
6.36739287774e-06
4.98366764633e-06
3.39086912368e-06
1.68888167202e-06
1.26814772115e-06
1.97017862024e-06
2.77097337503e-06
3.6395231401e-06
4.52610937173e-06
5.36995310287e-06
6.1191864719e-06
6.75126766536e-06
7.26221235452e-06
7.63479160106e-06
7.83058276044e-06
7.81218013254e-06
7.56258545191e-06
7.0871921993e-06
6.40611581378e-06
5.54611856976e-06
4.53815719597e-06
3.42381337872e-06
2.26764085839e-06
1.14491371168e-06
1.17313942087e-06
1.82604410421e-06
2.57441845165e-06
3.38883083615e-06
4.21776538571e-06
4.99309216016e-06
5.65373404452e-06
6.17766375516e-06
6.5720286174e-06
6.82440073071e-06
6.89352798948e-06
6.7455773021e-06
6.37752138737e-06
5.81380239311e-06
5.09381809077e-06
4.2619539161e-06
3.36386855403e-06
2.44897990203e-06
1.57575570108e-06
7.972508289e-07
1.06255164691e-06
1.65793311442e-06
2.34508827648e-06
3.09815096107e-06
3.86704627389e-06
4.57959193344e-06
5.16767407692e-06
5.61226774025e-06
5.93349643042e-06
6.11898426233e-06
6.11768203295e-06
5.89631286727e-06
5.46432036192e-06
4.86189833773e-06
4.14222360386e-06
3.35929544084e-06
2.56370456555e-06
1.80325518756e-06
1.1244935641e-06
5.61594246075e-07
9.45616932769e-07
1.47904422603e-06
2.0990098239e-06
2.78412288676e-06
3.48819664703e-06
4.13819856808e-06
4.66114146287e-06
5.04324219593e-06
5.31792186297e-06
5.46724816625e-06
5.42703354056e-06
5.16564283234e-06
4.7051454548e-06
4.0979452687e-06
3.4053564196e-06
2.68478657871e-06
1.98629680876e-06
1.35073679211e-06
8.12098405877e-07
3.92262695748e-07
8.53967704083e-07
1.33734051601e-06
1.90120112713e-06
2.52850855402e-06
3.17831115298e-06
3.77784581591e-06
4.24583697544e-06
4.5674813441e-06
4.78975272515e-06
4.89507285224e-06
4.81449694491e-06
4.52272994973e-06
4.05182992562e-06
3.4604468787e-06
2.81152051328e-06
2.16026005697e-06
1.55149273093e-06
1.01829474834e-06
5.8501087987e-07
2.6481665142e-07
8.56584837803e-07
1.34006462776e-06
1.90327537637e-06
2.53400376824e-06
3.19829591071e-06
3.82100593659e-06
4.28699260705e-06
4.53196844801e-06
4.61510269331e-06
4.57612663654e-06
4.3821696241e-06
4.02014047095e-06
3.52231293329e-06
2.94150051871e-06
2.33333419554e-06
1.74484361925e-06
1.21383907634e-06
7.65004809173e-07
4.14186541271e-07
1.67787512037e-07
9.50403524229e-07
1.49012479192e-06
2.125826095e-06
2.8559724535e-06
3.66337150035e-06
4.48369801652e-06
5.15443414211e-06
5.44471817879e-06
5.30469368441e-06
4.91639808946e-06
4.41688432513e-06
3.84682685884e-06
3.23202189272e-06
2.60272044807e-06
1.99505594447e-06
1.43920100144e-06
9.60984642017e-07
5.74732690362e-07
2.87498112253e-07
9.84499477003e-08
9.46045041183e-07
1.49666463096e-06
2.1640738182e-06
2.96123202407e-06
3.89605577644e-06
4.94737704042e-06
6.01039207898e-06
6.80823847403e-06
6.98354333397e-06
6.48650011715e-06
5.61532799988e-06
4.63967516983e-06
3.69216953521e-06
2.82407681994e-06
2.06134504726e-06
1.41605438226e-06
8.9636984853e-07
5.02265437427e-07
2.2814773667e-07
6.35189874372e-08
8.41072861253e-06
1.79710920495e-06
6.10165432237e-06
1.43231953407e-06
4.60243229006e-06
1.43957112648e-06
4.95081166446e-06
2.14542886031e-06
7.66989973755e-06
3.87920304504e-06
1.2855724954e-05
6.77993771294e-06
1.96644301095e-05
1.03921067329e-05
2.62377399141e-05
1.34081848029e-05
3.00967864573e-05
1.45116517416e-05
2.94870170528e-05
1.33502421236e-05
2.54245670035e-05
1.0927006349e-05
2.01238408267e-05
8.26804148658e-06
1.46184055631e-05
5.82598006282e-06
9.99545648658e-06
3.81649864801e-06
7.8133377338e-06
5.33611036869e-06
5.25504777544e-06
1.52019345741e-06
2.95637142554e-06
5.99780619817e-07
1.67630970451e-06
2.67225414553e-07
9.96446110982e-07
1.39513014344e-07
6.2182447875e-07
8.34449499062e-08
4.06175661011e-07
5.48848921358e-08
2.77571261742e-07
3.8727956334e-08
1.9694304832e-07
2.85687058025e-08
1.43640450529e-07
2.16390730783e-08
1.06509795021e-07
1.65723073186e-08
7.90723501323e-08
1.26094082566e-08
5.75943918513e-08
9.30334400926e-09
3.99317823774e-08
6.43911184637e-09
2.52143877238e-08
4.00081734916e-09
1.36653729537e-08
2.13101103307e-09
6.1193900938e-09
9.72039633314e-10
2.68216799091e-09
4.7932028646e-10
)
;

boundaryField
{
    inletfuel
    {
        type            zeroGradient;
    }
    inletair
    {
        type            zeroGradient;
    }
    outlet
    {
        type            zeroGradient;
    }
    axis
    {
        type            empty;
    }
    leftside
    {
        type            zeroGradient;
    }
    burnerwall
    {
        type            zeroGradient;
    }
    front
    {
        type            wedge;
    }
    back
    {
        type            wedge;
    }
    procBoundary1to0
    {
        type            processor;
        value           nonuniform List<scalar> 
27
(
0.000620445699953
0.00191896688085
0.00338770701132
0.00437477664833
0.814671756833
0.503631613949
0.248565973209
0.0886786779913
0.0198166345421
0.00226751421016
0.000164529993137
0.0187909253068
0.0381719311617
0.0744386549812
0.142050075993
0.264523709184
0.480432143346
0.861649130029
1.54729361649
2.50173390454
1.52451438223
0.997009880436
0.710918356301
0.539487657953
0.539487657953
1.03881669537e-05
2.19311194782e-06
)
;
    }
}


// ************************************************************************* //
