/*--------------------------------*- C++ -*----------------------------------*\
  =========                 |
  \\      /  F ield         | OpenFOAM: The Open Source CFD Toolbox
   \\    /   O peration     | Website:  https://openfoam.org
    \\  /    A nd           | Version:  7
     \\/     M anipulation  |
\*---------------------------------------------------------------------------*/
FoamFile
{
    version     2.0;
    format      ascii;
    class       volScalarField;
    location    "0.1";
    object      ed::R_H2O;
}
// * * * * * * * * * * * * * * * * * * * * * * * * * * * * * * * * * * * * * //

dimensions      [1 -3 -1 0 0 0 0];

internalField   nonuniform List<scalar> 
815
(
2.77790211957
2.78358696922
2.82605799122
4.63069877152
4.65491415918
4.69794163266
1.04916886053
1.03746441117
1.02005621047
0.420676137664
0.417300636299
0.410440989672
0.180916678957
0.17895029222
0.175708800348
0.0709002746126
0.0702356481542
0.0690154551298
0.0243980700591
0.0241609206294
0.0238108523237
0.00774789074602
0.00770407983118
0.00762099713497
0.00289510661867
0.00287956131264
0.00285601887281
0.00138085486991
0.00137642530721
0.00136610230814
0.000783357073525
0.000780094994093
0.000774031548804
0.000482218661894
0.000480444532431
0.000476926503456
0.000307017018171
0.000306051106459
0.000303931164272
0.000196513944493
0.000195743579536
0.000194511664426
0.00012499292388
0.000124664130021
0.000124010686948
8.04055018745e-05
8.01271006141e-05
7.97366472415e-05
5.33773452043e-05
5.32355258567e-05
5.30024799424e-05
3.78576366235e-05
3.77593938622e-05
3.75857688635e-05
2.91420957116e-05
2.90630388425e-05
2.89130414616e-05
2.42144508023e-05
2.41438970098e-05
2.4001891784e-05
2.12334860796e-05
2.1172825744e-05
2.1037606838e-05
1.91979437824e-05
1.91262875416e-05
1.89911856046e-05
1.74612102427e-05
1.74024398721e-05
1.72769818051e-05
1.58015669875e-05
1.57383070559e-05
1.56198597262e-05
1.40420092179e-05
1.39894791805e-05
1.3885570632e-05
1.22145887313e-05
1.21700647013e-05
1.20818921229e-05
1.04366668867e-05
1.04000451631e-05
1.03278209928e-05
9.04679592307e-06
9.01783011317e-06
8.96109076013e-06
8.70095882121e-06
8.68145451957e-06
8.64002546263e-06
9.22657735676e-06
9.21981246994e-06
9.19547973913e-06
8.74188633437e-06
8.75329142366e-06
8.74858678928e-06
2.87880214714
4.76466558805
0.997662374583
0.401978376634
0.171435661308
0.0674413217504
0.0233428695928
0.00752057084657
0.00282716199956
0.00135440765518
0.00076684131971
0.000472865358017
0.000301529360031
0.000193131672257
0.000123310140828
7.93305349165e-05
5.27661580305e-05
3.74112223137e-05
2.87599658462e-05
2.38556415126e-05
2.08975862625e-05
1.88527704735e-05
1.71519382923e-05
1.55056254596e-05
1.37895201275e-05
1.20039422308e-05
1.02666603462e-05
8.91302774693e-06
8.59929933081e-06
9.16286830029e-06
8.73601592149e-06
0.363376981221
0.223730994475
0.106842678478
0.0326017490302
0.00586739973064
0.000577682766667
3.72307251641e-05
2.99620993739
3.24667339793
3.63899094531
4.22955137182
5.05109290819
6.1969983901
4.08761047363
2.20474285186
1.21297937349
0.705955753023
0.450151350446
0.307810372072
0.218272837121
0.160299900849
0.115031799832
0.0604719466343
0.0184703010689
0.00333998824189
0.000326559109629
2.54272931671e-05
4.77722672106
3.86695226808
2.94553725894
2.1824056046
1.58454590537
1.1056371664
0.727205296179
0.462281650531
0.296849479651
0.200823728317
0.145219574423
0.110060604268
0.0874978865995
0.0732373681144
0.0586079548733
0.0312081011911
0.00878472767569
0.00156075143111
0.00014598076908
1.63158222058e-05
0.950054067581
0.859743287983
0.73938916468
0.599985586082
0.456267328268
0.324953832306
0.219427326237
0.144586246309
0.0974181017196
0.069559977376
0.0530539677822
0.0427956366998
0.0368151301792
0.0334469280436
0.0286807350057
0.0148053891747
0.00393040515352
0.000715575915156
8.47564026314e-05
1.2567147463e-05
0.382934602488
0.345325875829
0.295212879915
0.237165235292
0.178080947804
0.125518062408
0.0844573136477
0.0562517000693
0.0388395187344
0.0286269138999
0.0225179380163
0.0186757346884
0.0164100429117
0.0151503383667
0.013028768798
0.0063681017282
0.00177661095579
0.000374119208137
6.38183061914e-05
1.4894752538e-05
0.162575608484
0.145439354123
0.123091804094
0.0978877584983
0.0729852358906
0.0514850670185
0.0350798036212
0.0239719292807
0.0171141184617
0.0130330547415
0.0105928290641
0.00901974941204
0.00797148635158
0.00722128750705
0.00606450417918
0.00296974047809
0.000947809201433
0.000256717256469
7.1508704466e-05
2.23610787338e-05
0.0640763483426
0.0574813273934
0.0488497765598
0.0391715211557
0.0296573280789
0.0214626823599
0.0151750068713
0.0108191666926
0.0080333257368
0.00633327840162
0.00530511992516
0.00462747506636
0.00412650232144
0.00369188906098
0.00303259683535
0.00159992760766
0.000631273948273
0.000235154170507
9.69820313432e-05
3.36142620363e-05
0.0223646787061
0.0203951335707
0.0177435818845
0.0147203634618
0.0116927074265
0.00899593404152
0.00681273862707
0.00518030484449
0.00403278030345
0.00326677541492
0.00277121583292
0.00243549773414
0.00218212330482
0.00194859919137
0.00158663159181
0.000958182484878
0.000473942756462
0.000232337290674
0.000123800671164
4.54669103381e-05
0.00728973209889
0.00679652942182
0.00610829542565
0.00530153560599
0.00446731089285
0.00368660065015
0.00300864274612
0.00245488886502
0.00202751091085
0.00171527581411
0.00149379678653
0.00133062710211
0.00119642336067
0.00106616008141
0.000877485788491
0.000599676910443
0.000362306475822
0.000218630716641
0.000136258420131
5.24686763855e-05
0.00276421690013
0.00262443485166
0.0024258262554
0.0021849201034
0.00192583046319
0.00166930359723
0.00143275510781
0.00122689119658
0.00105759951742
0.000925044651627
0.000824124890203
0.000746440537865
0.00068204793356
0.000616941540939
0.000523218167911
0.000396633219064
0.000279025900112
0.000194238910571
0.000132054275719
5.15089574598e-05
0.00132732542744
0.00126942537611
0.00118903288411
0.00109129799475
0.0009843754126
0.000876408425296
0.000774693771748
0.000684025894704
0.0006069156809
0.000543600212356
0.000492495184781
0.000450880978466
0.000415596934578
0.000381142470048
0.000336217744397
0.000277696321805
0.00021818518243
0.000166482906604
0.000115885647624
4.44528850609e-05
0.000751743683855
0.000721181014261
0.000679783077266
0.000629861689666
0.000575346178801
0.000520398750895
0.00046861553383
0.000422175534226
0.000381966592971
0.00034790014653
0.000319352759243
0.000295358198138
0.00027461844822
0.000254714107309
0.000231271295839
0.000202647335909
0.000171280315352
0.000137619068977
9.36989360821e-05
3.54729587644e-05
0.000464182811059
0.000446806915886
0.000423560248421
0.000395726649467
0.000365483917361
0.000335171035136
0.000306681672335
0.000281025833656
0.000258455386486
0.000238788888129
0.000221698514782
0.000206781892542
0.00019354074225
0.000180999756454
0.000167378536132
0.000151534638065
0.000132939264728
0.000108130510432
7.07550926038e-05
2.64946930362e-05
0.000296489249944
0.000286651642801
0.000273608257243
0.000258054395719
0.000241221681015
0.000224423271751
0.000208664023078
0.000194393081943
0.000181615109617
0.000170131262018
0.000159731823208
0.000150220280281
0.000141365791512
0.000132758440653
0.000123638511897
0.000113254469598
0.000100308033169
8.08003377419e-05
5.14942806552e-05
1.89327510676e-05
0.000190394804961
0.000185097522399
0.000178081068233
0.000169731111782
0.000160731231617
0.000151785770806
0.000143400279298
0.000135738992202
0.000128712662369
0.000122137989132
0.000115862212058
0.000109761680074
0.00010371163666
9.75124448914e-05
9.08484972931e-05
8.318154107e-05
7.32270473681e-05
5.82701329614e-05
3.6822863889e-05
1.35232574877e-05
0.000121886960707
0.000119144138296
0.000115520275968
0.000111221341749
0.00010661848258
0.000102073431103
9.78124920549e-05
9.38586329035e-05
9.0099379216e-05
8.63870899749e-05
8.26106794923e-05
7.86841292018e-05
7.4516102692e-05
7.00128168319e-05
6.50310859563e-05
5.91727204671e-05
5.16000673135e-05
4.07678238586e-05
2.56755195891e-05
9.46128711719e-06
7.85687695987e-05
7.71345707666e-05
7.52528129676e-05
7.30308756517e-05
7.06667435894e-05
6.83403920666e-05
6.61387048175e-05
6.40278728705e-05
6.19092787605e-05
5.96825474841e-05
5.72775489571e-05
5.46391583454e-05
5.17045469628e-05
4.84191409927e-05
4.47124210078e-05
4.03762863354e-05
3.48966207381e-05
2.7390985744e-05
1.72036902766e-05
6.40481960699e-06
5.23143788177e-05
5.14734059409e-05
5.03760109639e-05
4.90807302264e-05
4.76970849032e-05
4.63164796853e-05
4.49682368375e-05
4.36129545956e-05
4.21823806321e-05
4.06156264507e-05
3.8874313393e-05
3.69256635227e-05
3.47364914723e-05
3.2281099743e-05
2.9528738041e-05
2.63875842611e-05
2.25686287787e-05
1.75392202511e-05
1.09842698147e-05
4.13970342401e-06
3.70766790212e-05
3.64608930633e-05
3.56547747047e-05
3.46916101451e-05
3.36393911843e-05
3.25543557577e-05
3.14532720958e-05
3.03157479795e-05
2.91057155562e-05
2.77894610672e-05
2.63435048039e-05
2.47500877196e-05
2.2994962563e-05
2.10750820286e-05
1.89852348144e-05
1.66779103881e-05
1.40018396619e-05
1.07119030771e-05
6.67871509459e-06
2.53639718885e-06
2.84630253888e-05
2.79106779793e-05
2.71765957742e-05
2.6280226881e-05
2.5271402859e-05
2.41983382972e-05
2.30875537473e-05
2.19445834135e-05
2.07595524691e-05
1.95155365784e-05
1.8197563385e-05
1.67945866059e-05
1.53050809009e-05
1.37359130292e-05
1.20960982217e-05
1.03668045967e-05
8.47845668784e-06
6.32324239915e-06
3.89669719343e-06
1.48996979225e-06
2.35680831111e-05
2.30234875207e-05
2.22862890851e-05
2.13654110277e-05
2.03020726831e-05
1.91471055882e-05
1.79442341208e-05
1.67236712218e-05
1.54960721052e-05
1.42563138854e-05
1.29956015997e-05
1.17082856716e-05
1.03984810723e-05
9.07766409407e-06
7.75835594661e-06
6.43808302039e-06
5.09084995483e-06
3.68157707574e-06
2.22761427568e-06
8.60702304955e-07
2.06166874322e-05
2.00749817921e-05
1.93292383075e-05
1.83779094e-05
1.72548192177e-05
1.60144781381e-05
1.47175308684e-05
1.34161867732e-05
1.21385586775e-05
1.08895712917e-05
9.665506426e-06
8.46455928407e-06
7.29320656478e-06
6.16368602505e-06
5.08692732524e-06
4.06566938769e-06
3.09221532789e-06
2.15785387743e-06
1.2774677519e-06
5.03543387557e-07
1.85843444809e-05
1.80624577055e-05
1.73327737078e-05
1.63828352597e-05
1.52366860343e-05
1.39482578211e-05
1.25908751336e-05
1.12363471281e-05
9.92930181693e-06
8.68379976842e-06
7.49928797913e-06
6.37593686673e-06
5.32088298353e-06
4.34465909987e-06
3.45522766169e-06
2.65425877941e-06
1.93781803066e-06
1.30210783142e-06
7.52768923227e-07
3.04270201719e-07
1.69064347635e-05
1.64261345545e-05
1.57452041111e-05
1.48401437491e-05
1.37221295056e-05
1.24383905139e-05
1.10684225205e-05
9.7012950378e-06
8.39801738926e-06
7.17989707327e-06
6.04714475494e-06
5.0002904328e-06
4.04657944661e-06
3.19477349548e-06
2.44955367401e-06
1.80951006863e-06
1.26875933922e-06
8.20879393868e-07
4.62702817001e-07
1.91305064707e-07
1.52897665382e-05
1.48697655797e-05
1.42663516214e-05
1.34464684722e-05
1.24067102088e-05
1.11816220662e-05
9.84983464914e-06
8.5147371617e-06
7.25328924757e-06
6.09096245252e-06
5.02553806569e-06
4.05719177079e-06
3.19412263596e-06
2.44470227072e-06
1.81133994785e-06
1.28949126152e-06
8.70018786203e-07
5.4253869973e-07
2.97648379118e-07
1.24732265192e-07
1.36093546245e-05
1.32608302582e-05
1.27534069437e-05
1.20472203297e-05
1.11248563726e-05
1.00044006197e-05
8.75716175234e-06
7.49733364489e-06
6.31631970727e-06
5.23903841871e-06
4.25721353069e-06
3.37102331737e-06
2.59186742043e-06
1.92964493256e-06
1.38578090307e-06
9.53363307986e-07
6.20406088079e-07
3.73296513963e-07
1.98938949154e-07
8.35323464462e-08
1.1859957979e-05
1.15844532069e-05
1.11779131824e-05
1.05974313419e-05
9.81430796037e-06
8.82924529105e-06
7.70201044765e-06
6.55398512892e-06
5.48732387267e-06
4.52011221089e-06
3.63536177581e-06
2.83524265189e-06
2.13673273178e-06
1.55259398769e-06
1.0841677403e-06
7.22905433765e-07
4.5483633268e-07
2.64385573381e-07
1.36539491463e-07
5.65866052416e-08
1.01550928486e-05
9.94326277281e-06
9.62632156876e-06
9.16299042933e-06
8.51803232168e-06
7.67667608323e-06
6.68454842787e-06
5.66696815392e-06
4.73222285507e-06
3.88604053295e-06
3.10300845758e-06
2.38990500665e-06
1.77017550705e-06
1.25900056004e-06
8.57447754373e-07
5.55770590159e-07
3.38961523498e-07
1.90473217613e-07
9.48320148101e-08
3.80085007672e-08
8.82341243927e-06
8.65007176287e-06
8.38897400147e-06
8.00671599252e-06
7.46763417279e-06
6.74313000862e-06
5.85873933596e-06
4.93834381355e-06
4.10107769904e-06
3.34774621226e-06
2.64858943935e-06
2.0131879366e-06
1.46656764544e-06
1.02276579348e-06
6.80994877767e-07
4.30149554789e-07
2.54654235923e-07
1.38100910068e-07
6.56953765376e-08
2.46744018795e-08
8.51493639558e-06
8.33916922984e-06
8.07991242592e-06
7.7201856126e-06
7.23007764716e-06
6.56205755804e-06
5.69173294047e-06
4.7145979589e-06
3.80203860526e-06
3.01115449783e-06
2.31942867984e-06
1.72161246754e-06
1.2265020567e-06
8.36331309324e-07
5.43648467916e-07
3.34179003134e-07
1.91619403295e-07
9.97769458239e-08
4.47276195493e-08
1.50331014628e-08
9.08908841777e-06
8.92122248375e-06
8.68245049168e-06
8.37124945826e-06
7.96761530046e-06
7.40848590148e-06
6.58431024837e-06
5.4497178798e-06
4.20468683448e-06
3.11251250923e-06
2.24917142676e-06
1.58486858264e-06
1.08265438098e-06
7.11849815798e-07
4.47117485534e-07
2.65119137375e-07
1.45901925473e-07
7.20883790602e-08
2.98549155477e-08
8.48188359302e-09
8.70354712271e-06
8.61988330613e-06
8.50288072433e-06
8.35013876286e-06
8.1520002364e-06
7.86442536587e-06
7.38648456687e-06
6.55606768175e-06
5.32547463312e-06
3.95071889271e-06
2.75087108767e-06
1.8388652193e-06
1.18973260934e-06
7.4296460594e-07
4.44349842281e-07
2.50889818553e-07
1.30885002215e-07
6.05849725756e-08
2.27827251812e-08
5.26243885118e-09
1.0346651386e-05
2.16602545831e-06
7.21827728263e-06
1.66010113155e-06
5.23581829377e-06
1.60444717134e-06
5.4159754097e-06
2.29930836046e-06
8.06835327623e-06
3.99770007167e-06
1.30039396831e-05
6.71845038178e-06
1.91260624338e-05
9.9016437936e-06
2.45366302224e-05
1.22831285993e-05
2.70598877033e-05
1.27806821253e-05
2.54867802872e-05
1.13024683032e-05
2.11229870952e-05
8.89140358085e-06
1.6067771527e-05
6.46537352308e-06
1.12153564025e-05
4.37758753389e-06
7.36774017786e-06
2.75546721275e-06
5.53342842583e-06
3.70218452042e-06
3.57620368283e-06
1.01378050552e-06
1.93368102235e-06
3.84557071219e-07
1.05406728078e-06
1.64764058984e-07
6.02491724524e-07
8.27329328995e-08
3.61586664512e-07
4.75960970935e-08
2.27161267372e-07
3.01115766415e-08
1.4930444608e-07
2.04362419739e-08
1.01884152192e-07
1.44992187959e-08
7.14654146446e-08
1.05621755591e-08
5.09622017732e-08
7.7793940938e-09
3.63841599135e-08
5.69243044329e-09
2.5485367499e-08
4.0390517067e-09
1.69922511602e-08
2.68846646505e-09
1.03182399443e-08
1.60645757741e-09
5.37788837729e-09
8.22906574038e-10
2.31601163677e-09
3.60985368855e-10
9.76254620882e-10
1.71184748025e-10
)
;

boundaryField
{
    inletfuel
    {
        type            calculated;
        value           nonuniform 0();
    }
    inletair
    {
        type            calculated;
        value           nonuniform 0();
    }
    outlet
    {
        type            calculated;
        value           uniform 0;
    }
    axis
    {
        type            empty;
    }
    leftside
    {
        type            calculated;
        value           uniform 0;
    }
    burnerwall
    {
        type            calculated;
        value           nonuniform 0();
    }
    front
    {
        type            wedge;
    }
    back
    {
        type            wedge;
    }
    procBoundary1to0
    {
        type            processor;
        value           uniform 0;
    }
}


// ************************************************************************* //
