/*--------------------------------*- C++ -*----------------------------------*\
  =========                 |
  \\      /  F ield         | OpenFOAM: The Open Source CFD Toolbox
   \\    /   O peration     | Website:  https://openfoam.org
    \\  /    A nd           | Version:  7
     \\/     M anipulation  |
\*---------------------------------------------------------------------------*/
FoamFile
{
    version     2.0;
    format      ascii;
    class       volScalarField;
    location    "0.1";
    object      ed::R_O2;
}
// * * * * * * * * * * * * * * * * * * * * * * * * * * * * * * * * * * * * * //

dimensions      [1 -3 -1 0 0 0 0];

internalField   nonuniform List<scalar> 
815
(
-2.46703612574
-2.47208480236
-2.50980303038
-4.11249232877
-4.13399785112
-4.17221025995
-0.931759784729
-0.921365142241
-0.905905036676
-0.373599638931
-0.370601878948
-0.364509873071
-0.160670881668
-0.158924546876
-0.15604579982
-0.0629660554137
-0.0623758051412
-0.0612921599507
-0.0216677613693
-0.0214571505613
-0.0211462572614
-0.00688084948498
-0.00684194130717
-0.00676815612535
-0.00257112465044
-0.00255731896907
-0.00253641108712
-0.00122632789129
-0.00122239402654
-0.00121322624073
-0.00069569413052
-0.000692797099791
-0.000687412194949
-0.00042825513938
-0.000426679546977
-0.000423555209186
-0.000272659741936
-0.000271801922264
-0.000269919215914
-0.000174522707932
-0.000173838552012
-0.000172744496517
-0.000111005372184
-0.000110713372577
-0.000110133054194
-7.1407583599e-05
-7.11603373185e-05
-7.08135783132e-05
-4.74040600595e-05
-4.72781112539e-05
-4.70711447501e-05
-3.36211116034e-05
-3.35338628702e-05
-3.33796676805e-05
-2.58808985363e-05
-2.58106886644e-05
-2.56774770026e-05
-2.15046903465e-05
-2.14420319996e-05
-2.13159181168e-05
-1.88573156934e-05
-1.88034436587e-05
-1.86833566607e-05
-1.7049564316e-05
-1.69859268922e-05
-1.68659437736e-05
-1.55071829797e-05
-1.54549894102e-05
-1.53435709476e-05
-1.40332650049e-05
-1.39770842866e-05
-1.38718920124e-05
-1.2470613624e-05
-1.24239620523e-05
-1.23316815717e-05
-1.08476938223e-05
-1.08081523317e-05
-1.07298468598e-05
-9.26873343033e-06
-9.23620992473e-06
-9.17206812653e-06
-8.03439840707e-06
-8.00867406677e-06
-7.95828423024e-06
-7.72726281079e-06
-7.70994117212e-06
-7.67314830624e-06
-8.19406108508e-06
-8.18805323474e-06
-8.16644350072e-06
-7.76361025902e-06
-7.77373904185e-06
-7.76956088781e-06
-2.55664475931
-4.23146735445
-0.886017222152
-0.356994283542
-0.152250853876
-0.0598941827195
-0.0207306449563
-0.00667896821634
-0.00251078349274
-0.00120284029836
-0.000681026601013
-0.000419948533328
-0.000267786189776
-0.000171518934785
-0.000109510903912
-7.0452912698e-05
-4.6861268855e-05
-3.32246540675e-05
-2.55415315816e-05
-2.11860342377e-05
-1.85590053326e-05
-1.67430182298e-05
-1.52325206477e-05
-1.37704413311e-05
-1.22463797668e-05
-1.06606200867e-05
-9.11775176898e-06
-7.91559979257e-06
-7.63697970341e-06
-8.13748150196e-06
-7.75839678496e-06
-0.322712644776
-0.198693986347
-0.0948862617294
-0.0289533933012
-0.00521079810469
-0.000513036166591
-3.3064355767e-05
-2.66091382551
-2.88334873456
-3.23176330083
-3.75623603023
-4.48584152452
-5.50351244986
-3.63017927643
-1.95801724805
-1.07723879582
-0.626954540125
-0.399776376489
-0.273364314182
-0.193846633635
-0.142361260162
-0.10215896514
-0.0537047277116
-0.0164033497326
-0.00296622101774
-0.000290014941481
-2.25818074658e-05
-4.2426228119
-3.43421421319
-2.61591176174
-1.9381796895
-1.40722452527
-0.981908906096
-0.645826115999
-0.410549214133
-0.263630019592
-0.178350197862
-0.128968524032
-0.0977440799075
-0.0777062826104
-0.0650416123807
-0.0520493292078
-0.0277157040602
-0.00780165736514
-0.00138609281325
-0.00012964453587
-1.44899715938e-05
-0.843736605988
-0.763532212089
-0.656646527392
-0.532843150003
-0.405207935119
-0.288589305523
-0.194871927628
-0.128406069609
-0.0865163587121
-0.0617757464828
-0.0471168707532
-0.0380065161472
-0.0326952686656
-0.0297039910792
-0.0254711672069
-0.013148566212
-0.00349056629254
-0.000635498141193
-7.52715891992e-05
-1.11607988526e-05
-0.340081636239
-0.306681579896
-0.262176566412
-0.210624844955
-0.158152487968
-0.111471744167
-0.0750059702912
-0.0499567552175
-0.0344931144799
-0.0254233690461
-0.0199980287902
-0.0165857939437
-0.0145736483669
-0.0134549132616
-0.011570761645
-0.00565546816975
-0.00157779620039
-0.000332252744006
-5.66766070513e-05
-1.32279292119e-05
-0.144382300755
-0.1291637089
-0.109317000532
-0.0869334577278
-0.0648176954543
-0.0457235405726
-0.0311541368603
-0.0212893086198
-0.0151989331113
-0.0115745679625
-0.00940742000623
-0.00801037858314
-0.00707942323334
-0.00641317670222
-0.00538584523529
-0.00263740647733
-0.000841742955512
-0.000227988863016
-6.35063978605e-05
-1.985872312e-05
-0.0569057725444
-0.0510487789459
-0.0433831569006
-0.0347879635898
-0.0263384729247
-0.0190608633632
-0.013476821194
-0.0096084289267
-0.00713434237404
-0.00562454180841
-0.00471144120399
-0.00410962937797
-0.00366471886401
-0.00327874176038
-0.00269322878403
-0.00142088491127
-0.000560630133315
-0.000208838831891
-8.61290875537e-05
-2.9852599269e-05
-0.0198619202311
-0.0181127804878
-0.0157579553292
-0.0130730554502
-0.0103842145573
-0.0079892283133
-0.006050347199
-0.00460059377316
-0.00358148497232
-0.00290120120019
-0.00246109807969
-0.00216294910175
-0.00193792898097
-0.00173053779175
-0.00140907680932
-0.000850955398535
-0.000420905363616
-0.000206337179921
-0.000109946540593
-4.03788562382e-05
-0.00647396188234
-0.00603595191321
-0.00542473594575
-0.00470825799432
-0.00396738865634
-0.00327404515841
-0.00267195531904
-0.00218017023423
-0.00180061875729
-0.00152332487499
-0.00132663084524
-0.00118172094966
-0.00106253551256
-0.000946849573331
-0.000779289207054
-0.00053256901725
-0.000321761936156
-0.000194164464022
-0.000121010183379
-4.65970774136e-05
-0.00245488237471
-0.00233074288078
-0.00215435992675
-0.00194041279892
-0.00171031703791
-0.00148249725942
-0.00127242014231
-0.00108959379202
-0.000939246994223
-0.000821525912456
-0.000731899753391
-0.000662908804332
-0.000605722167001
-0.000547901619084
-0.000464666523989
-0.000352247285175
-0.000247801018886
-0.000172502265659
-0.0001172765111
-4.57447575123e-05
-0.00117878875467
-0.00112736810982
-0.0010559720802
-0.00096917438452
-0.000874217160883
-0.000778332408072
-0.000688000310677
-0.000607478780944
-0.000538997720443
-0.000482767680113
-0.000437381650005
-0.00040042435421
-0.000369088832947
-0.000338490055513
-0.000298592709837
-0.000246620229364
-0.000193768788095
-0.000147852345847
-0.000102917261602
-3.94783072327e-05
-0.000667618492497
-0.000640475991883
-0.000603710763411
-0.000559375915977
-0.000510961058675
-0.000462162618764
-0.000416174293148
-0.000374931242899
-0.00033922195352
-0.000308967772333
-0.000283615030335
-0.000262305622544
-0.000243886790604
-0.000226209879766
-0.000205390477103
-0.000179969731457
-0.000152112892181
-0.000122218566438
-8.32133928082e-05
-3.15032952898e-05
-0.000412237621969
-0.000396806206726
-0.00037616099823
-0.000351442166834
-0.000324583800544
-0.000297663134406
-0.000272361923563
-0.000249577146369
-0.000229532484555
-0.000212066800083
-0.000196888954848
-0.000183641603301
-0.000171882227085
-0.000160744662232
-0.000148647748387
-0.000134576889435
-0.000118062463866
-9.60299765969e-05
-6.28371202514e-05
-2.35297580863e-05
-0.00026331010202
-0.000254573389506
-0.000242989646815
-0.00022917636736
-0.000214227347027
-0.000199308793124
-0.000185313110729
-0.000172639184213
-0.000161291153223
-0.000151092425669
-0.000141856754243
-0.000133409617158
-0.000125546005436
-0.000117901875225
-0.000109802528042
-0.000100580530153
-8.90828873301e-05
-7.17582346683e-05
-4.57317231412e-05
-1.68140484557e-05
-0.000169088341408
-0.000164383860514
-0.000158152594919
-0.000150737054945
-0.000142744322106
-0.000134799918728
-0.00012735282031
-0.000120548882941
-0.000114308846833
-0.000108469923901
-0.000102896448634
-9.74786073479e-05
-9.21056046212e-05
-8.66001442463e-05
-8.06819373558e-05
-7.38729652745e-05
-6.50324465956e-05
-5.17493118476e-05
-3.27021369211e-05
-1.20099137132e-05
-0.000108246987251
-0.000105811105178
-0.0001025927775
-9.87749230315e-05
-9.46871548652e-05
-9.06507253211e-05
-8.68666141073e-05
-8.33552184775e-05
-8.0016650647e-05
-7.67197916243e-05
-7.33659869598e-05
-6.98788441451e-05
-6.61772479296e-05
-6.21779101476e-05
-5.77536685761e-05
-5.25508937203e-05
-4.58256715586e-05
-3.62056292476e-05
-2.28022556761e-05
-8.40250523937e-06
-6.977639406e-05
-6.8502691756e-05
-6.68315153537e-05
-6.48582278182e-05
-6.27586580879e-05
-6.06926409999e-05
-5.8737337412e-05
-5.68627218048e-05
-5.4981212673e-05
-5.30036676536e-05
-5.08678046918e-05
-4.85246677947e-05
-4.59184592301e-05
-4.30007123596e-05
-3.97087993557e-05
-3.58579074155e-05
-3.0991453378e-05
-2.43257495915e-05
-1.52784812357e-05
-5.6880770701e-06
-4.64600467849e-05
-4.57131844483e-05
-4.47385953751e-05
-4.35882652932e-05
-4.23594592192e-05
-4.11333530422e-05
-3.99359876677e-05
-3.87323706548e-05
-3.7461887572e-05
-3.60704637567e-05
-3.45240153814e-05
-3.2793432582e-05
-3.08492436577e-05
-2.86686268331e-05
-2.62242729798e-05
-2.34346355059e-05
-2.00430469142e-05
-1.55764631417e-05
-9.7550558952e-06
-3.67644267411e-06
-3.29275484271e-05
-3.23806730736e-05
-3.16647647994e-05
-3.08093848539e-05
-2.98749162957e-05
-2.89113036557e-05
-2.79334386862e-05
-2.6923211195e-05
-2.58485895658e-05
-2.46796328369e-05
-2.33954888375e-05
-2.19803858781e-05
-2.0421671071e-05
-1.87166381246e-05
-1.6860658917e-05
-1.4811539665e-05
-1.24349393125e-05
-9.5131688336e-06
-5.93132180427e-06
-2.25255722656e-06
-2.52778207654e-05
-2.47872847585e-05
-2.41353513061e-05
-2.33392921412e-05
-2.24433623353e-05
-2.14903809395e-05
-2.05039006768e-05
-1.94888364367e-05
-1.84364184522e-05
-1.73316163349e-05
-1.61611332362e-05
-1.49151590266e-05
-1.35923390619e-05
-1.21987716645e-05
-1.07424632003e-05
-9.20668920209e-06
-7.52966016769e-06
-5.61562890235e-06
-3.46063048066e-06
-1.32323211745e-06
-2.0930655562e-05
-2.04470038933e-05
-1.97923029377e-05
-1.89744773495e-05
-1.80301337415e-05
-1.70044152588e-05
-1.59361532262e-05
-1.48521795525e-05
-1.37619570615e-05
-1.2660936153e-05
-1.154130608e-05
-1.03980494917e-05
-9.23482086629e-06
-8.06181222142e-06
-6.890143559e-06
-5.71761808307e-06
-4.52114948934e-06
-3.26958375588e-06
-1.9783292052e-06
-7.6438390859e-07
-1.8309540977e-05
-1.78284558538e-05
-1.71661660977e-05
-1.6321297315e-05
-1.53238885033e-05
-1.42223499609e-05
-1.30705398431e-05
-1.19148249343e-05
-1.07801720445e-05
-9.67095477603e-06
-8.58387102935e-06
-7.51731797719e-06
-6.47704753205e-06
-5.47392796327e-06
-4.51766582846e-06
-3.61069354608e-06
-2.74617556492e-06
-1.91637546629e-06
-1.13451048949e-06
-4.47193484332e-07
-1.65046309172e-05
-1.60411467939e-05
-1.53931193598e-05
-1.45494854347e-05
-1.35315980424e-05
-1.23873536412e-05
-1.11818712367e-05
-9.97892405606e-06
-8.81814593582e-06
-7.7120239718e-06
-6.66006704539e-06
-5.66242650339e-06
-4.72544026975e-06
-3.8584624267e-06
-3.06856436878e-06
-2.35722930976e-06
-1.72096311568e-06
-1.15639317782e-06
-6.68529000665e-07
-2.70220312782e-07
-1.50144906206e-05
-1.45879392462e-05
-1.39832095147e-05
-1.3179431515e-05
-1.21865306103e-05
-1.1046450675e-05
-9.8297913453e-06
-8.61565465398e-06
-7.45822256947e-06
-6.37641813731e-06
-5.37042844776e-06
-4.44072418896e-06
-3.59373989824e-06
-2.83725678144e-06
-2.1754320871e-06
-1.60701368049e-06
-1.12677660696e-06
-7.29017449998e-07
-4.10923249233e-07
-1.69896736946e-07
-1.35787384797e-05
-1.32057384629e-05
-1.26698505986e-05
-1.19417179068e-05
-1.10183156099e-05
-9.93032309792e-06
-8.74757168039e-06
-7.56188061169e-06
-6.44159723202e-06
-5.40934264929e-06
-4.46314644134e-06
-3.60316463172e-06
-2.83667875749e-06
-2.17112358858e-06
-1.60863878387e-06
-1.14518848723e-06
-7.72657812714e-07
-4.81824957913e-07
-2.64339516818e-07
-1.10773882962e-07
-1.20863759995e-05
-1.17768538617e-05
-1.13262146405e-05
-1.06990550743e-05
-9.87990986853e-06
-8.88484067577e-06
-7.77717625463e-06
-6.65833141435e-06
-5.60948090641e-06
-4.65275466406e-06
-3.78080260684e-06
-2.99378305884e-06
-2.30181996489e-06
-1.71370464242e-06
-1.23070266808e-06
-8.4667552006e-07
-5.50978460019e-07
-3.31522114863e-07
-1.76676338206e-07
-7.41845131617e-08
-1.05327486443e-05
-1.02880747155e-05
-9.9270292633e-06
-9.41150725806e-06
-8.71602066785e-06
-7.84119315891e-06
-6.84010350162e-06
-5.82054996349e-06
-4.87325530017e-06
-4.01428115056e-06
-3.2285402599e-06
-2.51795986554e-06
-1.89761791938e-06
-1.37884824281e-06
-9.62842053661e-07
-6.42007437206e-07
-4.03937077594e-07
-2.34799043516e-07
-1.21259800933e-07
-5.02541822409e-08
-9.01866942726e-06
-8.83054456652e-06
-8.54907122208e-06
-8.13758996394e-06
-7.56480702103e-06
-6.81760422354e-06
-5.93650234818e-06
-5.03279617402e-06
-4.20265518223e-06
-3.4511663724e-06
-2.75576087055e-06
-2.12245850815e-06
-1.5720809218e-06
-1.11810990102e-06
-7.61493564181e-07
-4.93576110508e-07
-3.0102944154e-07
-1.69157979155e-07
-8.421967238e-08
-3.37550930314e-08
-7.83601304261e-06
-7.68207035768e-06
-7.4501911978e-06
-7.11071043972e-06
-6.6319555136e-06
-5.98852825471e-06
-5.20310686663e-06
-4.38570981445e-06
-3.64213942844e-06
-2.97311081887e-06
-2.3521944071e-06
-1.78789862051e-06
-1.30244882879e-06
-9.08311399065e-07
-6.04786955258e-07
-3.82012916748e-07
-2.26156708392e-07
-1.22646486259e-07
-5.83436205585e-08
-2.19131697942e-08
-7.56205754995e-06
-7.40595991622e-06
-7.17571569825e-06
-6.85624474296e-06
-6.42098316634e-06
-5.82771903332e-06
-5.05478961383e-06
-4.18700263088e-06
-3.37656482731e-06
-2.67418598878e-06
-2.05986895793e-06
-1.52895241414e-06
-1.08924819952e-06
-7.42740191837e-07
-4.8281053555e-07
-2.9678211748e-07
-1.70175898925e-07
-8.86112322425e-08
-3.97222970778e-08
-1.33507959583e-08
-8.0719580862e-06
-7.92287748304e-06
-7.71082568823e-06
-7.43445015059e-06
-7.07598537896e-06
-6.57942633301e-06
-5.84748149742e-06
-4.83985767169e-06
-3.73415400241e-06
-2.76420135469e-06
-1.9974739656e-06
-1.40751109277e-06
-9.61498049467e-07
-6.32189017499e-07
-3.97082021535e-07
-2.35450516749e-07
-1.29574515395e-07
-6.40212029557e-08
-2.65139490223e-08
-7.53270357905e-09
-7.72956146387e-06
-7.65526019298e-06
-7.55135098967e-06
-7.41570188447e-06
-7.23973639625e-06
-6.98434309444e-06
-6.55988709622e-06
-5.8223994646e-06
-4.72951808277e-06
-3.50860678723e-06
-2.44303004873e-06
-1.63308379169e-06
-1.05659350146e-06
-6.59821852646e-07
-3.9462409624e-07
-2.22813554729e-07
-1.16238087191e-07
-5.38051052873e-08
-2.02331844845e-08
-4.67353643021e-09
-9.18879127166e-06
-1.92363259212e-06
-6.41050334223e-06
-1.47432461176e-06
-4.64989489283e-06
-1.42489870527e-06
-4.80989121169e-06
-2.04200023806e-06
-7.16545009542e-06
-3.55033045521e-06
-1.15487110756e-05
-5.96661044467e-06
-1.69857269754e-05
-8.79358303195e-06
-2.17908157153e-05
-1.09085636164e-05
-2.40317036559e-05
-1.13504375452e-05
-2.26346375758e-05
-1.00376458255e-05
-1.8759182291e-05
-7.89639551661e-06
-1.426967946e-05
-5.74185459434e-06
-9.96028233438e-06
-3.88770594674e-06
-6.54324033083e-06
-2.4471118364e-06
-4.91420044269e-06
-3.28788508843e-06
-3.17600235674e-06
-9.00331625461e-07
-1.71728906652e-06
-3.4152253977e-07
-9.36110038701e-07
-1.46325848875e-07
-5.3506883464e-07
-7.34745593857e-08
-3.21122676589e-07
-4.2269772627e-08
-2.01740388558e-07
-2.67418880077e-08
-1.32596270984e-07
-1.81492885833e-08
-9.04826279978e-08
-1.28766583648e-08
-6.34679524623e-08
-9.38019683528e-09
-4.52591874769e-08
-6.90882739554e-09
-3.23125268811e-08
-5.05540906138e-09
-2.26333828881e-08
-3.58705456322e-09
-1.50907035833e-08
-2.38760892452e-09
-9.16355926203e-09
-1.42668413334e-09
-4.77606637524e-09
-7.30817775026e-10
-2.05683430504e-09
-3.20588669974e-10
-8.6700514056e-10
-1.52028019483e-10
)
;

boundaryField
{
    inletfuel
    {
        type            calculated;
        value           nonuniform 0();
    }
    inletair
    {
        type            calculated;
        value           nonuniform 0();
    }
    outlet
    {
        type            calculated;
        value           uniform 0;
    }
    axis
    {
        type            empty;
    }
    leftside
    {
        type            calculated;
        value           uniform 0;
    }
    burnerwall
    {
        type            calculated;
        value           nonuniform 0();
    }
    front
    {
        type            wedge;
    }
    back
    {
        type            wedge;
    }
    procBoundary1to0
    {
        type            processor;
        value           uniform 0;
    }
}


// ************************************************************************* //
