/*--------------------------------*- C++ -*----------------------------------*\
  =========                 |
  \\      /  F ield         | OpenFOAM: The Open Source CFD Toolbox
   \\    /   O peration     | Website:  https://openfoam.org
    \\  /    A nd           | Version:  7
     \\/     M anipulation  |
\*---------------------------------------------------------------------------*/
FoamFile
{
    version     2.0;
    format      ascii;
    class       volScalarField;
    location    "0.1";
    object      ed::R_H2;
}
// * * * * * * * * * * * * * * * * * * * * * * * * * * * * * * * * * * * * * //

dimensions      [1 -3 -1 0 0 0 0];

internalField   nonuniform List<scalar> 
815
(
-0.310865993824
-0.311502166865
-0.316254960842
-0.518206442758
-0.520916308053
-0.525731372706
-0.117409075799
-0.116099268928
-0.11415117379
-0.0470764987333
-0.046698757351
-0.0459311166013
-0.0202457972897
-0.0200257453437
-0.019663000528
-0.00793421919895
-0.00785984301302
-0.00772329517914
-0.00273030868974
-0.00270377006817
-0.00266459506232
-0.000867041261043
-0.000862138524015
-0.000852841009626
-0.000323981968227
-0.000322242343575
-0.000319607785682
-0.000154526978629
-0.000154031280669
-0.000152876067408
-8.76629430048e-05
-8.72978943022e-05
-8.66193538554e-05
-5.39635225137e-05
-5.37649854541e-05
-5.33712942704e-05
-3.43572762346e-05
-3.42491841956e-05
-3.40119483585e-05
-2.19912365612e-05
-2.19050275236e-05
-2.17671679093e-05
-1.39875516956e-05
-1.3950757444e-05
-1.38776327544e-05
-8.99791827548e-06
-8.96676329566e-06
-8.92306892828e-06
-5.97328514484e-06
-5.95741460277e-06
-5.93133519226e-06
-4.23652502005e-06
-4.22553099207e-06
-4.20610118301e-06
-3.26119717527e-06
-3.25235017811e-06
-3.23556445892e-06
-2.70976045575e-06
-2.70186501025e-06
-2.68597366715e-06
-2.37617038628e-06
-2.36938208536e-06
-2.35425017725e-06
-2.14837946638e-06
-2.14036064947e-06
-2.12524183098e-06
-1.95402726296e-06
-1.94745046188e-06
-1.93341085753e-06
-1.76830198261e-06
-1.76122276937e-06
-1.74796771383e-06
-1.57139559384e-06
-1.56551712816e-06
-1.55388906036e-06
-1.36689490907e-06
-1.36191236964e-06
-1.35204526308e-06
-1.16793345636e-06
-1.16383523835e-06
-1.15575286629e-06
-1.012397516e-06
-1.0091560464e-06
-1.00280652989e-06
-9.73696010427e-07
-9.71513347448e-07
-9.66877156394e-07
-1.03251627169e-06
-1.0317592352e-06
-1.02903623841e-06
-9.78276075348e-07
-9.79552381806e-07
-9.7902590147e-07
-0.322157387832
-0.533198233601
-0.11164515243
-0.0449840930924
-0.0191848074322
-0.00754713903095
-0.00261222463656
-0.000841602630228
-0.000316378506826
-0.000151567356821
-8.58147186965e-05
-5.29168246893e-05
-3.37431702553e-05
-2.16127374727e-05
-1.37992369159e-05
-8.87762221847e-06
-5.9048891755e-06
-4.18656824616e-06
-3.21843426453e-06
-2.66960727481e-06
-2.33858092992e-06
-2.10975224371e-06
-1.91941764459e-06
-1.73518412848e-06
-1.54314036071e-06
-1.34332214411e-06
-1.14890857719e-06
-9.9742795436e-07
-9.62319627403e-07
-1.02538679833e-06
-9.7761913653e-07
-0.0406643364445
-0.0250370081281
-0.0119564167484
-0.00364835572906
-0.000656601625946
-6.46466000764e-05
-4.16636939704e-06
-0.335296111887
-0.363324663372
-0.407227644474
-0.473315341592
-0.565251383677
-0.693485940233
-0.457431197197
-0.246725603808
-0.135740577672
-0.0790012128986
-0.0503749739568
-0.0344460578901
-0.0244262034859
-0.0179386406873
-0.0128728346922
-0.0067672189227
-0.00206695133625
-0.000373767224144
-3.65441681484e-05
-2.84548570123e-06
-0.534603909153
-0.432738054887
-0.329625497204
-0.244225915097
-0.177321380104
-0.123728260301
-0.08137918018
-0.0517324363975
-0.0332194600587
-0.0224735304556
-0.0162510503907
-0.0123165243605
-0.00979160398909
-0.00819575573364
-0.00655862566552
-0.00349239713084
-0.000983070310557
-0.000174658617857
-1.63362332098e-05
-1.82585061199e-06
-0.106317461593
-0.0962110758943
-0.082742637288
-0.0671424360793
-0.0510593931487
-0.0363645267827
-0.024555398609
-0.0161801767009
-0.0109017430075
-0.00778423089319
-0.005937097029
-0.00478912055263
-0.00411986151359
-0.00374293696433
-0.00320956779879
-0.00165682296267
-0.000439838860979
-8.00777739628e-05
-9.48481343219e-06
-1.40634861037e-06
-0.0428529662487
-0.0386442959335
-0.0330363135037
-0.0265403903363
-0.0199284598368
-0.0140463182409
-0.00945134335652
-0.00629494485179
-0.00434640425448
-0.00320354485384
-0.0025199092261
-0.00208994074464
-0.00183639454483
-0.00169542510515
-0.00145800715301
-0.000712633558457
-0.000198814755394
-4.18664641302e-05
-7.14169914001e-06
-1.66682332609e-06
-0.0181933077292
-0.0162756452223
-0.0137748035619
-0.0109543007705
-0.00816754043629
-0.00576152644582
-0.00392566676091
-0.00268262066083
-0.00191518535032
-0.00145848677901
-0.00118540905787
-0.0010093708289
-0.000892063118237
-0.000808110804825
-0.000678658943896
-0.000332334000762
-0.000106066245921
-2.87283934527e-05
-8.00230660552e-06
-2.50235561383e-06
-0.00717057579813
-0.00643254844748
-0.00546661965927
-0.00438355756594
-0.00331885515421
-0.00240181899677
-0.00169818567728
-0.00121073776595
-0.000898983362766
-0.000708736593207
-0.000593678721174
-0.000517845688395
-0.000461783457428
-0.0004131473006
-0.000339368051325
-0.000179042696392
-7.06438149576e-05
-2.63153386152e-05
-1.08529437896e-05
-3.76166276738e-06
-0.00250275847502
-0.00228235308292
-0.00198562655526
-0.0016473080116
-0.00130849286914
-0.00100670572822
-0.000762391428067
-0.000579711071334
-0.000451295331133
-0.00036557421473
-0.000310117753226
-0.000272548632382
-0.000244194323846
-0.000218061399616
-0.000177554782491
-0.000107227086343
-5.30373928461e-05
-2.60001107523e-05
-1.38541305708e-05
-5.08805409982e-06
-0.00081577021655
-0.000760577508613
-0.0006835594799
-0.000593277611671
-0.000499922236513
-0.00041255549174
-0.000336687427087
-0.000274718630789
-0.000226892153561
-0.00019195093912
-0.000167165941285
-0.00014890615245
-0.00013388784811
-0.000119310508081
-9.81965814361e-05
-6.71078931921e-05
-4.05445396661e-05
-2.44662526194e-05
-1.52482367512e-05
-5.87159897187e-06
-0.000309334525414
-0.000293691970873
-0.000271466328643
-0.000244507304482
-0.000215513425278
-0.000186806337808
-0.000160334965497
-0.00013729740456
-0.000118352523199
-0.000103518739172
-9.22251368123e-05
-8.35317335336e-05
-7.6325766559e-05
-6.90399218549e-05
-5.85516439218e-05
-4.43859338886e-05
-3.1224881226e-05
-2.17366449122e-05
-1.477776462e-05
-5.76419994743e-06
-0.000148536672773
-0.000142057266291
-0.000133060803908
-0.000122123610226
-0.000110158251718
-9.80760172241e-05
-8.66934610718e-05
-7.65471137592e-05
-6.79179604571e-05
-6.08325322432e-05
-5.51135347758e-05
-5.04566242561e-05
-4.6508101631e-05
-4.26524145345e-05
-3.76250345601e-05
-3.10760924409e-05
-2.44163943344e-05
-1.86305607572e-05
-1.29683860223e-05
-4.97457782816e-06
-8.4125191358e-05
-8.07050223787e-05
-7.60723138554e-05
-7.04857736889e-05
-6.43851201257e-05
-5.82361321309e-05
-5.24412406828e-05
-4.72442913272e-05
-4.27446394511e-05
-3.89323741973e-05
-3.57377289081e-05
-3.30525755934e-05
-3.07316576156e-05
-2.85042275435e-05
-2.58808187364e-05
-2.26776044517e-05
-1.91674231714e-05
-1.54005025395e-05
-1.04855432739e-05
-3.96966347464e-06
-5.19451890906e-05
-5.00007091596e-05
-4.73992501904e-05
-4.42844826327e-05
-4.09001168172e-05
-3.75079007301e-05
-3.43197487725e-05
-3.14486872861e-05
-2.89229019314e-05
-2.6722088046e-05
-2.48095599344e-05
-2.3140289241e-05
-2.16585151656e-05
-2.02550942223e-05
-1.87307877456e-05
-1.69577486294e-05
-1.48768008624e-05
-1.2100533835e-05
-7.9179723524e-06
-2.96493494992e-06
-3.31791479234e-05
-3.20782532952e-05
-3.06186104281e-05
-2.88780283584e-05
-2.69943339877e-05
-2.51144786271e-05
-2.33509123495e-05
-2.17538977291e-05
-2.03239563939e-05
-1.90388363489e-05
-1.78750689656e-05
-1.68106631235e-05
-1.58197860758e-05
-1.4856565428e-05
-1.38359838545e-05
-1.26739394446e-05
-1.12251458394e-05
-9.04210307359e-06
-5.76255751395e-06
-2.11870261195e-06
-2.13064635526e-05
-2.07136618852e-05
-1.99284733136e-05
-1.89940568371e-05
-1.79869095111e-05
-1.6985852078e-05
-1.60474589888e-05
-1.51901092606e-05
-1.44038155351e-05
-1.36680652308e-05
-1.29657634242e-05
-1.22830727259e-05
-1.16060320392e-05
-1.09123006451e-05
-1.01665599373e-05
-9.30857579553e-06
-8.19460077248e-06
-6.52082111379e-06
-4.1207269679e-06
-1.51334377444e-06
-1.36399734561e-05
-1.33330331184e-05
-1.29274984683e-05
-1.24464187179e-05
-1.19313277144e-05
-1.1422705782e-05
-1.09458779476e-05
-1.05034144259e-05
-1.0082728569e-05
-9.6672983506e-06
-9.24469253253e-06
-8.80528505674e-06
-8.3388547624e-06
-7.83490668428e-06
-7.27741738014e-06
-6.62182674678e-06
-5.77439575492e-06
-4.56219461103e-06
-2.87326391301e-06
-1.05878187781e-06
-8.79237553864e-06
-8.63187901066e-06
-8.42129761393e-06
-8.17264783356e-06
-7.90808550146e-06
-7.64775106671e-06
-7.40136740546e-06
-7.16515106566e-06
-6.92806608745e-06
-6.67887983055e-06
-6.40974426526e-06
-6.11449055066e-06
-5.78608773276e-06
-5.41842863317e-06
-5.0036216521e-06
-4.5183789199e-06
-3.90516736009e-06
-3.06523615255e-06
-1.92520904088e-06
-7.16742536883e-07
-5.85433203276e-06
-5.76022149255e-06
-5.63741558887e-06
-5.49246493315e-06
-5.33762568397e-06
-5.18312664309e-06
-5.03224916981e-06
-4.88058394083e-06
-4.7204930601e-06
-4.54516269398e-06
-4.35029801159e-06
-4.13223094066e-06
-3.88724781461e-06
-3.61247290992e-06
-3.30446506118e-06
-2.95294875516e-06
-2.5255818645e-06
-1.96275710935e-06
-1.2292139195e-06
-4.63260749893e-07
-4.14913059407e-06
-4.08021998976e-06
-3.99000990535e-06
-3.88222529122e-06
-3.76447488861e-06
-3.64305210203e-06
-3.51983340962e-06
-3.39253678442e-06
-3.25712599037e-06
-3.10982823032e-06
-2.94801596644e-06
-2.76970184154e-06
-2.57329149208e-06
-2.35844390398e-06
-2.1245758974e-06
-1.86637072314e-06
-1.56690034944e-06
-1.1987342435e-06
-7.47393290327e-07
-2.83839962283e-07
-3.18520462345e-06
-3.12339322082e-06
-3.04124446811e-06
-2.94093473983e-06
-2.82804052373e-06
-2.7079573577e-06
-2.58365307045e-06
-2.45574697677e-06
-2.32313401693e-06
-2.18392024353e-06
-2.03643014886e-06
-1.8794275793e-06
-1.71274183899e-06
-1.53714136463e-06
-1.3536350214e-06
-1.16011539465e-06
-9.4879652015e-07
-7.07613496803e-07
-4.36066712766e-07
-1.66737674799e-07
-2.63742754911e-06
-2.57648362734e-06
-2.49398614742e-06
-2.39093367827e-06
-2.27193894157e-06
-2.14269032936e-06
-2.00808089461e-06
-1.87149166924e-06
-1.73411504366e-06
-1.59537773237e-06
-1.4542955197e-06
-1.3102361799e-06
-1.16366020604e-06
-1.01585187265e-06
-8.68212387613e-07
-7.2046493732e-07
-5.69700465496e-07
-4.11993319861e-07
-2.49285070481e-07
-9.63183963654e-08
-2.30714645517e-06
-2.24652593835e-06
-2.16307220978e-06
-2.056612085e-06
-1.93093071444e-06
-1.7921281772e-06
-1.64699102528e-06
-1.50136183892e-06
-1.35838663295e-06
-1.21861651571e-06
-1.08163539664e-06
-9.47241306881e-07
-8.1615903273e-07
-6.89758061776e-07
-5.69261496772e-07
-4.54975841612e-07
-3.46039762975e-07
-2.4147841114e-07
-1.42957262416e-07
-5.63499032252e-08
-2.07971356367e-06
-2.02131091156e-06
-1.93965434795e-06
-1.83334982496e-06
-1.70508799186e-06
-1.56090417985e-06
-1.40900389684e-06
-1.25742307201e-06
-1.11115588111e-06
-9.71775796622e-07
-8.39220933734e-07
-7.13510363333e-07
-5.95442713783e-07
-4.86196673163e-07
-3.86663292913e-07
-2.97029469655e-07
-2.16854914976e-07
-1.45714653597e-07
-8.42399225627e-08
-3.40498889368e-08
-1.89194414294e-06
-1.83819530825e-06
-1.76199459638e-06
-1.66071223408e-06
-1.53559889533e-06
-1.39193983886e-06
-1.23863117518e-06
-1.08564038382e-06
-9.39794819795e-07
-8.03478935962e-07
-6.76716307173e-07
-5.5956624384e-07
-4.52839548377e-07
-3.57516714041e-07
-2.7412158691e-07
-2.0249638814e-07
-1.41982732269e-07
-9.18619438702e-08
-5.17795677677e-08
-2.14083277611e-08
-1.71102805846e-06
-1.66402711684e-06
-1.59650102276e-06
-1.5047505654e-06
-1.38839459893e-06
-1.25129896827e-06
-1.10226296875e-06
-9.52856550013e-07
-8.11692015553e-07
-6.81619803237e-07
-5.62391624343e-07
-4.5402713907e-07
-3.57443878469e-07
-2.73578682142e-07
-2.02701163973e-07
-1.44302774282e-07
-9.73609734892e-08
-6.07137418168e-08
-3.33088623004e-08
-1.39583822294e-08
-1.52297862508e-06
-1.48397639647e-06
-1.42719230324e-06
-1.34816525544e-06
-1.24494650408e-06
-1.11955994394e-06
-9.79985497705e-07
-8.39002230544e-07
-7.06838800864e-07
-5.86283754652e-07
-4.76410923847e-07
-3.7724025853e-07
-2.90047455538e-07
-2.15940290143e-07
-1.55078234982e-07
-1.06687787926e-07
-6.94276280603e-08
-4.17743991002e-08
-2.22626109478e-08
-9.34783328453e-09
-1.32720933465e-06
-1.29637849142e-06
-1.25088391915e-06
-1.18592408381e-06
-1.09828729252e-06
-9.88052132141e-07
-8.61906946032e-07
-7.33435165429e-07
-6.14068572502e-07
-5.0583106033e-07
-4.06821515916e-07
-3.17282786353e-07
-2.39114812406e-07
-1.73745744888e-07
-1.21325686634e-07
-8.08979965583e-08
-5.08992550853e-08
-2.95865298647e-08
-1.527969053e-08
-6.33242300067e-09
-1.1364234213e-06
-1.11271820629e-06
-1.07725034668e-06
-1.02540046539e-06
-9.53225300652e-07
-8.59071859685e-07
-7.48046079686e-07
-6.34171979901e-07
-5.2956767284e-07
-4.34874160542e-07
-3.47247587024e-07
-2.67446498494e-07
-1.98094585251e-07
-1.40890659021e-07
-9.59541901919e-08
-6.2194479651e-08
-3.79320819578e-08
-2.13152384575e-08
-1.06123424302e-08
-4.25340773584e-09
-9.87399396665e-07
-9.68001405187e-07
-9.38782803671e-07
-8.96005552806e-07
-8.3567865919e-07
-7.5460175391e-07
-6.55632469338e-07
-5.526339991e-07
-4.58938270605e-07
-3.74635393383e-07
-2.96395032242e-07
-2.25289316084e-07
-1.64118816641e-07
-1.14454394415e-07
-7.62079225092e-08
-4.81366380409e-08
-2.84975275313e-08
-1.54544238093e-08
-7.35175597915e-09
-2.76123208527e-09
-9.52878845628e-07
-9.33209313619e-07
-9.04196727668e-07
-8.63940869646e-07
-8.09094480824e-07
-7.34338524725e-07
-6.36943326641e-07
-5.27595328018e-07
-4.25473777948e-07
-3.36968509053e-07
-2.59559721916e-07
-1.92660053402e-07
-1.37253857181e-07
-9.35911174868e-08
-6.08379323661e-08
-3.73968856543e-08
-2.14435043703e-08
-1.11657135814e-08
-5.00532247146e-09
-1.68230550442e-09
-1.01713033157e-06
-9.98345000712e-07
-9.71624803449e-07
-9.36799307672e-07
-8.91629921493e-07
-8.29059568469e-07
-7.36828750944e-07
-6.09860208116e-07
-4.70532832065e-07
-3.48311154542e-07
-2.51697461165e-07
-1.77357489867e-07
-1.21156331514e-07
-7.96607982991e-08
-5.00354639991e-08
-2.96686206261e-08
-1.63274100782e-08
-8.06717610454e-09
-3.34096652538e-09
-9.49180013965e-10
-9.73985658831e-07
-9.64623113152e-07
-9.51529734657e-07
-9.34436878391e-07
-9.12263840145e-07
-8.80082271437e-07
-8.2659747065e-07
-7.33668217145e-07
-5.95956550359e-07
-4.42112105482e-07
-3.07841038936e-07
-2.05781427603e-07
-1.33139107884e-07
-8.31427532938e-08
-4.97257460417e-08
-2.80762638235e-08
-1.46469150239e-08
-6.77986728828e-09
-2.54954069677e-09
-5.88902420962e-10
-1.15786011437e-06
-2.42392866186e-07
-8.07773940398e-07
-1.85776519797e-07
-5.8592340094e-07
-1.79548466069e-07
-6.06084198001e-07
-2.57308122395e-07
-9.02903180811e-07
-4.47369616459e-07
-1.45522860749e-06
-7.51839937117e-07
-2.14033545838e-06
-1.10806076165e-06
-2.74581450709e-06
-1.37456498283e-06
-3.02818404738e-06
-1.43024458013e-06
-2.85214271142e-06
-1.26482247772e-06
-2.36380480422e-06
-9.95008064245e-07
-1.79809206707e-06
-7.23518928741e-07
-1.25507406816e-06
-4.89881587147e-07
-8.24499847023e-07
-3.0835537635e-07
-6.19227983136e-07
-4.1429943199e-07
-4.00201326083e-07
-1.13448880055e-07
-2.16391955828e-07
-4.3034531449e-08
-1.17957242082e-07
-1.84382101089e-08
-6.74228898835e-08
-9.25837351382e-09
-4.04639879229e-08
-5.32632446655e-09
-2.54208788145e-08
-3.36968863386e-09
-1.6708175096e-08
-2.28695339065e-09
-1.14015241945e-08
-1.62256043109e-09
-7.99746218237e-09
-1.1819787238e-09
-5.70301429633e-09
-8.7056669826e-10
-4.07163303246e-09
-6.37021381914e-10
-2.85198461089e-09
-4.5199714348e-10
-1.90154757686e-09
-3.00857540528e-10
-1.15468068231e-09
-1.79773444075e-10
-6.01822002044e-10
-9.20887990116e-11
-2.59177331736e-10
-4.0396698881e-11
-1.09249480321e-10
-1.91567285426e-11
)
;

boundaryField
{
    inletfuel
    {
        type            calculated;
        value           nonuniform 0();
    }
    inletair
    {
        type            calculated;
        value           nonuniform 0();
    }
    outlet
    {
        type            calculated;
        value           uniform 0;
    }
    axis
    {
        type            empty;
    }
    leftside
    {
        type            calculated;
        value           uniform 0;
    }
    burnerwall
    {
        type            calculated;
        value           nonuniform 0();
    }
    front
    {
        type            wedge;
    }
    back
    {
        type            wedge;
    }
    procBoundary1to0
    {
        type            processor;
        value           uniform 0;
    }
}


// ************************************************************************* //
