/*--------------------------------*- C++ -*----------------------------------*\
  =========                 |
  \\      /  F ield         | OpenFOAM: The Open Source CFD Toolbox
   \\    /   O peration     | Website:  https://openfoam.org
    \\  /    A nd           | Version:  7
     \\/     M anipulation  |
\*---------------------------------------------------------------------------*/
FoamFile
{
    version     2.0;
    format      ascii;
    class       volScalarField;
    location    "0.1";
    object      epsilon;
}
// * * * * * * * * * * * * * * * * * * * * * * * * * * * * * * * * * * * * * //

dimensions      [0 2 -3 0 0 0 0];

internalField   nonuniform List<scalar> 
815
(
3192.48643441
3146.97361868
3043.66553824
615.43400307
608.944799852
595.832083219
328.943403385
327.479282008
325.692343595
278.150771457
277.283361899
276.364918252
230.770533708
229.899814824
228.847468664
171.360947999
170.807944197
170.263081027
107.535053693
107.260649747
107.107561063
58.2649390449
58.1934575052
58.2141249194
32.5962834187
32.5638780383
32.5701810961
21.6335687714
21.6100615515
21.5955980815
16.669532085
16.6394975013
16.604364494
13.6655895398
13.6411085117
13.6091316316
11.3137533674
11.2907551374
11.2598491997
9.22898057935
9.2086631876
9.18009493742
7.39788952638
7.3832441367
7.36273387806
5.92898298733
5.91468878898
5.89415283958
4.82678636439
4.81638048535
4.79987405987
4.06679307318
4.05723603695
4.04157798446
3.55363647206
3.54457937011
3.52921550873
3.19935668905
3.1904777244
3.17486294863
2.93286003568
2.92432009176
2.9091555599
2.72080201989
2.71141253849
2.6940951857
2.5330844396
2.52387193241
2.50662888886
2.37043105107
2.36041527367
2.34154819958
2.22494810412
2.21496124077
2.19615727255
2.10343812772
2.09347030588
2.07500272386
2.0286755411
2.0188389704
2.00095133195
2.10489729462
2.09520096032
2.07816850933
2.75882868979
2.74952127724
2.73413708154
5.63175129129
5.62748495317
5.61277471481
22.616070279
22.6806686279
22.6609070244
2917.72454354
580.207922299
323.98427254
275.542239086
227.910283134
169.873543869
107.149860236
58.386406641
32.6717369988
21.6352013727
16.6089452664
13.6079289733
11.2546826911
9.17482425061
7.35991699424
5.88971254416
4.79592428975
4.03707722213
3.52429727445
3.1694932921
2.90390868921
2.68769947832
2.5000966568
2.3341261265
2.18868340621
2.06783369694
1.99434218706
2.07215940739
2.72793669572
5.60057659414
22.6164951193
71.5360695307
74.6917017973
38.8800827095
9.24289316002
2.33553330526
0.76040098736
0.567435948082
2646.58926389
2198.83230288
1702.93550107
1236.82300181
851.534353889
558.441241311
362.803291193
228.10397425
134.215189716
77.3555821675
48.0293145771
35.0617618331
32.4608924601
39.2035984748
46.8236427436
23.886570055
6.13370469408
1.80455501202
0.652900206371
0.544312893205
546.735375327
491.694447432
430.098513549
366.576923329
299.264970577
226.086655826
152.360206878
92.6030327765
54.1618032059
33.4013479683
23.2038719717
18.8399045286
18.5775371966
22.3099162667
25.1104896509
12.4103944221
3.78143802946
1.32350955875
0.539395668732
0.51536962059
320.040140085
309.59036005
288.944853747
254.833344712
207.11971551
152.382674362
100.980184394
61.9963463138
37.9815849383
24.7091199369
17.5908859396
14.0778037808
12.9971378219
13.5213485166
13.2546541072
6.85333170872
2.5836700707
1.03958570143
0.472077801395
0.49157742431
273.109648347
264.777405378
247.251325376
218.24520682
179.049258353
134.954335495
93.5619792492
61.5480323582
40.4236323986
27.4547573373
19.4630755322
14.5970893849
11.8171357469
10.2008970162
8.40805523123
4.55230917774
2.10878999322
0.986067740868
0.489887855574
0.484954860098
225.765433235
219.46724914
206.712009231
186.236740343
158.656815929
126.914636528
95.6013434755
69.2066507659
49.6025905521
35.8467116134
26.1453509142
19.2854460211
14.4726519606
10.9322601769
7.8216877584
4.49960014449
2.43612847214
1.26578603195
0.63430621506
0.511561387628
168.980766352
166.097152292
159.640324144
148.781099651
133.268169174
114.243710658
93.9260107238
74.8864039157
58.7196681591
45.5599395721
34.9475316117
26.5077615021
19.912425007
14.6754697122
10.0750658049
6.2524966423
3.80915981835
2.10468281037
0.964054449486
0.586276246752
107.259597193
106.922134117
105.092435598
101.342459821
95.2709082169
86.9284279523
76.9674757178
66.5376275712
56.5706621291
47.4181264231
39.1091141795
31.5127301103
24.7284830687
18.7914644568
13.5179020481
9.23599337517
6.12723387536
3.51169887729
1.46775791634
0.702812354464
58.7286623528
59.0579798039
58.8777275606
57.9526189297
56.0424416558
53.0512586429
49.1282583906
44.6522904558
40.072895249
35.7200798964
31.6297472309
27.6211201237
23.6047694866
19.5052831386
15.2748346991
11.4762670407
8.29034147011
4.87953540181
1.90118274679
0.822335434388
32.8999361902
33.1862614696
33.3099776438
33.0968813728
32.4032534104
31.1051561356
29.236248136
26.9522981323
24.5194943675
22.2158807601
20.2083253021
18.5202551415
16.9991190908
15.3916701333
13.4615391352
11.3575397651
8.94379519236
5.29682198633
1.98485010497
0.903502364408
21.7278894319
21.8586751568
21.9070788001
21.7429115333
21.2467859478
20.3327784895
19.0088248334
17.3824458286
15.6569037056
14.0660001304
12.7784755411
11.8371718506
11.1700389363
10.6559965674
10.1341642152
9.41921545952
7.91857235712
4.67793254637
1.77565290209
0.959081953678
16.6384763554
16.6842303126
16.6575690245
16.4524891797
15.9733257757
15.1618886609
14.0329545597
12.684926267
11.2892039258
10.0315041072
9.03952726128
8.34754088751
7.91849301156
7.67938555811
7.51523167219
7.21534468962
6.16904482617
3.69702925966
1.53393033371
1.03595035998
13.6192779037
13.6342954291
13.5849117846
13.383588515
12.9546280935
12.2602903477
11.3219424629
10.2263922965
9.11035600299
8.11289095742
7.3212593945
6.75352790074
6.3849516875
6.1620084225
5.99105879046
5.67576096248
4.78687833993
2.95741667302
1.40038590349
1.16085641161
11.2587514421
11.2716841694
11.2369339881
11.0817559295
10.7471257168
10.2075266455
9.48430090044
8.64732484328
7.80024078506
7.0446387083
6.44204810851
6.00239061059
5.69769350804
5.47722340991
5.25704595891
4.88179636786
4.07055826143
2.64998621207
1.45598287038
1.38080486489
9.1802269571
9.2002123636
9.18836164239
9.08865793424
8.85787007463
8.47882339994
7.96965837887
7.38231985897
6.79064658326
6.26580793359
5.85123077904
5.55260962261
5.34377956569
5.17674067531
4.9811700063
4.6257768999
3.91143642802
2.76343145079
1.7544314269
1.80374628281
7.36614596122
7.38884950793
7.39221544462
7.3340995425
7.1856277325
6.93793075159
6.60628038942
6.2280399607
5.85378593491
5.53146680582
5.29113453848
5.13680913999
5.04834336962
4.98705611032
4.89097830587
4.64881499457
4.10427241116
3.20647559835
2.31638113733
2.50480842857
5.89373368362
5.91491908318
5.92469555005
5.89180462313
5.79794397563
5.64177788769
5.43851457963
5.21547501707
5.00609200535
4.84119987043
4.74048657768
4.70806491758
4.73197902118
4.7865436379
4.82342921523
4.75619385033
4.45281778046
3.84293650628
3.12192137497
3.61050965338
4.79832469411
4.81633892387
4.82772589523
4.80915851271
4.74988033813
4.65434986595
4.53919375353
4.42641368273
4.33764511418
4.29070959425
4.29675316969
4.35803657194
4.46871449231
4.61602929414
4.77196867788
4.878835601
4.8344069246
4.54972015641
4.13087709129
5.25450596705
4.03771892672
4.05312144671
4.06525993262
4.05628650142
4.02078478897
3.96779814535
3.91596914802
3.88517210107
3.88975672094
3.93791748251
4.03309599273
4.17389475982
4.35637355957
4.57576187822
4.8205982516
5.06239127021
5.23721320607
5.2808472971
5.31072102906
7.47839236442
3.5239633734
3.53797455508
3.55153493928
3.55064855744
3.53366543847
3.51332138309
3.51087233605
3.54632055129
3.63027665398
3.76443791611
3.94591732013
4.16852884234
4.42643142906
4.71693256799
5.03856739363
5.38397535068
5.73314837501
6.07931621446
6.66067523659
10.1532635874
3.16845194644
3.18177175132
3.19718350195
3.20323608646
3.20087126462
3.20582853881
3.24269784983
3.33374363701
3.48917623116
3.70739319777
3.98092391032
4.29866290919
4.65059838359
5.03212407954
5.44533978877
5.89721075715
6.40178177353
7.02474763153
8.15800963762
13.0267172363
2.90281477991
2.91576678878
2.93269359663
2.9438169978
2.95157370202
2.97412687861
3.04025695783
3.1769477823
3.39761429922
3.7010345737
4.07720311994
4.51065912406
4.98647493008
5.49595612218
6.04003876176
6.63183903583
7.30903910969
8.19434759269
9.8245709803
15.8747118357
2.6859434236
2.69832708466
2.71586334532
2.72961494209
2.74250678529
2.77445319678
2.85918436986
3.03119788809
3.3113158348
3.70300899483
4.19633108135
4.77258920603
5.41193131963
6.09980078784
6.83166675754
7.61833964412
8.50485761607
9.6421043128
11.6660042134
18.6242709772
2.49794952805
2.50952962494
2.52679632683
2.54089181975
2.55430753291
2.58804461972
2.6812170974
2.87878226694
3.21392902321
3.69952340885
4.32898402281
5.08190326464
5.93324767896
6.86056081914
7.84871713112
8.89593081531
10.0342082216
11.4091273048
13.7000536851
21.274351227
2.33140059471
2.34227325416
2.3588073867
2.37170540224
2.38234301838
2.41196030509
2.50528629987
2.72059128455
3.10876444446
3.69744795456
4.48695976509
5.45651923799
6.57502546994
7.80851775097
9.12426856408
10.4950489188
11.9177250366
13.4986596065
15.9069241541
23.8117485823
2.18574947651
2.1961706027
2.21196059076
2.2230305939
2.22910282402
2.25108907771
2.33939999178
2.56817865016
3.01142061417
3.71707923671
4.69582610905
5.92676192237
7.36990503151
8.97429648711
10.680612144
12.4212001633
14.1375821401
15.8651882899
18.2324640437
26.2355769261
2.06522074072
2.07571740022
2.09100032253
2.10011736534
2.10105683921
2.11407940246
2.19563934813
2.43851965937
2.94478753173
3.78732917435
4.98902540515
6.52688601541
8.34741463879
10.3750087153
12.5135015933
14.6403192196
16.6223940312
18.4048329393
20.571349382
28.4598614183
1.99234797048
2.0030130581
2.01734756796
2.02364523116
2.01843909789
2.02181732535
2.09735069552
2.35957704996
2.943285411
3.94883145535
5.40959244001
7.29573321589
9.53293911968
12.0127804543
14.5937129345
17.088870243
19.2873593972
21.0432164934
22.87888633
30.4041481325
2.07002329568
2.07872502386
2.08830522707
2.0865235478
2.06912726772
2.05708959603
2.12337776913
2.40940206569
3.08797548831
4.28620430433
6.04109690586
8.307724402
10.9853265609
13.9270924012
16.945633119
19.7931519393
22.1935446813
23.8927406644
25.2903162651
32.1296416368
2.7216352741
2.71933345578
2.71019071302
2.68207828867
2.63102124898
2.5804445576
2.6161696696
2.91634769072
3.70487093454
5.13468478071
7.23174899372
9.9224131558
13.0759814749
16.5080537828
19.9947729396
23.2348254264
25.8976869828
27.6103915672
28.5854736808
34.4192678367
5.57749954482
5.53810824457
5.47284403671
5.37043787015
5.22910710635
5.0812167614
5.0376927293
5.33477592041
6.27535932511
8.03992802164
10.6146803582
13.8669383592
17.6298050204
21.6760365257
25.7649495124
29.535759854
32.6446078498
34.597056479
35.4160524622
40.178661652
22.5189778785
22.3261219962
22.0394947541
21.6496014375
21.1631446266
20.6400697193
20.2628187105
20.4104610407
21.5633769867
23.9381890629
27.3975641494
31.6575090133
36.469935815
41.5616785446
46.6923340324
51.5057435606
55.7154501766
58.868139858
60.9495869229
65.8527238969
1.43838514058
1.296125123
1.48907989271
1.26773879015
1.52958436656
1.23837075329
1.54261322369
1.22009318677
1.52580161128
1.22438108772
1.50393835761
1.25798410822
1.52635582798
1.32206571094
1.63451228619
1.41330556733
1.85790956646
1.52531054077
2.20364853278
1.65914045207
2.65129877998
1.84707306898
3.17796442062
2.16173908508
3.84849222969
2.79824793282
4.96629924008
4.30540583581
9.58170132369
45.6313832194
15.8345397527
80.3427436304
21.2324708581
107.737856188
26.4988369893
128.340204727
31.8408449054
146.933044202
37.6390562529
166.528509458
43.6251793967
188.59341318
49.707226987
213.619763372
56.2270426628
241.38207685
63.1195238126
271.08865422
70.2430221986
301.727942809
77.1166793552
332.190449667
83.3552638113
361.381831395
88.3073874215
387.943321477
91.6666406886
411.068581836
94.1164084061
429.981529065
99.111996282
446.392775745
119.26006825
470.673493916
)
;

boundaryField
{
    inletfuel
    {
        type            turbulentMixingLengthDissipationRateInlet;
        mixingLength    0.005;
        phi             phi;
        k               k;
        value           nonuniform 0();
    }
    inletair
    {
        type            turbulentMixingLengthDissipationRateInlet;
        mixingLength    0.005;
        phi             phi;
        k               k;
        value           nonuniform 0();
    }
    outlet
    {
        type            inletOutlet;
        inletValue      uniform 200;
        value           uniform 200;
    }
    axis
    {
        type            empty;
    }
    leftside
    {
        type            epsilonWallFunction;
        value           nonuniform List<scalar> 
32
(
1.296125123
1.26773879015
1.23837075329
1.22009318677
1.22438108772
1.25798410822
1.32206571094
1.41330556733
1.52531054077
1.65914045207
1.84707306898
2.16173908508
2.79824793282
4.30540583581
45.6313832194
80.3427436304
107.737856188
128.340204727
146.933044202
166.528509458
188.59341318
213.619763372
241.38207685
271.08865422
301.727942809
332.190449667
361.381831395
387.943321477
411.068581836
429.981529065
446.392775745
470.673493916
)
;
    }
    burnerwall
    {
        type            epsilonWallFunction;
        value           nonuniform 0();
    }
    front
    {
        type            wedge;
    }
    back
    {
        type            wedge;
    }
    procBoundary1to0
    {
        type            processor;
        value           nonuniform List<scalar> 
27
(
7260.42945405
7249.85125538
7180.31044671
7076.90264371
125.496550269
96.2292224644
43.5859768732
10.9053555854
2.69510736527
0.833691433324
0.577783714556
6771.53404242
6032.32583803
5006.25652016
3848.92886363
2750.08220339
1835.36328526
1156.16400294
682.106694175
396.814731652
232.239344228
137.56211916
88.1241085751
68.9712898575
68.9712898575
1.38758484104
1.31880918708
)
;
    }
}


// ************************************************************************* //
