/*--------------------------------*- C++ -*----------------------------------*\
  =========                 |
  \\      /  F ield         | OpenFOAM: The Open Source CFD Toolbox
   \\    /   O peration     | Website:  https://openfoam.org
    \\  /    A nd           | Version:  7
     \\/     M anipulation  |
\*---------------------------------------------------------------------------*/
FoamFile
{
    version     2.0;
    format      ascii;
    class       volScalarField;
    location    "0.1";
    object      H2;
}
// * * * * * * * * * * * * * * * * * * * * * * * * * * * * * * * * * * * * * //

dimensions      [0 0 0 0 0 0 0];

internalField   nonuniform List<scalar> 
815
(
0.0446419677986
0.044134069953
0.0430562094401
0.00713443407691
0.00703182908233
0.00682025992426
0.00149254936191
0.00147671985204
0.00144675142012
0.000580770970561
0.000574713350677
0.000562891063112
0.000239739010538
0.000237175773047
0.000232263471937
9.06256740254e-05
8.9733262994e-05
8.80417232823e-05
3.03996605012e-05
3.01483753706e-05
2.96855388436e-05
1.00801635485e-05
1.0018916029e-05
9.90303538256e-06
4.20966620836e-06
4.18986386885e-06
4.15175197237e-06
2.25108524677e-06
2.24202053874e-06
2.22355144632e-06
1.35465920847e-06
1.34929239648e-06
1.33870361796e-06
8.52167384267e-07
8.49175106536e-07
8.43193711298e-07
5.44623001804e-07
5.42881904928e-07
5.3951158079e-07
3.48161678143e-07
3.47216969871e-07
3.4547183988e-07
2.23044016657e-07
2.22567942696e-07
2.21710469767e-07
1.4552109663e-07
1.45262868539e-07
1.44834326141e-07
9.92358016191e-08
9.91033022319e-08
9.88710765528e-08
7.27362774555e-08
7.26469394699e-08
7.24794335489e-08
5.79949844333e-08
5.79188902116e-08
5.77659903456e-08
4.98627743659e-08
4.97888404879e-08
4.96332335133e-08
4.51751615524e-08
4.50991308138e-08
4.49371569432e-08
4.20175166072e-08
4.19416809263e-08
4.17791432976e-08
3.92802768267e-08
3.92073639698e-08
3.90506868536e-08
3.63383542795e-08
3.62709794938e-08
3.61269640577e-08
3.28897549231e-08
3.28310498573e-08
3.27055462897e-08
2.88708449062e-08
2.88215712785e-08
2.8716940357e-08
2.43118147507e-08
2.42726729665e-08
2.4190591888e-08
1.91879640426e-08
1.91595735395e-08
1.91015931028e-08
1.33288798354e-08
1.33117314788e-08
1.32793873643e-08
7.20151397278e-09
7.19432508818e-09
7.18382790837e-09
2.94618174696e-09
2.94462238522e-09
2.94301067421e-09
0.0416103693104
0.00653987354502
0.00140755091893
0.000547217337266
0.000225706777346
8.57731829091e-05
2.90646345923e-05
9.74882797598e-06
4.10079458776e-06
2.19882937106e-06
1.32449847724e-06
8.35195278968e-07
5.35028848846e-07
3.43161161412e-07
2.2058277774e-07
1.4427492646e-07
9.85660035901e-08
7.22573000376e-08
5.75597405849e-08
4.94201494709e-08
4.47134314143e-08
4.15529293815e-08
3.88319369666e-08
3.59254034077e-08
3.25298279612e-08
2.85708909706e-08
2.40767344974e-08
1.90221492386e-08
1.32361285522e-08
7.16989839281e-09
2.94039594435e-09
0.000456271662237
0.000256150004824
8.93303907203e-05
1.84424693003e-05
4.27598973338e-06
8.43788070524e-07
5.80379481567e-08
0.0384896258418
0.0331553761511
0.0268501225521
0.0202676309263
0.013934773668
0.00828077194683
0.0044425231501
0.00235301814855
0.00125251448494
0.000711680763638
0.000454266880188
0.000319778041098
0.00023572315168
0.000174270879758
0.000114716612956
4.4214205691e-05
1.06112772004e-05
2.84912322659e-06
5.30942657497e-07
4.02299627832e-08
0.00592901352118
0.00489068241035
0.00376685861854
0.00276834335342
0.00195502525931
0.00131264643823
0.000829217991535
0.000507149638004
0.000315045248801
0.000208030307974
0.00014811159274
0.00011067488936
8.53492494895e-05
6.68222885259e-05
4.72292653665e-05
1.98122016044e-05
5.61391462302e-06
1.6449535283e-06
2.67427717766e-07
2.60993724204e-08
0.00132346286488
0.00116695329332
0.000971579304505
0.000760600956455
0.000559233501711
0.000387592905417
0.000256971150252
0.00016709284636
0.000110628818866
7.69664053888e-05
5.65261050607e-05
4.2993000759e-05
3.37920201314e-05
2.71331536148e-05
1.99877093014e-05
9.22415429979e-06
2.98105788052e-06
8.88595418067e-07
1.63670072866e-07
2.01410707297e-08
0.00051437420682
0.000452886188161
0.000377101532871
0.000295600859086
0.000217862407066
0.00015200330442
0.000102076372932
6.78569619808e-05
4.62422590355e-05
3.30986338391e-05
2.48490587413e-05
1.92102586498e-05
1.52356056197e-05
1.23168626001e-05
9.20129639781e-06
4.43348190966e-06
1.55797034873e-06
4.77323809623e-07
1.13242550491e-07
2.34589384086e-08
0.0002121904965
0.000186928129112
0.000155783777102
0.000122336460322
9.05719923489e-05
6.38503007941e-05
4.36593186829e-05
2.98393468013e-05
2.10432276591e-05
1.55716722152e-05
1.20889046692e-05
9.63563036947e-06
7.77955209385e-06
6.30594219792e-06
4.76180613578e-06
2.32598931781e-06
8.51170937327e-07
2.84884779534e-07
1.02017737776e-07
3.34800077292e-08
8.10552487345e-05
7.20756790061e-05
6.07898350273e-05
4.85237917808e-05
3.67525239997e-05
2.67367213961e-05
1.90457038444e-05
1.36304425908e-05
1.00598823058e-05
7.78265851645e-06
6.30698366642e-06
5.23157801377e-06
4.34426239668e-06
3.54887916955e-06
2.66751264604e-06
1.35662681924e-06
5.48382376037e-07
2.18777905213e-07
1.08167529856e-07
4.62607501031e-08
2.77489155106e-05
2.51702536915e-05
2.18231944823e-05
1.80976481648e-05
1.44325846387e-05
1.11952164883e-05
8.56502709707e-06
6.56262642733e-06
5.11204366064e-06
4.10425078479e-06
3.41307020183e-06
2.90575130424e-06
2.48394917499e-06
2.07889562018e-06
1.57486745266e-06
8.98244635543e-07
4.2531680328e-07
2.02342150137e-07
1.1759091396e-07
5.73254376047e-08
9.41260502771e-06
8.72845287225e-06
7.81581602424e-06
6.7766278615e-06
5.72502609483e-06
4.75231393308e-06
3.90687874365e-06
3.20555679481e-06
2.64877979323e-06
2.22560712831e-06
1.91052369928e-06
1.66568065652e-06
1.45321898854e-06
1.24268741966e-06
9.72653907912e-07
6.28130175166e-07
3.5149438941e-07
1.93643309657e-07
1.22192776015e-07
6.2602703364e-08
3.98914641584e-06
3.7573967979e-06
3.44572316256e-06
3.08336477229e-06
2.7053627537e-06
2.33937150139e-06
2.00465280577e-06
1.71170182319e-06
1.46602303486e-06
1.2674450273e-06
1.11022213729e-06
9.83756416625e-07
8.75226731108e-07
7.66752340247e-07
6.25547625493e-07
4.48302658757e-07
2.86869725515e-07
1.77024785728e-07
1.19216082913e-07
6.07155766993e-08
2.14460265999e-06
2.0335561841e-06
1.88621375421e-06
1.71467337592e-06
1.53353308757e-06
1.35560546788e-06
1.19043787926e-06
1.0432302543e-06
9.15678392752e-07
8.06770578848e-07
7.14034654277e-07
6.34517727663e-07
5.65059271271e-07
4.98315337102e-07
4.19102840918e-07
3.23077872385e-07
2.27872262221e-07
1.54153431276e-07
1.09880006297e-07
5.30432965636e-08
1.29404556382e-06
1.23290336366e-06
1.15284230955e-06
1.0601315347e-06
9.62492133978e-07
8.66909138066e-07
7.78386101625e-07
6.98994638161e-07
6.28281617058e-07
5.64362136767e-07
5.05469802704e-07
4.50735648282e-07
3.99653696788e-07
3.49978948812e-07
2.96462436894e-07
2.37427699561e-07
1.78811625314e-07
1.30924926241e-07
9.66912070779e-08
4.2989032426e-08
8.18047090926e-07
7.83857257182e-07
7.39501661862e-07
6.88585252319e-07
6.35491167455e-07
5.84131989148e-07
5.3704853068e-07
4.94754388721e-07
4.55979086568e-07
4.18593221686e-07
3.80927920478e-07
3.4250609362e-07
3.03700570575e-07
2.646035819e-07
2.24270842165e-07
1.83000096058e-07
1.43652509542e-07
1.10747821542e-07
8.13902880883e-08
3.25683714786e-08
5.25571809593e-07
5.06969948191e-07
4.83103693662e-07
4.56069677338e-07
4.28393555868e-07
4.02251566504e-07
3.78873860289e-07
3.58087726528e-07
3.38454151106e-07
3.17931882181e-07
2.94907927233e-07
2.68865433065e-07
2.40313503826e-07
2.10121734881e-07
1.7897437406e-07
1.48001108586e-07
1.19043282574e-07
9.34527253336e-08
6.57779115438e-08
2.32934005524e-08
3.38316348473e-07
3.28788124848e-07
3.16701768848e-07
3.03322501239e-07
2.90113643678e-07
2.78265048817e-07
2.68316176996e-07
2.59840164881e-07
2.51521063251e-07
2.41595845036e-07
2.286035264e-07
2.1194215586e-07
1.91966882407e-07
1.69608682416e-07
1.4595184315e-07
1.2221502272e-07
9.93837370663e-08
7.72821713361e-08
5.09471248501e-08
1.59524868502e-08
2.18222330353e-07
2.13591284743e-07
2.07862593061e-07
2.01826550868e-07
1.96345994711e-07
1.9206435125e-07
1.89161587185e-07
1.8714795925e-07
1.84919462653e-07
1.81062771813e-07
1.74369760043e-07
1.64249257879e-07
1.50840166752e-07
1.34863173392e-07
1.17299022565e-07
9.90154004714e-08
8.055706233e-08
6.11204389223e-08
3.75524473278e-08
1.05559422871e-08
1.43117471438e-07
1.40881198448e-07
1.38255048615e-07
1.35758370734e-07
1.33921413964e-07
1.33087355746e-07
1.33246123311e-07
1.33916854188e-07
1.34212797718e-07
1.330737252e-07
1.29608959137e-07
1.2335288664e-07
1.14334912507e-07
1.03014251134e-07
9.00867520541e-08
7.61566300546e-08
6.14279601874e-08
4.51594037463e-08
2.6007328929e-08
6.71311241871e-09
9.79288681176e-08
9.67179564507e-08
9.53888646187e-08
9.4308262111e-08
9.38208584043e-08
9.41022590894e-08
9.50405246217e-08
9.61875644013e-08
9.6849829524e-08
9.62779559269e-08
9.38961032533e-08
8.94292895955e-08
8.29188493827e-08
7.46608684266e-08
6.5097236756e-08
5.46302482567e-08
4.33397487036e-08
3.07645451481e-08
1.67398818175e-08
4.07085104486e-09
7.17921195999e-08
7.09205523678e-08
6.99834737677e-08
6.92524339312e-08
6.896319441e-08
6.91958491291e-08
6.97900413197e-08
7.03490604729e-08
7.03516128018e-08
6.93100093612e-08
6.69080259676e-08
6.30555019288e-08
5.78489795402e-08
5.15186432973e-08
4.43537632192e-08
3.65881567781e-08
2.8285062866e-08
1.93551670649e-08
1.0050839849e-08
2.36898046479e-09
5.71231143371e-08
5.6290132842e-08
5.53450680419e-08
5.449559807e-08
5.39094880596e-08
5.36147526871e-08
5.34426357136e-08
5.30666531023e-08
5.2122061909e-08
5.03312778171e-08
4.75746061476e-08
4.38905864804e-08
3.94271451437e-08
3.43797100208e-08
2.89526106809e-08
2.32924104741e-08
1.74593834985e-08
1.14909698505e-08
5.7348186006e-09
1.35163153488e-09
4.89628189125e-08
4.80626140879e-08
4.69716334006e-08
4.58502301006e-08
4.48227406979e-08
4.38937877083e-08
4.29135209464e-08
4.1635332521e-08
3.98315884522e-08
3.73847150056e-08
3.43092939501e-08
3.07221150486e-08
2.67893869077e-08
2.26776263951e-08
1.85299305333e-08
1.44404146439e-08
1.04577041301e-08
6.6426020643e-09
3.22385846133e-09
7.74739614714e-10
4.42292717422e-08
4.32517603796e-08
4.20079731466e-08
4.06206750989e-08
3.91848712802e-08
3.7698724534e-08
3.6043938076e-08
3.40510680969e-08
3.1604630649e-08
2.87037839954e-08
2.54506215714e-08
2.2001604864e-08
1.85170323516e-08
1.51287639269e-08
1.19277238492e-08
8.96409011685e-09
6.25990696817e-09
3.8467883134e-09
1.83174980923e-09
4.56267067075e-10
4.10591957445e-08
4.0040884838e-08
3.87006694498e-08
3.71306519635e-08
3.54037387456e-08
3.35174575725e-08
3.13842264465e-08
2.88985927256e-08
2.60314881685e-08
2.2867294691e-08
1.9564970088e-08
1.62975555592e-08
1.3206836056e-08
1.03859884108e-08
7.88125416935e-09
5.70275323252e-09
3.84104950598e-09
2.29059894933e-09
1.07680290362e-09
2.79001953791e-10
3.8351485588e-08
3.73450905269e-08
3.59890838431e-08
3.43496616215e-08
3.24803179486e-08
3.03763095727e-08
2.79706186668e-08
2.52027532425e-08
2.21067992683e-08
1.88307005314e-08
1.55735390369e-08
1.25133858291e-08
9.76890695568e-09
7.39618564291e-09
5.40294381839e-09
3.76648866888e-09
2.4507780506e-09
1.42215135974e-09
6.61669066238e-10
1.77489367772e-10
3.54809997172e-08
3.4539525217e-08
3.32496373673e-08
3.16556456122e-08
2.97930764266e-08
2.76496224263e-08
2.51653894693e-08
2.23036925692e-08
1.91412902548e-08
1.58751798893e-08
1.27356872673e-08
9.90112146147e-09
7.46657151601e-09
5.45569780549e-09
3.84539699136e-09
2.58854857378e-09
1.63096601771e-09
9.22757174691e-10
4.24951681806e-10
1.16902834394e-10
3.21405230096e-08
3.13078824153e-08
3.01526674364e-08
2.87024849029e-08
2.69759679348e-08
2.494909491e-08
2.25561406005e-08
1.97647957854e-08
1.6676766801e-08
1.35271629017e-08
1.05709838645e-08
7.98363740429e-09
5.83841872078e-09
4.13235949155e-09
2.81986123134e-09
1.83837652628e-09
1.12405350445e-09
6.20474263578e-10
2.82171260153e-10
7.86588398749e-11
2.82469745347e-08
2.75514402839e-08
2.65787982788e-08
2.53441055427e-08
2.38514276349e-08
2.20628973961e-08
1.98987683619e-08
1.73159303114e-08
1.4425797987e-08
1.14913348648e-08
8.78426421045e-09
6.47295544235e-09
4.61061656208e-09
3.1743704013e-09
2.10504649907e-09
1.33310655098e-09
7.92417443925e-10
4.26719136038e-10
1.90886593256e-10
5.31128319227e-11
2.38243727223e-08
2.32816383e-08
2.2519976879e-08
2.15458721237e-08
2.03526488272e-08
1.88896066528e-08
1.70593714731e-08
1.47993376888e-08
1.22183330885e-08
9.59401179394e-09
7.2030563699e-09
5.20098477547e-09
3.6240862925e-09
2.4372140198e-09
1.57622370445e-09
9.72100017062e-10
5.62267942742e-10
2.94704427676e-10
1.28582099576e-10
3.50348525994e-11
1.88461958881e-08
1.84664227634e-08
1.7933546843e-08
1.72494805981e-08
1.64018605974e-08
1.53326374353e-08
1.39300766273e-08
1.21049381384e-08
9.94773671865e-09
7.73300658046e-09
5.7278696838e-09
4.07097218898e-09
2.78665764004e-09
1.83712432328e-09
1.16179506669e-09
6.98503503518e-10
3.92352279462e-10
1.98828182287e-10
8.3500342402e-11
2.16936578262e-11
1.31403619622e-08
1.29296199039e-08
1.2635027561e-08
1.22560652639e-08
1.17814473907e-08
1.11621902099e-08
1.02927123689e-08
9.05513498307e-09
7.48160592835e-09
5.80584736634e-09
4.27215911017e-09
3.00578872633e-09
2.0299514829e-09
1.31528007107e-09
8.13717680337e-10
4.75743678258e-10
2.57932362575e-10
1.24918117658e-10
4.94900704747e-11
1.18518780389e-11
7.13854250267e-09
7.06507972468e-09
6.96194376955e-09
6.82693062508e-09
6.65430379469e-09
6.42150861767e-09
6.07522914922e-09
5.52311132707e-09
4.70895080181e-09
3.7321552556e-09
2.77443039847e-09
1.9551059932e-09
1.31273217795e-09
8.39397862174e-10
5.08354661531e-10
2.88129624944e-10
1.49601829824e-10
6.82648058948e-11
2.4939030363e-11
5.33581826567e-12
2.93371742497e-09
2.91514263364e-09
2.88876965066e-09
2.85254647178e-09
2.80438291217e-09
2.73731151886e-09
2.63845289195e-09
2.4788749044e-09
2.21658282441e-09
1.84460320387e-09
1.42391881121e-09
1.02757941962e-09
6.97772945222e-10
4.4603837604e-10
2.66998736028e-10
1.47736869656e-10
7.38119585753e-11
3.18579446451e-11
1.07724122456e-11
2.09555436419e-12
7.82086546738e-09
9.62282606504e-10
5.35732990431e-09
7.43342456416e-10
3.82574241575e-09
7.24998420069e-10
3.93883283896e-09
1.05001767719e-09
5.91686726604e-09
1.84733155331e-09
9.6985346451e-09
3.146482043e-09
1.44738682367e-08
4.71152191611e-09
1.85568861814e-08
5.96191848487e-09
1.99986130226e-08
6.36346971964e-09
1.81307489434e-08
5.81559338393e-09
1.45051485771e-08
4.76878664074e-09
1.08091894836e-08
3.64213348231e-09
7.41377393084e-09
2.60141864658e-09
4.61592839637e-09
1.72593979269e-09
2.25584947387e-09
5.72744298138e-10
1.04257577614e-09
1.33946003139e-10
4.95723771503e-10
4.68560763074e-11
2.52930741251e-10
1.90390265943e-11
1.38911966117e-10
9.11507674015e-12
8.05482725973e-11
4.99705498743e-12
4.92971126483e-11
3.01140976922e-12
3.1834431815e-11
1.94939481344e-12
2.14063558163e-11
1.32296274176e-12
1.48229493283e-11
9.25573366697e-13
1.04467585691e-11
6.57683489711e-13
7.37609337853e-12
4.66422229849e-13
5.10116738494e-12
3.22157127409e-13
3.34626309676e-12
2.0964394858e-13
1.98789449684e-12
1.22950424826e-13
1.0092015839e-12
6.20598803461e-14
4.25681794082e-13
2.69045840426e-14
1.81698023793e-13
1.25631629078e-14
)
;

boundaryField
{
    inletfuel
    {
        type            fixedValue;
        value           nonuniform 0();
    }
    inletair
    {
        type            fixedValue;
        value           nonuniform 0();
    }
    outlet
    {
        type            zeroGradient;
    }
    axis
    {
        type            empty;
    }
    leftside
    {
        type            zeroGradient;
    }
    burnerwall
    {
        type            zeroGradient;
    }
    front
    {
        type            wedge;
    }
    back
    {
        type            wedge;
    }
    procBoundary1to0
    {
        type            processor;
        value           nonuniform List<scalar> 
27
(
0.130468727154
0.129132875787
0.126308198224
0.122565141963
0.000987658220448
0.000436067888838
0.000127319689783
2.54659671941e-05
5.63155834534e-06
1.07873561574e-06
7.38570396937e-08
0.114481251508
0.100681068374
0.0843277893726
0.0670607910156
0.0503653508874
0.035391458138
0.022983030681
0.013216373164
0.00658425792307
0.00326945675976
0.00175093241391
0.00105184809771
0.000690355717565
0.000690355717565
1.0200802625e-08
1.21323617919e-09
)
;
    }
}


// ************************************************************************* //
