/*--------------------------------*- C++ -*----------------------------------*\
  =========                 |
  \\      /  F ield         | OpenFOAM: The Open Source CFD Toolbox
   \\    /   O peration     | Website:  https://openfoam.org
    \\  /    A nd           | Version:  7
     \\/     M anipulation  |
\*---------------------------------------------------------------------------*/
FoamFile
{
    version     2.0;
    format      ascii;
    class       volScalarField;
    location    "0.1";
    object      H2O;
}
// * * * * * * * * * * * * * * * * * * * * * * * * * * * * * * * * * * * * * //

dimensions      [0 0 0 0 0 0 0];

internalField   nonuniform List<scalar> 
815
(
0.22509321631
0.225026986693
0.224880948028
0.202885170646
0.202541463875
0.201846114781
0.166244462863
0.165771284216
0.164861118713
0.141104904414
0.140768888577
0.140103038669
0.123420405778
0.123194878497
0.122771302898
0.107034785687
0.106903953405
0.106683772588
0.0904395472656
0.0903723730285
0.0902847473256
0.0757768646104
0.0757512013308
0.0757264027206
0.0651908032341
0.0651793066601
0.0651725033487
0.0580554255559
0.0580515332379
0.0580504520248
0.0528785434857
0.0528759792187
0.0528793966507
0.0486079016689
0.0486104524001
0.0486224086242
0.0447331571135
0.0447384735941
0.0447576282226
0.0410255615523
0.0410339836525
0.041060840229
0.0374899932636
0.0375014090542
0.0375336369615
0.0342323811488
0.0342443278651
0.0342785630195
0.0313508832058
0.0313644759859
0.0313992604883
0.0288973478019
0.0289107753318
0.0289437801231
0.0268412689386
0.0268540060978
0.0268844751078
0.0251156384067
0.0251274379822
0.0251549556661
0.0236452176693
0.023655435691
0.0236794552571
0.0223590355376
0.0223678114928
0.0223885631964
0.0212058959809
0.0212133048811
0.0212308032889
0.0201482952266
0.020154244859
0.0201685553995
0.0191597520835
0.0191645292479
0.019175969199
0.0182262331502
0.0182297514567
0.0182383405888
0.0173375010661
0.0173398891052
0.0173459353748
0.016490038971
0.0164914608017
0.0164953294699
0.0156901108173
0.0156906370481
0.0156925526542
0.0149605823599
0.0149602811836
0.0149603543379
0.0143764989285
0.0143757169941
0.0143741373563
0.224671678075
0.200919384525
0.16364889367
0.139200723002
0.12219789872
0.106391671774
0.0901769687693
0.0757050206563
0.0651714625146
0.0580547895144
0.0528883393525
0.0486428273286
0.0447880227759
0.0411017293681
0.0375816210462
0.0343290347212
0.0314498542487
0.0289916674241
0.0269286278512
0.0251948391383
0.0237143727793
0.0224187292621
0.0212562846543
0.0201894505654
0.019192742252
0.0182511036332
0.0173551136997
0.0165013994967
0.0156957629383
0.0149606877856
0.0143718841577
0.126748169078
0.110171699093
0.0631995597495
0.020251724973
0.00521228704689
0.000998406028696
0.000190453363459
0.224183162993
0.222814063808
0.219975868426
0.214777287785
0.206544943042
0.194379596358
0.176189772695
0.152281858046
0.128204873384
0.108254057993
0.094594186284
0.0871310167175
0.0850653285085
0.0862148420927
0.0798991780794
0.0449165340041
0.0143550459545
0.00387667253266
0.000733734599883
0.000216960574436
0.198794372332
0.194032907642
0.186164416704
0.17459146473
0.159566043888
0.142000308484
0.122874766467
0.104076958124
0.0877597313814
0.0751034269861
0.0661502349421
0.0603274944601
0.0572117670533
0.0557179479035
0.0498342608575
0.0274123085575
0.0090866792406
0.0026241243924
0.00055403719811
0.000272350657171
0.160996161427
0.155627025585
0.147998401409
0.13805905114
0.126078598185
0.112670635918
0.098671908859
0.0850327779117
0.0727757955898
0.0624624827522
0.0540684583566
0.0473061504212
0.0419188518071
0.037244577567
0.0306257180947
0.0169826479489
0.00623919361185
0.00208902340156
0.000641772907467
0.000383630604787
0.137262075677
0.133296245138
0.127716083097
0.120521776782
0.111840692006
0.101956577069
0.0913058330511
0.0804803607722
0.0700876207047
0.0605002791891
0.0517556071646
0.0437591753469
0.0364351678855
0.0295998985039
0.0222288328648
0.0125186924537
0.00561371779093
0.00248222693679
0.00104824014916
0.000594022916638
0.120984209248
0.118506196797
0.114949472824
0.110248663877
0.104395298628
0.0974780723001
0.0896655633921
0.0812570949451
0.0725834507532
0.0638785112308
0.0552174572881
0.0466198441492
0.0381519608273
0.0299069996903
0.0217368527215
0.013213573894
0.0074165438508
0.0040701918397
0.00195616558509
0.000957052863898
0.105771260174
0.104505372365
0.102607723606
0.100000300098
0.0965996982881
0.0923922678325
0.0873905329598
0.0816667520638
0.0753151586678
0.0683998463645
0.0609338645617
0.0529130431271
0.0443956698967
0.0355408707987
0.0265008841623
0.0179404708527
0.0117836226896
0.00720939533214
0.00351156845801
0.00150133773123
0.0899466193036
0.0894804872225
0.0887135154465
0.0875937835238
0.0860406585641
0.0839918722164
0.0813776612301
0.0781628827205
0.0743130094773
0.0697720418351
0.0644455073197
0.0582168040381
0.0509982894034
0.0427995387104
0.0339166876887
0.0253494655974
0.0180788928288
0.0115176556655
0.00553233242288
0.00216567944587
0.0756519517144
0.0755339151971
0.0752843247035
0.0748688098151
0.0742308097884
0.0733135623305
0.0720509364013
0.070390360078
0.0682889363819
0.0656974282702
0.0625250657991
0.0586046695569
0.0537199439923
0.047623384652
0.0402258160353
0.0322164513967
0.0241133458465
0.0154988179478
0.00722876899185
0.00279105783645
0.0651661963859
0.0651449345579
0.0650592673365
0.0648710631402
0.064530502314
0.0639749580412
0.0631468997109
0.0620024670628
0.0605259478452
0.0587205442561
0.05658372134
0.0540493766145
0.0509446788913
0.0469628095485
0.0417365118094
0.0351693293908
0.0271276556074
0.0173165793108
0.0079131033131
0.00329368610616
0.0580605479618
0.0580658696161
0.0580318540572
0.0579141535623
0.0576536996642
0.0571812076693
0.0564327807822
0.0553629697558
0.0539624582917
0.0522605322274
0.0503039075451
0.0481077582149
0.0456112629321
0.0426086489817
0.0387212917307
0.0334911029625
0.0262521004444
0.0166783063339
0.00779420672785
0.00382451084486
0.0529080088895
0.0529461121891
0.0529615925159
0.0529055459086
0.0527126460655
0.0523067947503
0.0516152317429
0.0505836374612
0.0491932880708
0.0474655947495
0.0454481726861
0.0431800954876
0.0406489781089
0.0377387451953
0.0341810432642
0.0295291259108
0.0231554459971
0.0149586856009
0.00769799206959
0.00467735177933
0.0486859892414
0.0487720201624
0.0488565990744
0.048891657424
0.048811319037
0.0485376077431
0.0479928215012
0.0471134969288
0.0458646276531
0.04424372177
0.0422709700645
0.0399667558203
0.0373252914776
0.0342834255729
0.0306779069023
0.0262233112609
0.0205771522425
0.0138769974123
0.00820561978449
0.0059984542425
0.0448543577717
0.0449923000419
0.0451546528187
0.0452976849675
0.0453599500178
0.0452667070209
0.0449406520813
0.044313561503
0.0433374890476
0.0419873525798
0.0402538044104
0.0381289425435
0.0355929134358
0.0326002366569
0.0290578463309
0.02482280302
0.0197871923548
0.0142053710597
0.0096198228842
0.0078605622396
0.0411910328621
0.0413764191009
0.0416100025545
0.0418554467997
0.0420591295118
0.0421538313274
0.0420679763023
0.0417348880988
0.041101446229
0.0401289913069
0.0387874728341
0.0370455324483
0.0348652055999
0.0322001890575
0.0289896287095
0.0251669941069
0.0207137257585
0.0159184295974
0.0119423884357
0.0102038382928
0.0376861312927
0.0379037097993
0.038188448312
0.0385115910151
0.0388281759523
0.0390803042547
0.0392052735851
0.0391433030107
0.0388442542096
0.0382673336867
0.0373751704776
0.0361252052743
0.0344667209858
0.0323433671188
0.0296974039431
0.0264707499673
0.0226692701202
0.0185312040456
0.0148899492952
0.0128706232565
0.0344397916983
0.0346723613286
0.0349844691221
0.035353752552
0.0357430032848
0.0361030625017
0.0363802168301
0.0365234498165
0.036490110264
0.0362451314651
0.0357550396074
0.0349794290429
0.0338662509969
0.0323542083472
0.03037588237
0.0278632912856
0.0247948665329
0.021317695497
0.0179641131908
0.0156359281542
0.0315605876336
0.0317942409395
0.0321130938863
0.0325001259839
0.032924507916
0.0333442666423
0.0337130724288
0.0339875858725
0.0341329326044
0.0341217836874
0.0339292759139
0.0335241825078
0.0328632519565
0.03189057553
0.030538389548
0.0287295469671
0.0264073729021
0.0236180970728
0.0206629240785
0.018265994519
0.0290969923037
0.0293218934077
0.029632969372
0.0300173086656
0.0304492401575
0.0308924793108
0.0313061619996
0.0316525880506
0.0319027167421
0.0320356905339
0.0320342388086
0.0318776754108
0.0315347980166
0.0309617777812
0.0301003675626
0.0288776825164
0.027221001441
0.0251142181771
0.0227086754704
0.02058316843
0.0270262133369
0.0272365927875
0.0275306997475
0.0278991595664
0.0283207364868
0.028763921726
0.0291920631797
0.0295712899474
0.0298761305887
0.0300899019505
0.0302008246587
0.030195932605
0.0300557197844
0.0297495495561
0.0292344976973
0.028452936102
0.0273412192642
0.0258626494335
0.0240944707325
0.0224943108925
0.0252832978565
0.0254754771045
0.0257468143771
0.0260911039439
0.0264914270112
0.0269207271873
0.0273459713259
0.0277358368671
0.0280668315064
0.0283245745713
0.0285006131156
0.0285876280326
0.0285748095416
0.0284439406654
0.0281679179274
0.0277092706925
0.0270256408843
0.0260919975881
0.0249621601552
0.0239830750062
0.0237924360083
0.0239639231136
0.0242087308804
0.0245235890317
0.02489589207
0.0253032482538
0.0257163004848
0.0261058403579
0.0264494076461
0.0267336485689
0.026952269344
0.0271020354435
0.0271788014291
0.0271748934422
0.0270770611172
0.0268669946892
0.0265251752594
0.0260467454566
0.0254838894705
0.0250953949439
0.0224865024624
0.0226362866672
0.0228523755217
0.0231344457152
0.0234743280136
0.0238546670075
0.0242503873082
0.0246346702959
0.0249856319024
0.0252905758668
0.0255445732872
0.0257475546829
0.0259008819572
0.0260048472145
0.0260579616347
0.0260571103838
0.0260010651936
0.0259020108731
0.0258137511105
0.0259279042808
0.0213137313603
0.0214414965101
0.0216279321821
0.0218753215879
0.0221798155532
0.0225297182609
0.0229050189356
0.0232820281824
0.0236398549905
0.0239660252553
0.0242566827342
0.0245142587957
0.0247442314807
0.0249533978287
0.0251488243179
0.0253382059335
0.0255328137324
0.0257551663218
0.0260578227033
0.0265825665994
0.0202368187138
0.0203430358464
0.0205000454681
0.0207120546901
0.0209795585656
0.0212965521932
0.0216493400634
0.0220185209603
0.0223849404618
0.022736336846
0.023069380675
0.023388253727
0.0237015720621
0.024020576473
0.024358209063
0.0247292533115
0.0251520604737
0.025653721731
0.0262823898818
0.0271445016572
0.0192308214731
0.0193167466764
0.0194453545443
0.0196226184452
0.0198525607245
0.0201353706226
0.0204645445915
0.0208263470901
0.021204447112
0.021586893963
0.0219703602815
0.022359768063
0.0227654246561
0.0232014109308
0.0236842042157
0.0242325887726
0.0248683991081
0.0256197233105
0.0265290965107
0.0276798913968
0.0182803008483
0.0183472392113
0.0184492209308
0.0185932600783
0.0187866306507
0.0190353633773
0.0193411509152
0.0196976664603
0.0200920865108
0.0205127136512
0.0209555466049
0.0214248784259
0.0219317618512
0.0224912802806
0.0231217574531
0.0238437848746
0.0246807682552
0.025659997428
0.0268206857179
0.0282355145879
0.0173763490119
0.0174259968424
0.0175035029825
0.0176165322367
0.0177752257505
0.0179915632434
0.0182761008899
0.0186311562306
0.0190482071085
0.0195151656605
0.0200260837298
0.0205836344739
0.0211979737911
0.0218844740316
0.0226618977102
0.0235518556834
0.024578444223
0.0257707204523
0.027170301448
0.028844003984
0.0165156154036
0.0165494841341
0.0166042493574
0.0166880543506
0.0168136203442
0.0169988658451
0.0172645368872
0.0176233130252
0.0180707271063
0.0185922977782
0.0191782209148
0.0198286775472
0.020552320794
0.0213640072616
0.0222828867315
0.0233315823337
0.0245379655316
0.0259363242062
0.0275751113149
0.0295199824081
0.0157034121836
0.0157218692101
0.0157540481223
0.0158081236257
0.0158985224154
0.0160487471984
0.0162915803267
0.0166549564018
0.0171399147675
0.017724672476
0.0183913716163
0.0191363725917
0.0199673547149
0.0208989977903
0.0219518879277
0.0231516442374
0.0245309190691
0.0261329260667
0.0280179140712
0.0302515542006
0.014961645317
0.0149646447458
0.0149738907386
0.0149969221484
0.0150482878626
0.0151542048955
0.0153576422269
0.0157076266354
0.0162220188695
0.0168720774109
0.0176237588545
0.0184649880106
0.0194013926275
0.0204486872961
0.0216293249021
0.0229728614301
0.0245181141198
0.0263180101888
0.0284463612481
0.0309678414625
0.0143668390773
0.0143565037049
0.0143459242864
0.0143417593386
0.0143580309883
0.0144214940583
0.0145799390457
0.014897216045
0.0154140775995
0.0161092295711
0.0169356752663
0.0178672701819
0.0189033574973
0.0200576948666
0.0213540044535
0.0228230980854
0.0245075228335
0.0264635797221
0.0287744739083
0.0314989362107
0.000427193085888
0.000644917962628
0.000539236305046
0.000794138537565
0.000686412558856
0.000975470905277
0.000871821336732
0.00119021996265
0.001102097402
0.00144209855254
0.00139548920071
0.00174466033363
0.00177367589553
0.00212158326523
0.00224583345166
0.00260409636836
0.00282386172086
0.00323887661091
0.00355876068495
0.0040950121389
0.00456038154134
0.00525099139245
0.00592719884951
0.00676234287139
0.00771511412933
0.00863187145477
0.00990847600366
0.0108056397515
0.0123637139734
0.0132628793459
0.0149031730944
0.0158476305313
0.0174362614493
0.0183364552003
0.0198184806935
0.0206258931585
0.0219395455609
0.0226384985814
0.0237322023195
0.0243324893638
0.0251780171447
0.0257173903701
0.0263194483853
0.0268396632485
0.0272332983221
0.0277695426236
0.0280038413263
0.0285818788159
0.0287063032642
0.029341949396
0.0293989794476
0.030100937648
0.0301252457609
0.0308923395029
0.0309097176544
0.0317290196695
0.0317524119026
0.0325927027082
0.0326081154721
0.0334216379066
0.0333634498474
0.0341070832378
0.0338344851982
0.0345168780289
)
;

boundaryField
{
    inletfuel
    {
        type            fixedValue;
        value           nonuniform 0();
    }
    inletair
    {
        type            fixedValue;
        value           nonuniform 0();
    }
    outlet
    {
        type            zeroGradient;
    }
    axis
    {
        type            empty;
    }
    leftside
    {
        type            zeroGradient;
    }
    burnerwall
    {
        type            zeroGradient;
    }
    front
    {
        type            wedge;
    }
    back
    {
        type            wedge;
    }
    procBoundary1to0
    {
        type            processor;
        value           nonuniform List<scalar> 
27
(
0.218318419181
0.218592016119
0.219163121155
0.219912881877
0.165801651353
0.126237652541
0.0677048836294
0.0229986545789
0.00613570641369
0.00117269385851
0.000175292089296
0.221512293927
0.224035043125
0.226557257632
0.228305321935
0.228443531873
0.22603478446
0.219783299411
0.207992220981
0.193725225558
0.172006716212
0.151321367679
0.136793436782
0.130030709561
0.130030709561
0.000343327606871
0.000525225096152
)
;
    }
}


// ************************************************************************* //
