/*--------------------------------*- C++ -*----------------------------------*\
  =========                 |
  \\      /  F ield         | OpenFOAM: The Open Source CFD Toolbox
   \\    /   O peration     | Website:  https://openfoam.org
    \\  /    A nd           | Version:  7
     \\/     M anipulation  |
\*---------------------------------------------------------------------------*/
FoamFile
{
    version     2.0;
    format      ascii;
    class       volScalarField;
    location    "0.1";
    object      HE;
}
// * * * * * * * * * * * * * * * * * * * * * * * * * * * * * * * * * * * * * //

dimensions      [0 0 0 0 0 0 0];

internalField   nonuniform List<scalar> 
815
(
3.40880589491e-05
3.41532422196e-05
3.42864882483e-05
5.29693664409e-05
5.29125924935e-05
5.27679217575e-05
6.41581046085e-05
6.40610856078e-05
6.37954364798e-05
7.53031240438e-05
7.51837806902e-05
7.48720365954e-05
8.89970689958e-05
8.89013578186e-05
8.86263205327e-05
0.000105062049717
0.000104989532251
0.000104767638495
0.000121068788251
0.000121015567088
0.000120850145533
0.000133102116361
0.000133053484364
0.000132927147635
0.00013970824498
0.000139667512128
0.000139570320055
0.000142614187547
0.000142579424763
0.000142501082986
0.000143657531882
0.000143628965195
0.000143565367901
0.000143749723232
0.000143727880739
0.000143680047406
0.000143219179457
0.000143203970515
0.000143171927827
0.000142155488104
0.000142145739281
0.000142127182932
0.000140595454122
0.000140589243944
0.000140579140528
0.000138592529797
0.000138586089134
0.000138577586478
0.000136208821826
0.000136201150808
0.000136188686314
0.000133509191546
0.000133497357368
0.000133475332778
0.000130516667905
0.000130499520069
0.000130465374652
0.000127226992736
0.000127204847221
0.00012715886388
0.000123615719272
0.000123588665509
0.000123532790945
0.000119625531477
0.000119595883661
0.00011953508144
0.000115200346486
0.000115170469113
0.000115109185884
0.000110281354004
0.000110252292066
0.000110193965303
0.000104813674374
0.000104787721172
0.000104735478128
9.87915886528e-05
9.87681079406e-05
9.87215518694e-05
9.22338406984e-05
9.22129324139e-05
9.2172315497e-05
8.52220431769e-05
8.5204257458e-05
8.51706988445e-05
7.79269735894e-05
7.79127785961e-05
7.78878732515e-05
7.06816942633e-05
7.06707893311e-05
7.06534787087e-05
6.45098169813e-05
6.45021331409e-05
6.44858535444e-05
3.4450261299e-05
5.25431769275e-05
6.33999549354e-05
7.44083990811e-05
8.82148777593e-05
0.000104434100323
0.000120601751583
0.000132739079241
0.000139428330897
0.000142387444159
0.000143473295068
0.000143610593239
0.000143125147708
0.000142099763547
0.00014056377894
0.000138564496512
0.000136169607131
0.000133442697186
0.00013041571305
0.000127092790518
0.000123453279457
0.000119448864053
0.00011502263901
0.000110111866453
0.000104662287571
9.86571619206e-05
9.21170104164e-05
8.51257036504e-05
7.78547358009e-05
7.06289110846e-05
6.44604418877e-05
3.8560382724e-06
2.39257971273e-06
9.92891776404e-07
2.64889398781e-07
1.00579469359e-07
4.68592239998e-08
2.6935579367e-08
3.47562836622e-05
3.51367707369e-05
3.53132852174e-05
3.50035914653e-05
3.39607855143e-05
3.1960732325e-05
2.86405707461e-05
2.41676362011e-05
1.89597374875e-05
1.37618040706e-05
9.35165144367e-06
6.10706897906e-06
3.95383570871e-06
2.60151733657e-06
1.64089637346e-06
7.16619275454e-07
2.69998700504e-07
1.60824432877e-07
9.92787281603e-08
5.83293421017e-08
5.20154022268e-05
5.07687515071e-05
4.87875910351e-05
4.5886652242e-05
4.19932704341e-05
3.71061740617e-05
3.12609548323e-05
2.48275604825e-05
1.8498745764e-05
1.29939473446e-05
8.68070851248e-06
5.56529608961e-06
3.46770360305e-06
2.14086337118e-06
1.28265188209e-06
6.54294421852e-07
3.91513130992e-07
2.9675961445e-07
2.21011025822e-07
1.24428667298e-07
6.25003628062e-05
6.04167418286e-05
5.73679535661e-05
5.32961164061e-05
4.82236609606e-05
4.22508723778e-05
3.56083125895e-05
2.8672307914e-05
2.1977154004e-05
1.60109417773e-05
1.10600267513e-05
7.23667481817e-06
4.52510572237e-06
2.758092876e-06
1.6661479645e-06
1.02005820518e-06
7.44315132163e-07
5.81971500626e-07
4.25054153136e-07
2.59856144667e-07
7.33941290161e-05
7.11110961425e-05
6.78623118609e-05
6.36276078723e-05
5.84444191452e-05
5.23691682291e-05
4.55854498441e-05
3.83544724911e-05
3.10245551874e-05
2.39807834675e-05
1.75684361169e-05
1.21205347927e-05
7.90631141315e-06
4.98068085459e-06
3.1374143343e-06
2.07653280501e-06
1.53043467446e-06
1.15650286023e-06
8.34439982512e-07
5.2472424137e-07
8.73114123952e-05
8.52555062559e-05
8.23308518188e-05
7.8498895306e-05
7.37563915727e-05
6.80689349832e-05
6.15184013454e-05
5.41781099254e-05
4.62014142213e-05
3.78782403742e-05
2.956642486e-05
2.18103835039e-05
1.52055078319e-05
1.01531321167e-05
6.66709591182e-06
4.52389023665e-06
3.22323974234e-06
2.28186917754e-06
1.58313605761e-06
9.98772004204e-07
0.000103699238695
0.00010202224595
9.96322216184e-05
9.64503826147e-05
9.2448541988e-05
8.75698757782e-05
8.17519029474e-05
7.48875085634e-05
6.69120662031e-05
5.78542957639e-05
4.79637465963e-05
3.78457354737e-05
2.83153706937e-05
2.01710008403e-05
1.38272074374e-05
9.49101542518e-06
6.55699306448e-06
4.38081798319e-06
2.84160634488e-06
1.76298422209e-06
0.00012005145428
0.000118808501211
0.00011702836166
0.000114611630533
0.000111469528643
0.000107478731275
0.000102515848335
9.64192188702e-05
8.90206806714e-05
8.01684906331e-05
6.98818765407e-05
5.84912699715e-05
4.66151496871e-05
3.52026716164e-05
2.53808062367e-05
1.7806922306e-05
1.20420027136e-05
7.65660921202e-06
4.69257585661e-06
2.87344582368e-06
0.000132326114252
0.000131410547002
0.000130070270168
0.000128198746863
0.000125677522115
0.00012236303732
0.000118093933465
0.000112687253395
0.000105950570626
9.77123842441e-05
8.79110001979e-05
7.66659525468e-05
6.43601607113e-05
5.14899596308e-05
3.89225197007e-05
2.78956298665e-05
1.87461401237e-05
1.15874311531e-05
6.9675303494e-06
4.37890087539e-06
0.000139112191034
0.000138401955188
0.00013731802112
0.000135747681534
0.000133549262963
0.000130564654881
0.00012661175332
0.000121502965539
0.000115055244492
0.000107139056088
9.77197266826e-05
8.68954587233e-05
7.48970658748e-05
6.20597856101e-05
4.88865160539e-05
3.60541844178e-05
2.44708430298e-05
1.52409005257e-05
9.54757035869e-06
6.44889061665e-06
0.000142131983046
0.000141540583953
0.000140599911347
0.000139185420754
0.000137140753263
0.000134287942849
0.000130433433715
0.00012539017696
0.000118998504259
0.000111162000826
0.000101870377352
9.12149367047e-05
7.94308885965e-05
6.68041246109e-05
5.36953038568e-05
4.06637580335e-05
2.85202812641e-05
1.87712596716e-05
1.28498270881e-05
9.50126499943e-06
0.000143264872071
0.00014276958463
0.000141953981267
0.000140685486093
0.000138797322606
0.000136099073566
0.000132390245466
0.000127481905819
0.000121223032298
0.000113529932969
0.000104413275059
9.39852696319e-05
8.24432535512e-05
7.00619287535e-05
5.72142298273e-05
4.44713848321e-05
3.27447061138e-05
2.35029434603e-05
1.77152283547e-05
1.41529509453e-05
0.00014345187033
0.000143063004535
0.000142396176551
0.000141319031194
0.000139666678874
0.000137254445766
0.000133893834154
0.000129410741746
0.000123663170312
0.000116558535388
0.000108070598242
9.82549384892e-05
8.72640754738e-05
7.53709268555e-05
6.29957915303e-05
5.07636059211e-05
3.96365570617e-05
3.0853288602e-05
2.49477909998e-05
2.08408939038e-05
0.000143016803965
0.000142737341829
0.000142227658704
0.000141360837305
0.000139982117953
0.000137925176674
0.000135029930983
0.00013115606271
0.000126188529749
0.000120038929999
0.000112649264929
0.000104008571712
9.41837544686e-05
8.33743338956e-05
7.19560709271e-05
6.05248440461e-05
4.99830386371e-05
4.13650790382e-05
3.49530014097e-05
2.96230428132e-05
0.000142033884314
0.000141845515398
0.000141466267089
0.000140775334971
0.00013963085659
0.000137891303605
0.000135436198073
0.000132175565019
0.000128043341024
0.000122982050287
0.000116932102316
0.000109840551249
0.000101694577332
9.25853908389e-05
8.27555385243e-05
7.26478826461e-05
6.29477648115e-05
5.44576615253e-05
4.7226480233e-05
3.98261461609e-05
0.000140523850208
0.000140388826527
0.000140082105705
0.000139483976472
0.000138460871414
0.000136894210632
0.000134706585836
0.00013186899271
0.000128383823689
0.00012425418523
0.000119458408899
0.000113945248025
0.000107660802711
0.000100590449056
9.28167428407e-05
8.45475423111e-05
7.61561918998e-05
6.80716270171e-05
6.00136917439e-05
5.00242588926e-05
0.000138529494526
0.000138400675739
0.000138093604367
0.000137481517953
0.000136429898529
0.000134834874633
0.000132657369557
0.000129929931642
0.000126729982967
0.000123135820993
0.00011919010103
0.000114884930035
0.000110169273685
0.000104979912364
9.92741055165e-05
9.30363576342e-05
8.63075157259e-05
7.9055383983e-05
7.05213312721e-05
5.82277645472e-05
0.000136120070781
0.000135952973284
0.000135576811619
0.000134850244046
0.000133628029183
0.000131810443088
0.000129387111919
0.000126444456225
0.000123129070091
0.000119591123873
0.000115941205731
0.00011222836372
0.00010843842002
0.000104511079614
0.000100352680156
9.58143197686e-05
9.06688260095e-05
8.44623633812e-05
7.59917780032e-05
6.24689874896e-05
0.000133362659785
0.000133123967867
0.000132628981927
0.000131716731474
0.000130223999789
0.000128045732249
0.000125189273911
0.000121783166702
0.000118030500331
0.000114139649659
0.000110275982559
0.000106539997755
0.000102960883
9.95056734614e-05
9.60777176292e-05
9.24824536024e-05
8.83578227255e-05
8.30205656945e-05
7.50450785723e-05
6.16158269012e-05
0.000130297508545
0.000129971297695
0.000129335065793
0.000128206951856
0.000126401744345
0.000123801404519
0.000120419807295
0.000116414668794
0.000112031920888
0.00010752464296
0.000103098199773
9.88891671811e-05
9.49619531058e-05
9.13090879825e-05
8.78516847641e-05
8.43972152566e-05
8.05648482853e-05
7.56304077015e-05
6.82351708561e-05
5.59174458348e-05
0.00012693764872
0.000126528045584
0.000125759500382
0.000124430441286
0.000122331418126
0.00011932326854
0.000115413698607
0.000110776475467
0.000105690234605
0.00010044518478
9.52788776792e-05
9.03531861237e-05
8.57542464758e-05
8.14931175307e-05
7.75075699381e-05
7.36297425389e-05
6.95251393178e-05
6.4580801005e-05
5.76903406678e-05
4.68620288502e-05
0.000123269093911
0.000122796787387
0.000121930729032
0.000120452442314
0.00011812678
0.000114784696755
0.000110413267802
0.000105188991065
9.94167916545e-05
9.34233998417e-05
8.74787814317e-05
8.17677204076e-05
7.63909645521e-05
7.1373355266e-05
6.66656722524e-05
6.21319272626e-05
5.75085960222e-05
5.23384821069e-05
4.58336142251e-05
3.65893913002e-05
0.000119250133789
0.000118746249138
0.000117831670294
0.000116276065199
0.000113818757156
0.000110252613054
0.0001055290543
9.98138556111e-05
9.3434237746e-05
8.67578282324e-05
8.00926837244e-05
7.36498769718e-05
6.75454900416e-05
6.18158013956e-05
5.64280473801e-05
5.12793371938e-05
4.61789673953e-05
4.08196545918e-05
3.47002966707e-05
2.69541642353e-05
0.000114823292766
0.000114319805316
0.00011340774482
0.000111850469602
0.000109364075535
0.000105697922294
0.000100753356967
9.46720429438e-05
8.78001099351e-05
8.05527304045e-05
7.32846373895e-05
6.62387232967e-05
5.95497457335e-05
5.32672205286e-05
4.73759194546e-05
4.18057007425e-05
3.64314285106e-05
3.10657270316e-05
2.54229664389e-05
1.90450310721e-05
0.000109923318338
0.000109447186058
0.000108581376351
0.000107088140131
0.00010466604604
0.000101019095626
9.59884189053e-05
8.96783239465e-05
8.245084716e-05
7.47742131949e-05
6.70573786939e-05
5.9579742594e-05
5.24962502526e-05
4.58708809128e-05
3.97055801279e-05
3.3958860087e-05
2.85564051808e-05
2.33955668645e-05
1.83314089891e-05
1.31546258261e-05
0.00010449326021
0.000104063124699
0.000103272840565
0.000101890488256
9.96031691214e-05
9.60741512493e-05
9.10793838184e-05
8.4676644515e-05
7.72413808179e-05
6.92978103506e-05
6.13106370802e-05
5.35949248996e-05
4.63247016882e-05
3.95758713509e-05
3.33635032246e-05
2.76673775705e-05
2.2446468112e-05
1.76497144886e-05
1.32098885603e-05
9.04054621813e-06
9.85088584653e-05
9.81315596449e-05
9.74307208207e-05
9.61837163279e-05
9.4073575549e-05
9.07301658219e-05
8.58682154517e-05
7.94966119505e-05
7.20030481772e-05
6.39668738032e-05
5.59025025505e-05
4.8152720838e-05
4.09030871305e-05
3.42351400073e-05
2.81715548931e-05
2.27042866174e-05
1.78109462491e-05
1.34659733333e-05
9.63205337635e-06
6.26636976549e-06
9.199006228e-05
9.16658857786e-05
9.10561124508e-05
8.99498232115e-05
8.80330724292e-05
8.49117061253e-05
8.02474951462e-05
7.40087330296e-05
6.65995469044e-05
5.86476634331e-05
5.07023144696e-05
4.31173636151e-05
3.60799270928e-05
2.96692068023e-05
2.39082760739e-05
1.87932078585e-05
1.43089011531e-05
1.04339573088e-05
7.1389949457e-06
4.40324233766e-06
8.50219652809e-05
8.47509469695e-05
8.42311490394e-05
8.32664641531e-05
8.15524982878e-05
7.86792880373e-05
7.42614682462e-05
6.82308718195e-05
6.10208228677e-05
5.33090058757e-05
4.56599449189e-05
3.84161877134e-05
3.17494288948e-05
2.57299098837e-05
2.03755612336e-05
1.56803944348e-05
1.16270577117e-05
8.19588496538e-06
5.36473654335e-06
3.12093616979e-06
7.77768901026e-05
7.75602357008e-05
7.71337316e-05
7.63220379655e-05
7.48405592036e-05
7.22743996243e-05
6.81800917144e-05
6.24196830404e-05
5.54603163501e-05
4.80683076098e-05
4.08251605244e-05
3.40385475329e-05
2.78447587921e-05
2.22937309296e-05
1.73944216526e-05
1.31367390659e-05
9.50571309908e-06
6.48254037121e-06
4.05093248201e-06
2.20615692697e-06
7.05688303753e-05
7.03920725506e-05
7.00421815052e-05
6.93726163285e-05
6.81361650953e-05
6.59452629065e-05
6.23211215496e-05
5.69946893002e-05
5.03628070307e-05
4.32947449347e-05
3.64545174016e-05
3.01333225157e-05
2.442526209e-05
1.93486693731e-05
1.48993306495e-05
1.10617815695e-05
7.82179767555e-06
5.16350646001e-06
3.07610460754e-06
1.56004521299e-06
6.43974571342e-05
6.42204956789e-05
6.38879280404e-05
6.32782985862e-05
6.21847618235e-05
6.02696384941e-05
5.70829053979e-05
5.22864970803e-05
4.6130141106e-05
3.94474887641e-05
3.29755077993e-05
2.70455217523e-05
2.17444689417e-05
1.70715048936e-05
1.30067125856e-05
9.52862678028e-06
6.61938171445e-06
4.26528234693e-06
2.45181357914e-06
1.178488243e-06
3.18487176611e-08
4.30036215248e-08
6.93663190436e-08
9.15903066848e-08
1.46317395453e-07
1.869830389e-07
2.95329485277e-07
3.63312419899e-07
5.65504099386e-07
6.69051743599e-07
1.02297165321e-06
1.17129840341e-06
1.74775144085e-06
1.96548904218e-06
2.84605488581e-06
3.19681742304e-06
4.49570276188e-06
5.1004000548e-06
7.01067587529e-06
8.02070332512e-06
1.08220240903e-05
1.23288621426e-05
1.62735558746e-05
1.82024234141e-05
2.33359315571e-05
2.53607155655e-05
3.13726460057e-05
3.29607603998e-05
3.90728824869e-05
3.97047724293e-05
4.49195628722e-05
4.39917055038e-05
4.76211809129e-05
4.47416848567e-05
4.65630042411e-05
4.1882295102e-05
4.21266229905e-05
3.62732594128e-05
3.54654506181e-05
2.93128897745e-05
2.80469898792e-05
2.23343966012e-05
2.1060785285e-05
1.62391539034e-05
1.5179429167e-05
1.14067771155e-05
1.06253033877e-05
7.8326776688e-06
7.31110673999e-06
5.31774236954e-06
5.00633822396e-06
3.60415485418e-06
3.43879913212e-06
2.45417982783e-06
2.37321338938e-06
1.67918521613e-06
1.63422586056e-06
1.14909050794e-06
1.11559914242e-06
7.85970630121e-07
7.68542094931e-07
5.50733935143e-07
5.84229028439e-07
4.28397974459e-07
)
;

boundaryField
{
    inletfuel
    {
        type            fixedValue;
        value           nonuniform 0();
    }
    inletair
    {
        type            fixedValue;
        value           nonuniform 0();
    }
    outlet
    {
        type            zeroGradient;
    }
    axis
    {
        type            empty;
    }
    leftside
    {
        type            zeroGradient;
    }
    burnerwall
    {
        type            zeroGradient;
    }
    front
    {
        type            wedge;
    }
    back
    {
        type            wedge;
    }
    procBoundary1to0
    {
        type            processor;
        value           nonuniform List<scalar> 
27
(
1.01310380529e-05
1.02795512051e-05
1.05974995322e-05
1.10153407385e-05
4.72033835272e-06
2.68459145676e-06
1.03912424738e-06
2.65271780209e-07
7.49785102199e-08
3.02550404094e-08
1.27379264182e-08
1.19114449658e-05
1.35055687048e-05
1.54763319457e-05
1.76011823254e-05
1.95826056353e-05
2.10436335002e-05
2.15365689107e-05
2.07910710564e-05
1.85467818896e-05
1.52657049447e-05
1.16313630748e-05
8.27755159463e-06
5.67499310628e-06
5.67499310628e-06
1.43082306276e-08
1.95182698756e-08
)
;
    }
}


// ************************************************************************* //
