/*--------------------------------*- C++ -*----------------------------------*\
  =========                 |
  \\      /  F ield         | OpenFOAM: The Open Source CFD Toolbox
   \\    /   O peration     | Website:  https://openfoam.org
    \\  /    A nd           | Version:  7
     \\/     M anipulation  |
\*---------------------------------------------------------------------------*/
FoamFile
{
    version     2.0;
    format      ascii;
    class       volScalarField;
    location    "0.1";
    object      k;
}
// * * * * * * * * * * * * * * * * * * * * * * * * * * * * * * * * * * * * * //

dimensions      [0 2 -2 0 0 0 0];

internalField   nonuniform List<scalar> 
815
(
8.46817168115
8.38847146905
8.20882113361
3.27619238854
3.25684956044
3.21746794673
2.43609383352
2.42939162447
2.420308606
2.25772455982
2.25274660158
2.24637510874
2.00261698732
1.99723120029
1.99001899815
1.60233217601
1.59865448443
1.59465612147
1.12165327357
1.11967596651
1.11839492988
0.724573539508
0.723934210983
0.723875211343
0.507477137357
0.507040561927
0.506753675868
0.409463765662
0.409053525576
0.408546762226
0.357924326869
0.357419286762
0.356690802893
0.317685273992
0.317259328993
0.316621158648
0.279210919726
0.278815221702
0.278235691253
0.241295073191
0.240947564288
0.240437385476
0.206339150946
0.206088666446
0.205727421836
0.177878922308
0.177627448682
0.17726101844
0.1569410767
0.156754826186
0.156454126399
0.143459963535
0.143280216521
0.142981203878
0.1355187313
0.135338032988
0.13502747549
0.131058605213
0.130868599246
0.13053033873
0.128239754094
0.128043191894
0.127690035817
0.126162843363
0.125923946326
0.125477497583
0.123960474624
0.123707649373
0.12322768143
0.121689866897
0.12139270366
0.120825185726
0.119102773848
0.118788949932
0.118189876218
0.116238442521
0.11591142793
0.11529772191
0.112940546856
0.112611982003
0.112011196342
0.108977718219
0.108669615499
0.10814169101
0.105237062702
0.105000031248
0.10466473885
0.111504689064
0.111387874394
0.11124101405
0.196223243632
0.196455066686
0.196314521689
7.98659554668
3.16996163481
2.41069518796
2.23949127068
1.98272731856
1.59127935403
1.11833370557
0.724913899791
0.507222219047
0.408507198214
0.356358473174
0.316332308775
0.277992513666
0.240274220407
0.205661093816
0.177193530114
0.156411548445
0.142934544076
0.134973065746
0.130459582816
0.127611290938
0.125343686778
0.123063819752
0.120604206534
0.117941287575
0.115041207637
0.111772254144
0.107962329375
0.104592581281
0.111195361045
0.196087791775
0.596287413177
0.623330278526
0.356550760707
0.113622718602
0.0577431081531
0.0446381895155
0.03680399278
7.50710079275
6.67136662199
5.67663592227
4.63865087337
3.65131891458
2.75667519052
2.02992854579
1.42699339936
0.937216964151
0.601413047618
0.41228943388
0.327163664224
0.317164657639
0.37594930995
0.430757220348
0.24176153558
0.0893367031293
0.0550443448662
0.0431909722818
0.0358145066022
3.06693941533
2.88218949799
2.65257137766
2.38177028239
2.05389647533
1.65517923176
1.210286846
0.807311059886
0.518341417684
0.347851196583
0.258769693419
0.219265745916
0.215509199101
0.243755340006
0.259653148008
0.146999692004
0.0719069913627
0.0524900822331
0.0405490348582
0.0342270177142
2.38805781626
2.32574628607
2.20373654151
1.99958604412
1.7039266304
1.34283476849
0.97224993226
0.658988514169
0.442913476273
0.311154820501
0.23409666486
0.191805111106
0.17365477277
0.170691910049
0.160996373299
0.101119795389
0.0643069571701
0.0496673939181
0.0372863861302
0.0325741753243
2.22108516758
2.1640772411
2.05058634023
1.86392236625
1.60428118413
1.2946553913
0.978380757627
0.706172450606
0.504823348895
0.367801153172
0.27548983229
0.213904382493
0.17436381378
0.148274517351
0.123577495973
0.0849226931173
0.0620069436284
0.0475819448037
0.034938590508
0.0313178498565
1.96635160018
1.92198944458
1.83649406263
1.69971600021
1.51035116751
1.28051650565
1.03565156066
0.808241493641
0.620826875858
0.476292853606
0.365795538062
0.281699787174
0.218525244302
0.17012827845
0.129582654613
0.0923987637485
0.0685944410459
0.0497639810282
0.0349803257126
0.0309342154261
1.58384021664
1.5630023912
1.51895831529
1.44518287092
1.33712193696
1.19813728107
1.03913052924
0.876773170883
0.72561226795
0.591665810757
0.475442892428
0.376782295583
0.295031437736
0.227476267763
0.168732878441
0.122098745691
0.0898621244499
0.0616385489905
0.0389755058156
0.0318536390064
1.11848891931
1.1160456615
1.10382771415
1.07851570035
1.03604329825
0.97453303519
0.895743694752
0.806100550463
0.712650131638
0.619772922938
0.529724483499
0.44301422392
0.361930802506
0.288186461929
0.221912796446
0.167889243219
0.125352080565
0.0835401441781
0.0467460421395
0.034045517985
0.727072011417
0.729386125483
0.728013540046
0.72098334005
0.70578995643
0.680592073566
0.645093558651
0.601247544928
0.552707394026
0.503298738447
0.454623083747
0.405796342797
0.356200224154
0.30505701626
0.252191501438
0.203702984961
0.159189503058
0.105337969054
0.0538264797415
0.0367800265893
0.508419636178
0.509694938973
0.509116882532
0.504973494711
0.495487448898
0.478964318626
0.45500738343
0.424740895995
0.391057835317
0.35780234409
0.328002213361
0.302822000106
0.28082215171
0.258931458301
0.234007273733
0.206337533172
0.170879086793
0.112316062283
0.0553518415932
0.0391786000783
0.408549370763
0.408083823453
0.405974272491
0.400671982826
0.390546761645
0.374339897522
0.351835794087
0.324248181961
0.29435602755
0.265811271655
0.241687483842
0.223302755207
0.210124911301
0.200605383627
0.192292996549
0.181253952538
0.15659094418
0.102703176478
0.0523336293033
0.0412846036174
0.35590838157
0.35474592069
0.351941741884
0.346069620586
0.33570323885
0.319891872389
0.29865294489
0.273287714669
0.246362696792
0.220965703218
0.199542471471
0.18313865125
0.171557559102
0.163858697348
0.158165962025
0.150512665619
0.130560921072
0.0875595997822
0.0494504909647
0.0438863103358
0.31591098843
0.314855927449
0.31239723684
0.307280079896
0.298313088087
0.284807606349
0.266907411137
0.245777671497
0.223476786349
0.202315120689
0.183964546972
0.169045313207
0.157438180487
0.148458745991
0.140638530579
0.130646369767
0.111573728836
0.0779008149631
0.049516786314
0.0475794946129
0.277707963528
0.277152586565
0.275638870906
0.272096277594
0.265575438148
0.255579763887
0.242273610622
0.226559309114
0.209925856082
0.193961403101
0.17973847597
0.167555314975
0.157087864765
0.147641274692
0.137980319073
0.125700160775
0.106567572592
0.0782655571404
0.0546040555773
0.0531905272017
0.240204580856
0.240200861063
0.23966836843
0.237790729235
0.233888967247
0.227637730196
0.219194299785
0.209189162285
0.198585185235
0.188351105991
0.179082744593
0.170820378323
0.163108359718
0.155195090025
0.146039189691
0.133636680963
0.115076135756
0.0895647747458
0.066425831608
0.0619652502199
0.205742175289
0.206100153965
0.206276168355
0.205686239387
0.203927222503
0.200870681805
0.19668645741
0.191795063137
0.186751965793
0.182054966289
0.177948463031
0.174298936041
0.170620860803
0.166179586323
0.159895458812
0.149892425222
0.133647008948
0.11039810573
0.085598198355
0.0756534488178
0.177315575506
0.177857700743
0.178461144153
0.178741443011
0.178524516232
0.177880359723
0.177044310972
0.17629613787
0.175879108043
0.175935235011
0.176443641726
0.177188010973
0.177743673457
0.177490906712
0.175365149986
0.169577567819
0.157474099073
0.137284502018
0.111009434275
0.0960420522179
0.156554778621
0.157182619327
0.158041857545
0.158910550829
0.159803237553
0.160965023142
0.162722003395
0.165286728964
0.16866653909
0.172707076975
0.17715680143
0.181688068337
0.185915116804
0.189368822359
0.191206100129
0.189828763161
0.182528962121
0.166357369347
0.140765663558
0.124862580731
0.14307563481
0.143758549915
0.144806760472
0.146125283021
0.147884498794
0.150488781725
0.154367014776
0.159719845677
0.166392806003
0.173983197066
0.182007873275
0.189971293237
0.19742676288
0.203952344203
0.208890804364
0.210994859376
0.207800715649
0.196068067372
0.174144561498
0.163654842438
0.135114009063
0.135845268281
0.1370536562
0.138742857371
0.141211405594
0.145012862686
0.15070242996
0.158525845828
0.168244563378
0.179267198861
0.190893878579
0.202417436592
0.21321946764
0.222785492224
0.230524931983
0.235435072673
0.235658184306
0.22841770126
0.2126299435
0.212785464102
0.130589768981
0.13134581874
0.132665454205
0.13462057898
0.137612895033
0.142342509193
0.149533081003
0.159554705822
0.17218382956
0.186721146629
0.202284072459
0.217936513769
0.232822721576
0.246231034437
0.257498458717
0.265756048162
0.269594142699
0.267161470352
0.258551906179
0.27043164318
0.127732378852
0.128477347817
0.12982770048
0.13189765356
0.13516442238
0.140476090299
0.148783964766
0.160693030579
0.17612458521
0.194382153592
0.214448646679
0.235162268711
0.255403830705
0.274203902112
0.290702538434
0.303953601089
0.312733611338
0.315656180074
0.31359623815
0.333553336741
0.125415084259
0.126098938588
0.127386440045
0.12940253263
0.132669096698
0.138178584909
0.147172989491
0.160628359095
0.178775529946
0.201060598295
0.22639418833
0.253399334909
0.280674228336
0.306928226237
0.330958011526
0.351476908993
0.366959238588
0.375644013481
0.377945782214
0.39899739271
0.123083880813
0.123669336108
0.124818962975
0.126638682724
0.129662043201
0.13501686932
0.144289338279
0.158976985416
0.17982153772
0.206562455286
0.238108640425
0.27286933873
0.30910994936
0.345117262656
0.37915220166
0.40924286678
0.432923456936
0.447102035534
0.450245531743
0.464160119729
0.120559518041
0.121035571972
0.122010480809
0.123549329311
0.126168410578
0.131108592511
0.14034157332
0.156038513049
0.179669840141
0.211433003767
0.250286583608
0.294391312133
0.341582137132
0.389552886148
0.43576680112
0.477144041081
0.509639056412
0.52795666205
0.527500958249
0.526821588474
0.11784833017
0.118227305514
0.11903410928
0.120278192982
0.122433822237
0.126835824759
0.135869122779
0.152514457439
0.179183364681
0.21667736583
0.264020610668
0.319023034928
0.378907908013
0.440539717325
0.500268841923
0.553460079672
0.593971925681
0.613654569564
0.604630631275
0.583801057376
0.114931790785
0.115257255966
0.115942386745
0.116939583837
0.118674326281
0.122560495134
0.131422323751
0.149176830816
0.17934133718
0.22339067935
0.280337235962
0.347446737753
0.421096715139
0.497035772253
0.570180200277
0.633972214863
0.679809117772
0.696688620666
0.674439450779
0.630270342875
0.111685457386
0.112018451993
0.11265308633
0.113490564458
0.114913337949
0.118422847795
0.12731475525
0.146534201773
0.180790863486
0.232163268969
0.299424477236
0.379029358607
0.46622289712
0.555383894689
0.639781718514
0.710801892285
0.7576143469
0.767025406864
0.727556393888
0.658831066574
0.107940105279
0.108338920536
0.108983279109
0.10972719532
0.110917693627
0.114140705143
0.123187396514
0.144113920391
0.18281287055
0.241695892012
0.318910517972
0.409800882004
0.508328737235
0.607391828823
0.698694576413
0.771860700545
0.814545154998
0.811882365382
0.752201278406
0.660489203484
0.104643092714
0.105090405122
0.105692975882
0.106256482424
0.107064748186
0.109692033723
0.118300052247
0.140112643239
0.182343929275
0.247428521543
0.332349366677
0.431038795828
0.536221230732
0.639484681695
0.731424588609
0.80045813424
0.833643227393
0.815773144425
0.73715790396
0.630352606981
0.111189822169
0.111417073996
0.111607147677
0.111543654938
0.111400648657
0.112529214387
0.118927012476
0.138434290656
0.179873941777
0.246287764408
0.333383388359
0.433394463079
0.537922722139
0.637581838422
0.722746459279
0.781514817596
0.802408050886
0.772077789547
0.685976102913
0.583245627921
0.195631959498
0.194829673612
0.193528819439
0.191551047907
0.189009399496
0.186973702319
0.188783131511
0.201503406852
0.234146049971
0.290684477867
0.366934560318
0.454469654654
0.544469662031
0.627958228531
0.696464626045
0.740822734473
0.753442758402
0.727591164995
0.664760862171
0.601873590785
0.0445565568995
0.0232220282524
0.0450559651381
0.0227172082173
0.0452614186555
0.0221952047225
0.0450611945555
0.0218730374623
0.0445031673016
0.0219561077167
0.0440770046582
0.0225662134711
0.0447097768937
0.0237230855255
0.0469690776272
0.0253664177967
0.0509933123768
0.027379313999
0.0565774621979
0.0297797452666
0.0632692218374
0.033149180542
0.0708306987479
0.0387888690551
0.0796359189307
0.0501945485495
0.0916278913368
0.077210368162
0.108663956034
0.193414295137
0.122660668879
0.281944186392
0.139807630333
0.342814124754
0.160073213093
0.385222998855
0.183206920644
0.421593207448
0.209128975518
0.458311931875
0.236804198629
0.497981980063
0.266064592648
0.541148457138
0.297257543203
0.587104278982
0.329749981882
0.634364799805
0.362370664636
0.681329891686
0.392711194116
0.726468702543
0.417951562321
0.768442341479
0.434388673327
0.805660771569
0.440034839248
0.837377496715
0.439407952033
0.862875432877
0.453068526004
0.884717381766
0.551773482014
0.916571825305
)
;

boundaryField
{
    inletfuel
    {
        type            turbulentIntensityKineticEnergyInlet;
        intensity       0.05;
        value           nonuniform 0();
    }
    inletair
    {
        type            turbulentIntensityKineticEnergyInlet;
        intensity       0.05;
        value           nonuniform 0();
    }
    outlet
    {
        type            inletOutlet;
        inletValue      uniform 1;
        value           uniform 1;
    }
    axis
    {
        type            empty;
    }
    leftside
    {
        type            kqRWallFunction;
        value           nonuniform List<scalar> 
32
(
0.0232220282524
0.0227172082173
0.0221952047225
0.0218730374623
0.0219561077167
0.0225662134711
0.0237230855255
0.0253664177967
0.027379313999
0.0297797452666
0.033149180542
0.0387888690551
0.0501945485495
0.077210368162
0.193414295137
0.281944186392
0.342814124754
0.385222998855
0.421593207448
0.458311931875
0.497981980063
0.541148457138
0.587104278982
0.634364799805
0.681329891686
0.726468702543
0.768442341479
0.805660771569
0.837377496715
0.862875432877
0.884717381766
0.916571825305
)
;
    }
    burnerwall
    {
        type            kqRWallFunction;
        value           nonuniform 0();
    }
    front
    {
        type            wedge;
    }
    back
    {
        type            wedge;
    }
    procBoundary1to0
    {
        type            processor;
        value           nonuniform List<scalar> 
27
(
15.2890082838
15.263750537
15.1522188605
14.9885120483
0.920846133428
0.750562324488
0.384438065288
0.12557325005
0.0592542686131
0.0449681782696
0.0369950599616
14.5307216346
13.4277926304
11.8382642266
9.91845093895
7.90856386138
6.00861877998
4.36539341443
2.99565744357
2.00772115842
1.3377547726
0.898587158089
0.648163510172
0.556382752936
0.556382752936
0.043816943408
0.0236250023172
)
;
    }
}


// ************************************************************************* //
