/*--------------------------------*- C++ -*----------------------------------*\
  =========                 |
  \\      /  F ield         | OpenFOAM: The Open Source CFD Toolbox
   \\    /   O peration     | Website:  https://openfoam.org
    \\  /    A nd           | Version:  7
     \\/     M anipulation  |
\*---------------------------------------------------------------------------*/
FoamFile
{
    version     2.0;
    format      ascii;
    class       volScalarField;
    location    "0.1";
    object      N2;
}
// * * * * * * * * * * * * * * * * * * * * * * * * * * * * * * * * * * * * * //

dimensions      [0 0 0 0 0 0 0];

internalField   nonuniform List<scalar> 
815
(
0.714293166264
0.714688642895
0.715528408695
0.744943576996
0.745051957554
0.745274379665
0.752377881597
0.75243092478
0.752532855661
0.755194788276
0.75522867123
0.755295934544
0.756926200415
0.756947870975
0.756988984818
0.758390628042
0.758402836258
0.758423904326
0.759803343679
0.759809552286
0.759818165888
0.761030640002
0.761033149863
0.761036027333
0.761913572164
0.761914823938
0.761916033966
0.762508847746
0.762509428693
0.762510082671
0.762940808812
0.762941242494
0.76294144093
0.763297267276
0.763297223481
0.76329659763
0.763621321815
0.763620988864
0.763619631637
0.7639326358
0.763931985908
0.763929854802
0.764231144164
0.764230193769
0.764227500064
0.764508026299
0.764506995288
0.76450404749
0.764754891469
0.764753694984
0.764750642015
0.764967124031
0.764965926861
0.764962991094
0.765147108319
0.76514596338
0.765143228192
0.765300407402
0.765299341477
0.765296856346
0.765433369292
0.765432443867
0.765430266531
0.765552078977
0.765551283666
0.76554939812
0.765660957182
0.765660285583
0.765658692524
0.76576327028
0.76576273171
0.765761426149
0.76586133847
0.765860904934
0.765859857027
0.765956314221
0.765955995281
0.765955205758
0.766048988169
0.766048772268
0.7660482135
0.766139456339
0.766139327873
0.766138965403
0.766226752434
0.766226704957
0.766226517346
0.766307975191
0.766308003005
0.766307982296
0.766373968934
0.766374038006
0.766374174985
0.716656057487
0.745569702873
0.75266821021
0.755386962019
0.757044708919
0.758452020136
0.759828991627
0.761038956458
0.761917032575
0.762510523196
0.762941384894
0.763295426705
0.763617442579
0.763926602397
0.764223491406
0.764499706448
0.764746206073
0.764958735452
0.765139267496
0.765293255911
0.765427101127
0.765546655349
0.765656369485
0.765759515685
0.765858315777
0.765954026474
0.766047358146
0.766138389582
0.766226198631
0.766307929369
0.766374373256
0.756744074454
0.758327541813
0.76249710238
0.766244614541
0.767548421516
0.767912961849
0.767980617192
0.719093296267
0.723305433574
0.728389723781
0.733890776232
0.739462454635
0.744852926478
0.749370127311
0.75303882272
0.755964975521
0.758107822865
0.759491325757
0.76024532622
0.760493966449
0.76044837613
0.761040530173
0.764103741126
0.766757310554
0.767664069416
0.767935504486
0.767977408876
0.746222319564
0.747431364926
0.74897495139
0.750743268903
0.752668937187
0.75468451939
0.756714834774
0.758594843945
0.760161891947
0.761346996054
0.762174641523
0.762712854479
0.763006397737
0.76315392253
0.763677276181
0.765627033849
0.767213657568
0.7677722143
0.767950367947
0.76797129558
0.752963227246
0.753550758193
0.754365162468
0.755393204857
0.756592339629
0.7578941296
0.75921727724
0.760479087625
0.761595625071
0.762525318761
0.763276885319
0.763879699779
0.764357928086
0.764770400207
0.765348057138
0.766530723358
0.767459601914
0.767817952332
0.767941926626
0.767959837931
0.755581962922
0.755977229292
0.756525308111
0.757219679568
0.758042005676
0.758961465882
0.759936770523
0.760916249196
0.761848822666
0.762704363746
0.763481447857
0.764189174601
0.764834239844
0.765432842971
0.76607432568
0.766915599084
0.767512625579
0.767782953328
0.767905408753
0.76793926304
0.757162494781
0.757401936299
0.757741589113
0.758184446486
0.75872815903
0.759362577422
0.760071675433
0.760829414165
0.76160764747
0.762386436395
0.763159157191
0.763923369318
0.764672267828
0.765397129303
0.766110916394
0.766851511425
0.767354227547
0.76764386853
0.767824987194
0.767904872201
0.7585117579
0.758633801762
0.758814581873
0.759060039632
0.759376255358
0.759763542129
0.76022045649
0.76074096362
0.761317187164
0.761943574761
0.762618279562
0.763340013419
0.764101682856
0.764887723866
0.765684156739
0.766433394003
0.766971012263
0.767369145778
0.767687867625
0.767854003412
0.759852199627
0.759899620957
0.759975762179
0.760085120744
0.760234537614
0.760429411075
0.760675862778
0.760977215487
0.761336726058
0.761759356594
0.762252787864
0.762825743051
0.763483822423
0.764223595604
0.765016680072
0.765775388671
0.766416349615
0.766990962618
0.767509243079
0.767791411241
0.761045909632
0.761061272517
0.761090193291
0.761135915998
0.761203564363
0.761298339245
0.7614262777
0.761592276236
0.761800338162
0.762054828985
0.762363245934
0.762739111426
0.763199521466
0.763764164818
0.764438211295
0.765158879275
0.765880644683
0.766638810072
0.767356613361
0.767729824525
0.761919499387
0.761925772162
0.761939675794
0.761964854156
0.76200599789
0.762068908292
0.76215898712
0.762280419432
0.762434860709
0.762622032388
0.762841730212
0.763098760646
0.763406782822
0.763790856465
0.764280898131
0.76488310388
0.765606221669
0.766472109299
0.767288451813
0.767675274383
0.76251183438
0.762515419547
0.762524414255
0.762543046134
0.762576867545
0.762632343126
0.762715495331
0.762830686847
0.76297899807
0.763157856814
0.763362787237
0.763591610036
0.76384819819
0.764148860573
0.764524667609
0.765013059776
0.765668707716
0.766514802826
0.76728527309
0.767613489254
0.762941282112
0.762941599322
0.762945737106
0.762958340073
0.76298554807
0.763034490147
0.763112034214
0.763223395425
0.763370526635
0.763551578185
0.763761980342
0.763997433944
0.76425772349
0.76455130509
0.764899490884
0.765338440572
0.765918997219
0.766645000633
0.767274239242
0.76751823327
0.763293015704
0.763288578928
0.763285867041
0.763289441971
0.763305493956
0.763341334902
0.763404298657
0.76350045978
0.763633296515
0.763803207255
0.764008237982
0.764245943216
0.76451563746
0.764821073863
0.765174137175
0.765596673
0.766114530161
0.766711366901
0.767203788589
0.76737603054
0.763612685623
0.763603011996
0.763592480202
0.763585235445
0.763587048492
0.763604922445
0.763646143972
0.763717223617
0.763822854345
0.763965584773
0.764146324579
0.764365445863
0.764623825065
0.764923866839
0.765271380806
0.76567577713
0.766142475455
0.766645090166
0.767046451181
0.767180138529
0.763919515624
0.763904968124
0.763887128236
0.763869441297
0.763856933301
0.76385588423
0.763873018611
0.763914675269
0.76398602476
0.764090928281
0.764232357785
0.764413108551
0.764636087749
0.764904227447
0.765221005608
0.765589600954
0.766007973698
0.766446711052
0.766800821823
0.766936103952
0.764214774423
0.764196736552
0.764173416069
0.764147536024
0.764123292376
0.764106063768
0.764101703117
0.764115858186
0.764153385045
0.764218350461
0.764314498217
0.764445889788
0.764616963137
0.764832188826
0.765095561538
0.765410338446
0.76577315471
0.766159329778
0.766491473054
0.766657636038
0.764490190844
0.764470279129
0.764443724991
0.764412636808
0.764380461965
0.764351726328
0.764331390135
0.764324222046
0.764334322306
0.764365195395
0.764420254982
0.764503493883
0.764619775395
0.764774545234
0.764973486852
0.765221780584
0.765519550232
0.765850800312
0.766164038856
0.766364309777
0.764736504542
0.764716077391
0.764688302226
0.764654774957
0.764618325209
0.764582772244
0.764552332038
0.764530990959
0.764522057252
0.764528260617
0.764552200787
0.764597081526
0.764667150812
0.764767710168
0.76490502024
0.76508595798
0.76531482408
0.765585363196
0.765866300979
0.766077233345
0.764949381077
0.764929437886
0.764901916922
0.76486802013
0.76483007894
0.764791351456
0.764755493346
0.764725903045
0.764705278415
0.76469568703
0.764698977876
0.764717387301
0.764754132921
0.764813589753
0.764901434681
0.765024549242
0.765189345195
0.765395958598
0.765626499649
0.765813960978
0.765130518098
0.765111680435
0.765085389368
0.765052512006
0.765014955755
0.764975510109
0.764937395694
0.76490359812
0.764876419818
0.764857479306
0.764848062729
0.764849652907
0.764864392512
0.764895475651
0.76494724559
0.765025297013
0.765135412302
0.765279927623
0.765448191739
0.765586131949
0.765285273646
0.765267951305
0.765243526529
0.765212570582
0.76517658523
0.765137928843
0.765099449114
0.765063841025
0.76503316133
0.765008753258
0.764991534945
0.764982411799
0.764982671068
0.764994313231
0.765020159837
0.765063894171
0.765129339183
0.76521792095
0.76532172843
0.765399374427
0.765420026146
0.765404498041
0.765382357217
0.765353904892
0.765320243634
0.765283288283
0.76524551356
0.765209364494
0.765176737449
0.765148816368
0.76512625881
0.765109530653
0.765099233135
0.765096309939
0.765102194303
0.765118687802
0.765147440066
0.765188127961
0.765233643283
0.765253322539
0.76554049313
0.765526883562
0.765507273123
0.765481694952
0.765450846248
0.765416170594
0.765379718148
0.765343657179
0.765309761598
0.765279088275
0.765252110055
0.765228942405
0.765209610747
0.765194239778
0.765183076621
0.765176417601
0.765174169347
0.76517454958
0.765170891151
0.76514088801
0.765651130871
0.765639486092
0.765622516785
0.765600020429
0.765572303151
0.76554028521
0.765505524225
0.765469841908
0.765434846949
0.765401509082
0.765370149721
0.765340606082
0.765312471328
0.765285204153
0.765258187822
0.765230653315
0.76520133302
0.765167606133
0.76512338721
0.765052544841
0.76575518172
0.765745466973
0.76573112919
0.765711793487
0.765687372546
0.765658264801
0.765625422583
0.76559021352
0.76555400955
0.765517697047
0.765481506959
0.765445082318
0.765407690527
0.765368336954
0.765325814786
0.765278661446
0.765224957849
0.76516176193
0.76508372978
0.764978988395
0.765854814245
0.765846917394
0.765835122147
0.765818891451
0.765797819253
0.765771733301
0.765740900525
0.765706107448
0.765668389341
0.765628548964
0.765586789286
0.765542667969
0.765495277009
0.765443330915
0.765385264563
0.765319221304
0.765242962533
0.765153522184
0.765046286073
0.764912061084
0.765951325187
0.765945132326
0.765935720199
0.765922454313
0.765904628678
0.765881528093
0.765852634659
0.765817989628
0.765778237564
0.765734121371
0.765685897959
0.765633184345
0.765574990754
0.765509919899
0.765436208216
0.765351808961
0.765254326857
0.765140901821
0.765007300938
0.764845521648
0.766045374835
0.766040736406
0.766033515929
0.766023013755
0.766008250173
0.765987943414
0.765960715792
0.765925743487
0.76588322094
0.765833922962
0.765778307191
0.765716154366
0.76564655577
0.765568063569
0.765478844402
0.765376720228
0.765259200407
0.765123203376
0.764964203014
0.764774828518
0.766137037856
0.766133822699
0.766128647822
0.766120760231
0.766108924217
0.766091277694
0.766065435068
0.766029528772
0.765983342361
0.765927917848
0.76586413249
0.765792024633
0.765710819889
0.765619091388
0.765514925163
0.765395992272
0.765259345021
0.765101283986
0.764916491601
0.764697692454
0.766225439829
0.766223632831
0.766220520806
0.766215340577
0.766206684042
0.76619213722
0.766168110487
0.766131175147
0.766080535753
0.766018021601
0.765945394078
0.76586310015
0.765770440346
0.765665962717
0.765547549355
0.765412495082
0.765257282305
0.765077180555
0.764865525295
0.76461501259
0.76630779297
0.766307435766
0.766306474387
0.766304201122
0.766299193098
0.766288775568
0.766268352575
0.766232343881
0.766178169971
0.76610836253
0.766026417372
0.765933694569
0.765829696446
0.765712819756
0.765580699169
0.765430153588
0.765256944537
0.765055228025
0.764816800461
0.764534449687
0.766374821997
0.766375764148
0.766376728218
0.766377085059
0.766375454762
0.76636910858
0.76635298048
0.766320006873
0.766265232613
0.766190359201
0.766100220026
0.765997668316
0.765882870023
0.765754411884
0.765609761144
0.765445571012
0.765257164648
0.765038302928
0.764779717012
0.764474849495
0.767952527223
0.767927866422
0.767939989135
0.767911199049
0.767923665127
0.767891025649
0.767903419994
0.767867309179
0.767878887066
0.767839813489
0.767848462375
0.767807199078
0.767809800013
0.767766832158
0.767761060723
0.767714956707
0.767699648194
0.767646269556
0.76761955475
0.767553585285
0.767510420688
0.767429318023
0.767363428508
0.767268265819
0.767173041955
0.767070131431
0.766940284429
0.766839653108
0.766678793166
0.766576409004
0.766405323095
0.766294687159
0.766126907629
0.766017520704
0.76585837754
0.76575629661
0.765612853549
0.765521358308
0.765400152892
0.765319975409
0.765225141091
0.765153430895
0.765085232769
0.765018011464
0.764972979343
0.76490639932
0.764879264255
0.764810116673
0.764795436704
0.764721460173
0.764714507814
0.764634237621
0.7646311136
0.764544291741
0.764542074031
0.764449866531
0.764447070673
0.76435278496
0.764350949739
0.76425980922
0.764266257445
0.764183011587
0.764213484618
0.764137121113
)
;

boundaryField
{
    inletfuel
    {
        type            fixedValue;
        value           nonuniform 0();
    }
    inletair
    {
        type            fixedValue;
        value           nonuniform 0();
    }
    outlet
    {
        type            zeroGradient;
    }
    axis
    {
        type            empty;
    }
    leftside
    {
        type            zeroGradient;
    }
    burnerwall
    {
        type            zeroGradient;
    }
    front
    {
        type            wedge;
    }
    back
    {
        type            wedge;
    }
    procBoundary1to0
    {
        type            processor;
        value           nonuniform List<scalar> 
27
(
0.64901743643
0.650019448473
0.652138840193
0.654947899616
0.752978273824
0.756808338189
0.76208101139
0.766003477051
0.76746824177
0.767897998396
0.76798257242
0.66101632442
0.671393439967
0.683730209548
0.696834687515
0.709638766196
0.721340715744
0.731404988473
0.739919572625
0.746243861826
0.750664253607
0.753617685855
0.75541209278
0.756277934231
0.756277934231
0.767961943137
0.767941254677
)
;
    }
}


// ************************************************************************* //
