/*--------------------------------*- C++ -*----------------------------------*\
  =========                 |
  \\      /  F ield         | OpenFOAM: The Open Source CFD Toolbox
   \\    /   O peration     | Website:  https://openfoam.org
    \\  /    A nd           | Version:  7
     \\/     M anipulation  |
\*---------------------------------------------------------------------------*/
FoamFile
{
    version     2.0;
    format      ascii;
    class       volScalarField;
    location    "0.1";
    object      nut;
}
// * * * * * * * * * * * * * * * * * * * * * * * * * * * * * * * * * * * * * //

dimensions      [0 2 -1 0 0 0 0];

internalField   nonuniform List<scalar> 
815
(
0.0020215884949
0.0020124035312
0.00199254054696
0.00156963912651
0.00156768924798
0.00156367712512
0.0016237133179
0.00162201079286
0.00161873758383
0.00164931707547
0.00164718881601
0.00164332761371
0.0015640763403
0.00156156681702
0.00155743826773
0.00134845283539
0.00134661567139
0.00134417591726
0.00105295475347
0.00105192989753
0.00105102430313
0.000810961343967
0.000810525251238
0.000810105434187
0.000711061863921
0.00071054534114
0.000709604157627
0.000697501736518
0.000696862004528
0.000695601995674
0.000691674132181
0.000690968533667
0.000689610831076
0.000664673409926
0.000664081907802
0.000662967077808
0.000620155501417
0.000619658598703
0.000618779067668
0.00056778731585
0.000567402182033
0.000566760181191
0.000517962056006
0.000517730199433
0.000517353954611
0.000480298559838
0.000480098961853
0.000479786027991
0.000459259012658
0.000459159488057
0.000458972548563
0.000455461703861
0.000455391262266
0.000455249466097
0.000465123374597
0.000465069141763
0.000464952542086
0.000483182205137
0.000483122985749
0.000482992577763
0.000504657259366
0.000504580641941
0.000504416846061
0.000526512279692
0.000526336587662
0.000525970360471
0.000545958086749
0.00054571803288
0.000545216541003
0.00056224294433
0.000561874420984
0.000561118193402
0.000573807705485
0.000573361417324
0.000572452725199
0.000578112462989
0.000577601372146
0.000576587590571
0.000565886963147
0.000565340416396
0.000564324434837
0.000507793363067
0.000507262883168
0.000506463395714
0.000361289393085
0.00036088121914
0.00036059775017
0.000198694252217
0.000198428477351
0.000198424263436
0.000153223812889
0.000153148632758
0.000153062947772
0.00196753109236
0.00155871554696
0.00161437038882
0.00163814776685
0.00155240334448
0.00134155851018
0.00105049437007
0.000810034686339
0.000708707166547
0.000694194222213
0.000688136563939
0.000661816480629
0.000617981473114
0.000566316361748
0.000517218291841
0.000479782199739
0.000459100559308
0.000455459593399
0.000465226238096
0.000483286477111
0.00050470517451
0.000526098097933
0.000545188255885
0.000560845321155
0.000571993763364
0.000576014963238
0.000563781541091
0.000506248605694
0.000360919198327
0.000198693247009
0.000153009472477
0.000447330714843
0.000468173256332
0.000294278181761
0.0001257085824
0.000128486280992
0.00023583756422
0.000214840194778
0.00191646307847
0.00182171324716
0.00170304605409
0.00156573525105
0.0014090936883
0.0012247183391
0.00102219274216
0.00080344025204
0.000589007902739
0.000420820164931
0.000318522804056
0.000274750759326
0.000278901999263
0.000324470457395
0.000356650176725
0.000220223229859
0.000117106092185
0.000151111597785
0.000257147120126
0.000212085917724
0.00154837349504
0.00152052045963
0.00147234208507
0.00139276271509
0.00126865554994
0.00109058026946
0.000865261902465
0.000633430693451
0.000446458626643
0.000326035971875
0.000259722079498
0.000229670593783
0.000225001801719
0.000239691617683
0.000241643163423
0.000156707497304
0.000123063073622
0.000187357004199
0.000274344398911
0.000204579359226
0.00160371699596
0.00157246052741
0.00151267939653
0.00141210323835
0.00126160339646
0.00106500604528
0.000842485030906
0.000630423079527
0.000464843984274
0.000352645461723
0.000280378849695
0.00023519492882
0.000208818144943
0.000193931509926
0.000175997418004
0.000134280553002
0.000144052691117
0.000213562481062
0.000265051041986
0.000194266286658
0.00162568309701
0.00159186818411
0.00153059398129
0.00143269397491
0.00129369220922
0.00111779982353
0.000920786438165
0.000729205402349
0.000567395700537
0.000443456549083
0.000350947530429
0.000282108133197
0.000231549050349
0.000193971169543
0.000163465360086
0.000142579890166
0.000164092914109
0.000206642732515
0.000224262468137
0.000182022497412
0.00154137181414
0.00151486797944
0.00146843882422
0.00139614290308
0.00129401600066
0.00116278965884
0.00100973135365
0.000849526561874
0.000699325186342
0.000569562408844
0.000460600963032
0.000370327411699
0.00029695977126
0.000238278888299
0.000193212749034
0.000170765804544
0.000173828172717
0.000176080978201
0.000173616597491
0.000168353815682
0.00133606616742
0.00132373059806
0.00130074336692
0.00126339849736
0.00120741927862
0.00113089783449
0.00103465805013
0.000923876748896
0.000806989994861
0.000691532059558
0.000582133673487
0.000482003764929
0.000393418653429
0.000317338443465
0.000254327925361
0.000214590972168
0.000190794863334
0.000162465319365
0.000141815750029
0.000155760853559
0.00104971093108
0.00104842849982
0.00104345479676
0.00103300877653
0.00101400014164
0.000983272323155
0.000938215893512
0.000878928673982
0.000807986281066
0.000729060075722
0.000645750308784
0.000560520912398
0.000476755953429
0.000397767259316
0.000327867150879
0.000274665833542
0.000230802838269
0.000178861011147
0.000133991660903
0.000148430453556
0.000810116082585
0.000810734992346
0.000810159227953
0.000807272022572
0.000799974988761
0.00078581550034
0.000762353768973
0.000728627234869
0.000686091971546
0.000638236697039
0.000588098071383
0.000536558995367
0.00048376129995
0.000429390356743
0.000374737266788
0.000325414312348
0.000275105291836
0.000204660446738
0.000137154670357
0.000148053126426
0.00070711831312
0.000704538647559
0.000700330701408
0.000693413994932
0.000681897672482
0.00066376820539
0.000637320309404
0.000602413735037
0.00056132318817
0.000518639197505
0.000479143646619
0.000445625866073
0.000417521475219
0.000392036403882
0.000366105712347
0.000337376409227
0.000293831595065
0.000214343772386
0.000138924532592
0.000152901252737
0.000691375616516
0.00068567360644
0.000677103507435
0.000664511897674
0.000646093465927
0.000620266054903
0.000586094008321
0.000544360650323
0.000498060953339
0.000452083522933
0.00041140710167
0.000379125258983
0.000355748361673
0.000339886257627
0.000328383635423
0.000313908264511
0.000278694825583
0.000202934696445
0.000138818114596
0.000159942186419
0.000685181118929
0.000678845828064
0.000669225446691
0.000655145631071
0.000634977333721
0.000607429134182
0.000572040784432
0.000529901050075
0.000483870438452
0.000438052532594
0.00039643088729
0.000361612952009
0.000334518151849
0.000314669777211
0.000299589225871
0.000282573558682
0.000248685803593
0.000186636747453
0.000143475613111
0.000167325335109
0.000659504696099
0.00065438533299
0.000646546931031
0.000634948860358
0.000618247224804
0.000595449482031
0.000566295136347
0.000531624407218
0.000493369157236
0.000454070780029
0.00041603032275
0.000380818536673
0.000349385613226
0.000321908020485
0.000297130728935
0.000270653162484
0.000234052893641
0.000184677503328
0.000157579486389
0.000175510722643
0.000616494129593
0.000613326274731
0.000608521047746
0.000601283282865
0.000590644267925
0.000575936915762
0.000556992578769
0.000534225431897
0.000508471207996
0.000480633921847
0.000451336706583
0.000420954030784
0.000389788209903
0.000358176943413
0.000325938021852
0.000291295996501
0.000251095356434
0.000208036844341
0.000184304544479
0.000184407589395
0.000565655041433
0.000564408800991
0.000562633863959
0.000559928519559
0.000555818088151
0.000550041443112
0.000542576919824
0.000533492124538
0.000522666991725
0.000509567569797
0.000493290515447
0.000472960342436
0.000448070565309
0.000418737690965
0.000385345218267
0.000347463498492
0.000304703030149
0.000261257212864
0.000226349798199
0.000191585870157
0.00051718848125
0.000517395111067
0.000518043232843
0.00051916593094
0.000520868631988
0.0005234143872
0.000527028891046
0.000531576737275
0.000536211392144
0.000539271240751
0.000538619642693
0.000532278043611
0.000518988674276
0.000498371962732
0.000470456021986
0.000434970314989
0.00039167406766
0.000342087979077
0.000284683133496
0.000205648457083
0.000480115551605
0.000481325697646
0.000483797719779
0.00048802794634
0.000494725418646
0.000504757200735
0.000518711843641
0.000536332650687
0.000556124708684
0.000575433507648
0.000591060060518
0.000600162330045
0.000600880350087
0.000592342239279
0.000573816697866
0.000544151419627
0.00050121706729
0.000441389833458
0.000355255104665
0.000229930647243
0.000459711675309
0.000461673038136
0.000465633433846
0.000472583858243
0.000483872553056
0.000501010140607
0.000524996434258
0.000555477509713
0.000590264085554
0.000625653179359
0.000657381933476
0.000681717518153
0.000696128330515
0.000699183080022
0.000689522452369
0.000664737778503
0.000620244432862
0.000547446788953
0.000431711581805
0.000267039332493
0.000456286677775
0.000458902326287
0.000464228570946
0.000473766793773
0.000489527381299
0.000513690095509
0.000547661560018
0.000590949013208
0.000640603284169
0.000691815856892
0.000739238029404
0.000778174460488
0.000805247611381
0.000818156709893
0.000814667169579
0.000791462877443
0.000742055405282
0.000655167937871
0.000513935778587
0.000322323509298
0.000466242527507
0.000469436480234
0.000476000785549
0.000487928392347
0.000507874762773
0.000538688472994
0.000582194343733
0.000637770869518
0.000701753949456
0.000768323355924
0.00083114832193
0.000884617527374
0.000924362839421
0.000947014555478
0.000949229534959
0.000926577535196
0.00087179501694
0.000772408934946
0.000610904182234
0.000401347685002
0.000484410660021
0.000487984459725
0.000495439515929
0.000509186017395
0.000532466837383
0.000568815540518
0.000620598310874
0.00068727341481
0.000764723312269
0.00084637119034
0.000925085789204
0.000994418323405
0.00104902151701
0.00108436813611
0.00109588956671
0.00107785955155
0.00102179211841
0.000914448881096
0.000737486005073
0.000505268864564
0.000505853995508
0.000509498430018
0.000517261968596
0.000531870422817
0.000557074992176
0.000597156055411
0.000655306496483
0.000731520524149
0.000821690754316
0.000918823609845
0.00101514196469
0.00110341220637
0.00117734483554
0.00123125076758
0.0012592165757
0.00125378514171
0.00120429073061
0.00109435120494
0.000900887587877
0.000630764492874
0.000527041965934
0.00053036002059
0.000537750716423
0.000552111349976
0.000577609520669
0.000619364897366
0.000681799332626
0.000766077426431
0.000868676457689
0.000982520642509
0.00109926730671
0.00121087523238
0.00131007243106
0.00138995428546
0.0014429843895
0.00145940481776
0.001424987695
0.00131711479422
0.00110199439768
0.000769313481455
0.000545834789348
0.000548496980763
0.000554923878016
0.000568053321033
0.000592372715788
0.000633938046346
0.000698842023832
0.000790136647848
0.000905502476094
0.00103800514003
0.00117870964438
0.00131863801665
0.00144935909247
0.00156248643968
0.00164843184765
0.0016943898816
0.00168105388969
0.00157689718377
0.00133173883229
0.000911426877386
0.000561084940998
0.000562899682643
0.000567994731577
0.00057924534316
0.000601366844931
0.000641408430087
0.000707551128294
0.000805457840118
0.00093455541035
0.00108814306701
0.00125650862706
0.00142947576636
0.00159711199975
0.00174906826559
0.00187306449018
0.00195234718704
0.001961437861
0.00185843943485
0.00157435549722
0.0010490069077
0.000571859042667
0.00057281188341
0.000576511503329
0.000585694113797
0.000605222720077
0.000643181735519
0.000710198201709
0.000815153328752
0.000959547471534
0.00113675738626
0.00133599910037
0.00154550036484
0.00175326658792
0.00194631098424
0.00210888682917
0.00221948161359
0.00224594545588
0.00213621629621
0.00180458537837
0.00116918071975
0.000575647176372
0.000575984550987
0.000578592609926
0.000586032944839
0.000603279069367
0.000639473023341
0.000707978041807
0.000821332487114
0.000982990568498
0.00118587674825
0.00141771315109
0.0016646117576
0.00191185182546
0.00214303533723
0.0023382337272
0.00247077052672
0.00250220511056
0.00237349359372
0.00199005766655
0.00125621354701
0.000563469706035
0.000563816605319
0.000566171454795
0.0005728324916
0.000588799916092
0.000624268752359
0.000695550927416
0.000819004620369
0.000999454642694
0.00122845975224
0.00149160064655
0.00177222666169
0.00205212063523
0.00231092330778
0.00252429648482
0.00266088624118
0.00267834252542
0.00251622739073
0.00208228874774
0.00128486591748
0.000506562400369
0.000508176377893
0.000511880134871
0.000519335219814
0.000535127126127
0.000569994157577
0.00064320260824
0.000775791641901
0.000974052131844
0.00122661474025
0.00151518057155
0.00181930790296
0.00211699027153
0.00238407515929
0.00259274290263
0.00270897757258
0.00269058159547
0.00248292017241
0.00201352201995
0.00122199118672
0.00036210432975
0.000365515817953
0.000370966684651
0.000378862768262
0.000392112921088
0.000419660558261
0.000481444772937
0.000605839885692
0.000807703647919
0.00107307046681
0.0013746396821
0.00168522512148
0.00197904752278
0.00222949717243
0.00240804803032
0.00248187749045
0.00241513818565
0.00216924573268
0.0017108745627
0.00103898191534
0.000199495469417
0.000201736539749
0.000204839381427
0.000208507919316
0.000213594670026
0.000224287650314
0.000252680573246
0.000323305942063
0.000464023969443
0.000679009768006
0.000942374446468
0.00121906999357
0.00147718462679
0.00168785257482
0.0018246734764
0.00186109608091
0.00177509503187
0.00155069175358
0.00119580490469
0.000761991324879
0.000152958439789
0.000153016907968
0.000152943903362
0.000152532247091
0.000151924954232
0.000152437706126
0.000158295665214
0.000179041818815
0.000228822857735
0.000317683676513
0.000442290685914
0.000587185808661
0.000731568305846
0.000853907723485
0.000934964350884
0.000958993031409
0.000916995895303
0.000809351228337
0.000652533222234
0.000495084512931
0.000124219726418
3.74451762356e-05
0.000122695632653
3.66372314139e-05
0.000120538393118
3.58022345269e-05
0.00011846521871
3.52913036244e-05
0.000116822442492
3.54353398473e-05
0.000116261686979
3.64321447613e-05
0.000117866863147
3.83117347325e-05
0.000121472615691
4.09755434378e-05
0.000125963403101
4.42312652746e-05
0.000130733565858
4.81062290014e-05
0.000135884156698
5.35431635139e-05
0.000142081172064
6.26402481069e-05
0.000148309812906
8.10344003862e-05
0.000152147566195
0.000124617679753
0.000110910050812
7.37829498724e-05
8.55160676111e-05
8.90475836189e-05
8.28521384393e-05
9.81728943385e-05
8.70268012299e-05
0.000104064882276
9.48727908584e-05
0.000108870506412
0.000104576042759
0.000113521009
0.000115686872438
0.000118343182541
0.000128173174358
0.000123376921328
0.000141436999931
0.000128519190409
0.000155041640977
0.000133600880623
0.000168246247144
0.000138465590984
0.000179986839354
0.00014298457366
0.000188608553813
0.000147061424452
0.000192310261375
0.000150583943226
0.000190110156179
0.000153522062422
0.000184634556739
0.000155843580735
0.000186399212265
0.000157809982445
0.000229757186903
0.000160640768945
)
;

boundaryField
{
    inletfuel
    {
        type            calculated;
        value           nonuniform 0();
    }
    inletair
    {
        type            calculated;
        value           nonuniform 0();
    }
    outlet
    {
        type            calculated;
        value           uniform 0.00045;
    }
    axis
    {
        type            empty;
    }
    leftside
    {
        type            nutkWallFunction;
        Cmu             0.09;
        kappa           0.41;
        E               9.8;
        value           nonuniform List<scalar> 
32
(
0
0
0
0
0
0
0
0
0
0
0
0
0
0
1.9244052639e-08
2.52041395358e-06
3.98103197132e-06
4.91090293512e-06
5.66394860653e-06
6.39028020656e-06
7.14133127238e-06
7.92287240969e-06
8.71805345594e-06
9.50040058816e-06
1.02460294506e-05
1.09356613229e-05
1.15552094203e-05
1.20885014415e-05
1.25321162956e-05
1.28826541623e-05
1.31796784307e-05
1.36049610885e-05
)
;
    }
    burnerwall
    {
        type            nutkWallFunction;
        Cmu             0.09;
        kappa           0.41;
        E               9.8;
        value           nonuniform 0();
    }
    front
    {
        type            wedge;
    }
    back
    {
        type            wedge;
    }
    procBoundary1to0
    {
        type            processor;
        value           nonuniform List<scalar> 
27
(
0.00289760265839
0.00289225068246
0.00287774134964
0.00285704006766
0.000608113800476
0.000526876773668
0.00030517467539
0.000130135848429
0.000117248075335
0.000218296995561
0.000213188946724
0.00280627229975
0.00269009098299
0.00251944840223
0.00230033095603
0.0020468786004
0.00177039335699
0.00148343951661
0.00118406214692
0.000914242727299
0.000693521183421
0.000528279876069
0.000429058912981
0.000403944295609
0.000403944295609
0.000124528030686
3.8089411718e-05
)
;
    }
}


// ************************************************************************* //
