/*--------------------------------*- C++ -*----------------------------------*\
  =========                 |
  \\      /  F ield         | OpenFOAM: The Open Source CFD Toolbox
   \\    /   O peration     | Website:  https://openfoam.org
    \\  /    A nd           | Version:  7
     \\/     M anipulation  |
\*---------------------------------------------------------------------------*/
FoamFile
{
    version     2.0;
    format      ascii;
    class       volScalarField;
    location    "0.1";
    object      O2;
}
// * * * * * * * * * * * * * * * * * * * * * * * * * * * * * * * * * * * * * //

dimensions      [0 0 0 0 0 0 0];

internalField   nonuniform List<scalar> 
815
(
0.0159375615682
0.0161161472175
0.0165001473487
0.044983848915
0.0453218368965
0.0460064777085
0.0798209480731
0.0802570100657
0.0810954787702
0.103044233216
0.103352543062
0.103963263687
0.119324657728
0.119531173397
0.119918822491
0.134378898547
0.134498487541
0.134699513725
0.149605640607
0.149666910743
0.149746551102
0.163049313108
0.163072576405
0.163094739764
0.17275170669
0.172762012026
0.172767740614
0.179290861425
0.179294216624
0.17929474067
0.184035635511
0.18403780003
0.184034258348
0.187950229165
0.187947747063
0.187936470505
0.191501757269
0.191496790689
0.191479028701
0.194899298998
0.194891537484
0.194866832314
0.198138044074
0.198127585365
0.198098062124
0.201120854502
0.201109945495
0.201078667069
0.203757917267
0.203745528776
0.203713809939
0.20600194624
0.205989727803
0.20595968097
0.20788104808
0.207869473083
0.20784177356
0.209456677336
0.209445965905
0.209420979491
0.210797752145
0.210788486677
0.210766700484
0.211969217936
0.211961267015
0.211942461823
0.21301790721
0.213011199859
0.21299535595
0.213978116801
0.213972734868
0.213959788359
0.214874062883
0.214869745266
0.21485940559
0.215718632169
0.215715456333
0.215707703384
0.216521252612
0.216519101421
0.216513654619
0.217285263459
0.217283987908
0.217280515327
0.218005196447
0.218004731905
0.218003028847
0.218660753553
0.218661037828
0.218661002704
0.219185019374
0.219185739922
0.219187198862
0.0170274448666
0.0469184958799
0.0822119452461
0.104790689243
0.120443470706
0.134966100807
0.149844373218
0.163113534978
0.172767975785
0.179290101016
0.18402547796
0.187917300178
0.191450874469
0.19482922531
0.198054103186
0.201032550059
0.203667671505
0.205916082169
0.20780163138
0.20938476274
0.210735028101
0.211915124972
0.212972284389
0.213940885957
0.214844247154
0.21569618416
0.216505387067
0.217275066196
0.218000170459
0.218660746765
0.219189279204
0.116047628767
0.13124221651
0.174213014588
0.213484953127
0.227234914868
0.231087741475
0.231828844471
0.0181991586149
0.0206899896966
0.0247489719562
0.0310293014651
0.0400238678699
0.0524547444851
0.0699689362732
0.0923021334483
0.114558676873
0.132912676574
0.145450869427
0.152297771952
0.154201028055
0.15315990938
0.158943934239
0.190934794045
0.218876762215
0.228456248103
0.231330130692
0.23180553199
0.0490022791809
0.0535942762698
0.0610449856969
0.071851036361
0.085768000395
0.101965419513
0.119549919813
0.136796220733
0.151744832677
0.163328552704
0.171518331234
0.176843410875
0.179693018257
0.181059166415
0.186439951044
0.206940191097
0.223693657764
0.229601719595
0.231495106416
0.231756203235
0.0846546480992
0.0895948461871
0.0966074888652
0.10573384693
0.116721605023
0.129005390705
0.141818234439
0.154292369309
0.165495973366
0.174919221139
0.182587070192
0.188763920124
0.193684902981
0.197955130979
0.20400457091
0.216476384481
0.226297479101
0.2300915537
0.231415711743
0.231656251467
0.106568193065
0.110202528285
0.115313644947
0.121899315184
0.129840995491
0.138877584576
0.148609734603
0.158497178598
0.167986289815
0.176738277647
0.184720527484
0.192020319259
0.198707450354
0.204949960982
0.211684502744
0.220559198447
0.226870568225
0.229733185908
0.231045403415
0.23146616586
0.121553794062
0.123819683269
0.127070823434
0.131366054281
0.136712213958
0.143027431042
0.150157583455
0.157829473433
0.165741657135
0.173681602461
0.181581730191
0.189425340519
0.197152786285
0.204679411933
0.212140801983
0.219928064802
0.225225154192
0.228283372876
0.230217162067
0.231137042683
0.135532227439
0.136686727948
0.138417272464
0.140794686095
0.143894845288
0.147729883441
0.152288212944
0.157503766365
0.16329068222
0.16959094192
0.176393585146
0.18370386614
0.191469987614
0.199547685455
0.207798464379
0.215615287502
0.221238259672
0.225416859294
0.228797614143
0.230642849612
0.1500533807
0.150475913065
0.151171870818
0.152188386453
0.153598901709
0.155460042761
0.157835395117
0.160756919947
0.16425613174
0.168384328829
0.173228409869
0.17889605589
0.185468789074
0.192939584119
0.201039676566
0.208856440565
0.215492290237
0.221483522766
0.226953614331
0.230039978542
0.163160399934
0.163264673286
0.163487595919
0.163860298812
0.164434223301
0.165260983073
0.166400785087
0.167901470876
0.169802126105
0.172147804753
0.175021866743
0.178577887384
0.183014721162
0.188559717883
0.195296077496
0.202596145568
0.209986911836
0.217850590906
0.225407527924
0.229474676135
0.17277120289
0.172787133928
0.172860293125
0.173025251657
0.17332724517
0.17382322964
0.174565496763
0.175593898837
0.176922670178
0.178549016854
0.180475718499
0.182763983525
0.185572765994
0.189183507449
0.193933077996
0.199911064242
0.207241365011
0.216195893465
0.224788778087
0.229024529905
0.179283341072
0.179275136697
0.179301245563
0.179401900209
0.179630758505
0.180050805656
0.180720100015
0.18167990999
0.182938629456
0.184469642187
0.186230720806
0.188208782295
0.19046054293
0.193175188006
0.196699926253
0.201454850425
0.208050443686
0.216787965427
0.224907560475
0.228552445593
0.184006150081
0.183968286001
0.183949563555
0.1839943684
0.18416204605
0.18452174912
0.185139565412
0.186064786213
0.18731433398
0.18886873277
0.190684928227
0.192728034563
0.195010455493
0.197639537807
0.200861955159
0.205087724704
0.210892633266
0.218372679898
0.225009956769
0.22779021901
0.187876725137
0.187795554048
0.187714398207
0.187676892989
0.187742884837
0.187983218777
0.188468448959
0.189256137795
0.190377956682
0.191836093847
0.193612340427
0.195688703519
0.198071503286
0.200819865033
0.20408473586
0.208129069133
0.213268537387
0.219380671651
0.224565562446
0.226604641756
0.191389414229
0.19126144365
0.191110156217
0.19097526268
0.190912590979
0.190990043106
0.191277795142
0.19183770073
0.192713129623
0.193926705785
0.195486926838
0.197401334156
0.199688837432
0.202392312048
0.205598637818
0.209440747005
0.214020230108
0.219108080243
0.223298707155
0.224929652895
0.194747079313
0.194576438472
0.194361086241
0.194134033246
0.193944016217
0.193852114874
0.193923300572
0.194218001227
0.194784234149
0.195656856766
0.196863008675
0.198431306507
0.200396820107
0.202802828496
0.205706464192
0.209170634841
0.213215253395
0.217580324407
0.221209512314
0.222820215657
0.197958352212
0.197758951231
0.197497845651
0.197201187158
0.196909874455
0.196676545702
0.196558127551
0.196608782663
0.196873792002
0.197389880604
0.198190698527
0.199314795441
0.200808504235
0.202723718743
0.205114100477
0.208034265029
0.211481338421
0.215241333429
0.218558526407
0.22042170589
0.200931344846
0.200718817986
0.200433574027
0.200095993364
0.19973997093
0.199410243209
0.199155602419
0.199022264289
0.199048703235
0.199266404245
0.199705385701
0.200402068791
0.20140369
0.202766163492
0.204551266585
0.206821815616
0.209599214291
0.212752403648
0.215801300615
0.217941527591
0.203566689825
0.203353631978
0.203062931687
0.202710154507
0.202323445025
0.201941056568
0.201605113381
0.201354882524
0.201221784223
0.201230268294
0.201402488197
0.201766418173
0.202361075893
0.203237128562
0.204456172434
0.206088626103
0.208187090852
0.210712046603
0.213394766425
0.215594299078
0.205820192168
0.205615473818
0.205332414741
0.204982885221
0.204590387939
0.204188054305
0.203813085591
0.203499655389
0.203273903991
0.203154413477
0.203156440425
0.203298334235
0.203608050331
0.204125075274
0.204902075685
0.206005249199
0.207501267256
0.209406783304
0.211589769751
0.213541252396
0.207712913934
0.20752169919
0.207254520474
0.20692006698
0.206537852105
0.206136713145
0.205750067876
0.205408644197
0.205135365551
0.20494504377
0.204847966838
0.20485548143
0.204984886324
0.205263631325
0.205730376075
0.206437346377
0.207442786127
0.208781781044
0.210389096623
0.211863638361
0.209304441886
0.209129995483
0.208883852621
0.208571849183
0.208209611518
0.207821976807
0.207439122948
0.207089503998
0.206794277098
0.206566189601
0.206412538752
0.20633957626
0.206356738354
0.206480230309
0.206734396136
0.207153190953
0.207775484336
0.208625494018
0.20965841785
0.210570687763
0.210664224523
0.210508738806
0.210286939166
0.210002013014
0.209665698332
0.209298641067
0.208927736644
0.208579572106
0.208274406508
0.20802408296
0.207833967614
0.207706644181
0.207645555954
0.207657408135
0.207754066979
0.207952176617
0.208269869819
0.208712784253
0.209236631801
0.20961469267
0.211853713215
0.211718043481
0.211522480984
0.211267546137
0.210960971577
0.210618876268
0.210264334106
0.209921829771
0.20961114623
0.209343555162
0.209123204409
0.208949836737
0.208821948599
0.20873908682
0.208702525816
0.208715186975
0.208778582651
0.208882617602
0.208980656365
0.208904253266
0.212920276124
0.212804660247
0.212636107299
0.212412773164
0.21213848474
0.21182426823
0.211488675512
0.211153432664
0.210837475843
0.210551894101
0.210299867334
0.210078883886
0.209883737677
0.209708123402
0.209545606537
0.209389331285
0.209229419369
0.209046160396
0.208793366458
0.208345843351
0.213898040767
0.213802015455
0.213660210716
0.213469032027
0.213228373049
0.212944136261
0.21262922377
0.212301564892
0.21197858
0.211671176019
0.211382042252
0.211107074311
0.210838233694
0.210565210236
0.210276266725
0.209958123794
0.209594423641
0.20916111985
0.208615548504
0.207863355205
0.214809838881
0.214732241497
0.214616220316
0.214456570913
0.214249989878
0.213996796976
0.213703452943
0.213382849052
0.213049905489
0.212715245735
0.212381529224
0.21204396106
0.211692967795
0.21131567815
0.210897164898
0.210420520708
0.209866190767
0.20920910417
0.208411407246
0.207399006894
0.215669836859
0.215609469352
0.215517601571
0.215388076548
0.215214643244
0.214992356301
0.214720326312
0.214404829984
0.214057658451
0.213689186613
0.213302644149
0.212893778035
0.212452339697
0.211964561506
0.211413860671
0.210781700545
0.210047093149
0.209185634351
0.2081623811
0.206912697342
0.216486262267
0.216441577584
0.216371902456
0.216270482639
0.216128470652
0.215935562747
0.215682918763
0.21536907675
0.215001960186
0.214592254121
0.214144899562
0.213657088596
0.213119386888
0.212517790755
0.211835348035
0.211052629908
0.210148045906
0.209095641919
0.207858356414
0.20637676422
0.217262305929
0.217231923753
0.217182853738
0.217107901705
0.216995886539
0.21683116184
0.216595752647
0.216278915226
0.215884899763
0.215426467635
0.214911980923
0.214340877561
0.213705107102
0.212991169603
0.212181811383
0.211256744301
0.210191061998
0.208954195724
0.207503032265
0.20577920418
0.217993357957
0.217976924794
0.217948284705
0.217900201503
0.217819941201
0.21768683002
0.217472118802
0.217151439713
0.216724081681
0.21620923181
0.215622404873
0.214966485705
0.214234358151
0.213412744446
0.212483167482
0.211422723466
0.210202292655
0.208783410713
0.207112509652
0.20513122704
0.218659985744
0.218657520351
0.218649585731
0.218629497287
0.21858437622
0.218491067852
0.218311678001
0.218003029271
0.217549443643
0.216976261582
0.216313366482
0.215571182143
0.214744484352
0.213819143439
0.21277507609
0.211585922912
0.210217119396
0.208621598211
0.206733762162
0.2044961488
0.219193938535
0.219203508736
0.219213456678
0.219217874451
0.219204326684
0.219149124985
0.21900999493
0.218730488106
0.218274557429
0.217660961895
0.216931127776
0.216108014953
0.215192027313
0.214170821299
0.213023227423
0.211721802128
0.210228693063
0.208493852036
0.206443357255
0.204025035804
0.231620240022
0.231427171649
0.231520699836
0.23129457008
0.231389772171
0.231133315737
0.231224459401
0.230942106496
0.231018444111
0.23071741706
0.230755015754
0.230446966144
0.230414761866
0.230109614376
0.229990241214
0.229677744145
0.229471974384
0.22910974707
0.228814655758
0.228343376057
0.227918361241
0.227307356954
0.226693088278
0.225951185244
0.225088500571
0.224272633797
0.223119862305
0.222321744655
0.220918417722
0.220121006305
0.218646583205
0.21781369047
0.216389209246
0.215601282364
0.214276578509
0.213575927917
0.212405474128
0.211803869842
0.210832179257
0.210318222332
0.209568794725
0.209106844335
0.208574258029
0.208126086132
0.207778542884
0.207312651278
0.207106269101
0.206600171833
0.206490948914
0.205931272688
0.205881506392
0.205261220576
0.205240201835
0.204560914576
0.204545835098
0.203819434614
0.203798883197
0.203053363241
0.203039819189
0.202317766903
0.202369524165
0.201709354441
0.201951445955
0.201345572461
)
;

boundaryField
{
    inletfuel
    {
        type            fixedValue;
        value           nonuniform 0();
    }
    inletair
    {
        type            fixedValue;
        value           nonuniform 0();
    }
    outlet
    {
        type            zeroGradient;
    }
    axis
    {
        type            empty;
    }
    leftside
    {
        type            zeroGradient;
    }
    burnerwall
    {
        type            zeroGradient;
    }
    front
    {
        type            wedge;
    }
    back
    {
        type            wedge;
    }
    procBoundary1to0
    {
        type            processor;
        value           nonuniform List<scalar> 
27
(
0.00218528619779
0.0022453800693
0.00237924292913
0.00256306120234
0.0802276962638
0.116515256789
0.170085746166
0.210972137131
0.22639034528
0.230928198755
0.231842048896
0.00297821870074
0.00387694296491
0.00536926711492
0.00778159835246
0.011532768438
0.0172119980241
0.0258071448661
0.0388510421598
0.0534281079106
0.0740443077165
0.0932983826891
0.106734344789
0.112995325497
0.112995325497
0.231694704747
0.231533499495
)
;
    }
}


// ************************************************************************* //
