/*--------------------------------*- C++ -*----------------------------------*\
  =========                 |
  \\      /  F ield         | OpenFOAM: The Open Source CFD Toolbox
   \\    /   O peration     | Website:  https://openfoam.org
    \\  /    A nd           | Version:  7
     \\/     M anipulation  |
\*---------------------------------------------------------------------------*/
FoamFile
{
    version     2.0;
    format      ascii;
    class       volScalarField;
    location    "0.1";
    object      one_over_tauStar;
}
// * * * * * * * * * * * * * * * * * * * * * * * * * * * * * * * * * * * * * //

dimensions      [0 0 -1 0 0 0 0];

internalField   nonuniform List<scalar> 
815
(
377.489308613
375.651059088
371.282863004
188.242396274
187.362854045
185.567224411
135.168831028
134.937689577
134.702323154
123.274115284
123.160681538
123.099161906
115.285950993
115.16081204
115.048604832
107.000731309
106.901222394
106.827349071
95.9380343875
95.8628417895
95.8359151329
80.477192818
80.449896511
80.4853227935
64.2779746031
64.269700975
64.3189315258
52.8598626215
52.8555074787
52.8859273606
46.5869667873
46.5688872058
46.5657425522
43.0253789108
43.0060550487
42.9919368409
40.5275550002
40.5026777465
40.4761846766
38.2540409636
38.2249831488
38.1874838055
35.8591544246
35.8317411918
35.7951536486
33.3372208378
33.3040419806
33.2572374002
30.7606370804
30.7308361146
30.6845473977
28.3523660367
28.3212599392
28.271122435
26.2261421769
26.1942505331
26.1408453364
24.4146774814
24.3822750065
24.3259481308
22.8725965737
22.841015686
22.7855435185
21.5678129266
21.5341650342
21.4728822545
20.4363011898
20.4035884865
20.3432251473
19.4806533876
19.4458214955
19.3810919015
18.6820128702
18.6472705677
18.5827492018
18.0965296132
18.0615593209
17.9975719207
17.9617380213
17.9267631948
17.8632624119
19.3102127523
19.2757032137
19.2123509911
26.1972129167
26.1676499839
26.1045445762
50.4301242634
50.4441277938
50.3784115508
114.988701938
115.181527014
115.163089122
365.836373528
183.401631073
134.526155714
123.107222296
114.99755258
106.808428988
95.878727786
80.6076942792
64.4599880125
52.9880987206
46.6221173861
43.0274487469
40.493089602
38.1915709409
35.7930869827
33.2449466382
30.667727564
28.2489383743
26.1150137861
24.2980437965
22.7585522388
21.444853421
20.31730175
19.355137845
18.5586140946
17.9754489226
17.8423822371
19.1886747815
26.0633440631
50.2895480943
115.069737636
120.015728021
119.847108259
109.044687344
81.329482299
40.4243259849
17.0268778166
15.416637379
353.054156084
330.073404831
300.414198671
266.980337354
233.475884389
202.766872949
178.850126391
159.932314441
143.275223054
128.690981329
116.560905778
107.229206471
102.398376557
104.322117115
108.724433186
98.8087407958
68.649405191
32.7725002232
15.1124618417
15.1974536002
178.607975837
170.885792409
162.375614089
154.090917912
145.848035794
136.706725838
125.981073144
114.786079792
104.562303719
96.0847059052
89.7224967065
85.9661642278
86.2410879999
91.558627024
96.7279652672
84.4340479394
52.5825289261
25.2093928509
13.3006844971
15.0569061598
134.139912538
133.222721542
131.207721391
127.519270315
121.617061948
113.52829826
103.902203311
94.1111802245
85.7820922152
79.4352658885
75.1657494168
73.418802288
74.8683086451
79.2376776958
82.3457871736
67.7813040261
40.1739506062
20.9284457318
12.6602004538
15.0906430107
123.026440431
122.406499709
120.621442788
117.124743084
111.633004944
104.256402386
95.6384452844
87.1604299681
80.0751551824
74.6454937583
70.6501592855
68.2456911219
67.7815633654
68.8081751271
68.0481974967
53.6083937396
34.0078215551
20.7234327743
14.0218981124
15.4848420679
114.861572039
114.230040739
112.594903407
109.599597105
105.068978892
99.1261337283
92.3155567323
85.6245861398
79.8926246245
75.2561339985
71.4703929029
68.457989232
66.2283739631
64.2601840117
60.3612392609
48.6951952673
35.5145461944
25.4370625306
18.1343600251
16.537300534
106.744751786
106.318917565
105.145170505
102.990481521
99.7015505452
95.3763422323
90.4054755677
85.419984589
80.9271386597
77.0021047886
73.5026941833
70.3500723801
67.4902391154
64.5127040177
59.707929281
51.205844305
42.3875134851
34.14596682
24.7352476341
18.4053040267
95.9629424032
95.8680427142
95.2673910579
94.0199024719
92.0050046025
89.240355755
85.9574250088
82.566079166
79.3970630682
76.5193569896
73.8348204617
71.1345725733
68.3235643966
65.2052883367
60.9139693757
55.0108848685
48.8795826627
42.0359694462
31.397600751
20.6424531224
80.8392353165
81.0327226819
80.9351160859
80.4367450922
79.455659441
77.9943597998
76.1956939382
74.2981835453
72.5287382897
70.9918880189
69.5879384947
68.0757439675
66.273415732
63.941526532
60.5682561743
56.3382054391
52.0792508932
46.3236587523
35.3196921865
22.3571396399
64.7574477009
65.1566175005
65.472347431
65.5852011442
65.4374968881
64.9800717542
64.2884663197
63.4862881596
62.7274438263
62.1135101831
61.6306533383
61.1753714358
60.5454659841
59.4503088986
57.5295171417
55.0449537956
52.3408532999
47.1612888495
35.8593522971
23.0610489195
53.2096946516
53.590845074
53.9882953416
54.2922668823
54.4281653822
54.340911475
54.0510457532
53.6308958099
53.2117853817
52.9375939476
52.8908893434
53.0266095914
53.1734683111
53.1302008967
52.7084566003
51.970006683
50.5695213914
45.5495196219
33.9310300222
23.23045846
46.7641615141
47.0464899227
47.3456722742
47.5563037822
47.5970325035
47.4121503397
47.0025170479
46.4307562683
45.8379626176
45.412607101
45.3149941095
45.59342152
46.168140577
46.8754855045
47.521648396
47.942388817
47.2525290523
42.2252462442
31.0209947817
23.6034768457
43.1208161199
43.3131408733
43.4961116978
43.5653220966
43.4367388278
43.0581216168
42.4294053124
41.6185087008
40.7763401798
40.109774258
39.8062158648
39.9596089151
40.5632457807
41.5134725599
42.604464571
43.4475606811
42.9061782543
37.9663924534
28.2822368822
24.3957715424
40.5493034964
40.677368596
40.7748712666
40.7355586469
40.4757098193
39.9471565167
39.155405316
38.1760949344
37.1647331827
36.3268694203
35.8477473528
35.8293054458
36.2761305752
37.1029103585
38.1039017078
38.8400132991
38.1997538247
33.8608545123
26.6646814147
25.9567081809
38.2252110445
38.3091648289
38.3450483092
38.2287124536
37.8797685217
37.2547347674
36.3665143433
35.2974930098
34.2019455312
33.2727978522
32.6787991161
32.5103291132
32.7662865927
33.3598857437
34.1114186565
34.6170467202
33.9919902686
30.8547460574
26.4112350142
29.1049457681
35.8093284336
35.8574526704
35.843404835
35.6638846655
35.2435924051
34.5467472064
33.595266297
32.4794707073
31.3518375711
30.3894279401
29.7392829258
29.4757188999
29.5918403905
30.0131430082
30.5911192511
31.0162977876
30.7109826375
29.0446177627
27.0599259907
33.1056291765
33.2448181657
33.2627589343
33.2052946619
32.9694458994
32.4839400897
31.7237161071
30.7253174014
29.590244087
28.4693972139
27.52245089
26.8716847166
26.575155935
26.6259875715
26.9706885677
27.5072565734
28.0488122208
28.2771725981
27.9920476672
28.1214321236
37.5904284344
30.6550543968
30.6473569015
30.5529843627
30.2693357474
29.7294779719
28.9214962328
27.9014577752
26.7859330786
25.7224891713
24.8484602347
24.2579550991
23.9897992719
24.0392348373
24.37828059
24.9590455232
25.7024128595
26.4860288855
27.3483944849
29.3437380879
42.0801695361
28.2256103086
28.1987890673
28.0786577302
27.7640590394
27.1938519122
26.3712015104
25.3728349824
24.3294536296
23.3809788697
22.6373727971
22.161870836
21.9736990596
22.0678980129
22.437222256
23.0785225501
23.9938783998
25.2033088317
26.9330589954
30.4937658641
45.6944226956
26.0853341827
26.04815214
25.9175540656
25.5957356558
25.0281015248
24.231712069
23.3005289032
22.3740377531
21.5803373234
21.0015196116
20.6727993595
20.5954340932
20.7614036011
21.1737198718
21.8578941733
22.8688883438
24.3285224397
26.6144973891
31.3233998598
47.7150412907
24.2658684966
24.2276723005
24.1029359863
23.7979180476
23.2632957262
22.5251276921
21.6884309241
20.896641519
20.2664469038
19.8570453221
19.6813285519
19.725561606
19.9758097525
20.4373901571
21.1477343898
22.190830984
23.7463039684
26.2939110703
31.551647551
48.1699730356
22.7284296165
22.6975072922
22.5918725964
22.3217052327
21.8396147123
21.1743324894
20.4363773187
19.772331602
19.2926799373
19.0413734726
19.013584994
19.1819078165
19.5245621067
20.0438627522
20.7778353906
21.8189673154
23.3717437452
25.9598107386
31.3282039482
47.5931081581
21.4186615884
21.4007557899
21.3221715689
21.0962766471
20.6740245874
20.0808738297
19.429304984
18.8725559844
18.523591288
18.4184839853
18.5363572046
18.8349004967
19.2823729746
19.8740638713
20.6423778177
21.6754605011
23.176785026
25.6683282867
30.8666124601
46.6780900952
20.2965583721
20.2941484743
20.2456124873
20.0660323151
19.7016238888
19.1701074853
18.5838724221
18.1095964043
17.874045191
17.9108446578
18.1813607056
18.6243965093
19.1949194241
19.8791184794
20.7008240784
21.7376190446
23.1778619285
25.5179898973
30.4277271681
45.8343948347
19.3397197861
19.3535155995
19.3344322144
19.1980465199
18.8838546911
18.3982115511
17.8527762378
17.4366096513
17.3036148873
17.488253564
17.927738468
18.5351795051
19.2488585172
20.0448402291
20.9383721351
21.9954673599
23.384524837
25.5675898425
30.1548537892
45.1990552402
18.548364113
18.577080807
18.5838640529
18.4837252188
18.2079266646
17.7493683228
17.2192629417
16.8399441453
16.8071047812
17.1553542487
17.7860426709
18.5778848121
19.4502975962
20.3709624724
21.349496352
22.4425038691
23.801404834
25.8531745658
30.1540262358
44.9391894947
17.969830246
18.0101891478
18.0356338647
17.9598646045
17.7053208559
17.2502366978
16.7076605735
16.3472201126
16.4204203631
16.9539382027
17.7963902795
18.7850134494
19.822660257
20.8733079114
21.9460286706
23.0923540517
24.450792707
26.4166432434
30.5001227678
45.1543173084
17.8383992214
17.8806313636
17.9072364993
17.8307028186
17.5647732614
17.0729019402
16.4738383855
16.1025307219
16.2797458441
17.0082942286
18.0659120802
19.2476434865
20.4462669949
21.6286858449
22.8093146519
24.0403368478
25.4563938194
27.4328233759
31.4436249202
46.1466606521
19.1728646693
19.1827321688
19.1574190787
19.0115617133
18.650983403
18.0191927194
17.2341900377
16.7162322271
16.8890736554
17.7315621265
18.9406764257
20.2703726914
21.6084159752
22.9269429258
24.2506272601
25.640370769
27.2429022864
29.4243471798
33.6161617533
48.6400647937
25.9906654433
25.8584455903
25.6249731293
25.2250969388
24.558487276
23.5099172087
22.1016778899
20.8031453394
20.3086517403
20.7441903566
21.7524090011
23.0132406777
24.3790975476
25.80819375
27.3299216529
29.0193336577
31.0569147256
33.8351771307
38.765098761
54.5902571161
50.0849192017
49.6300766803
48.9620188391
48.0734192144
46.8683473576
45.0858764108
42.295331457
38.4804225849
34.8416843819
32.607521235
31.8085110387
31.9691736238
32.7489901089
33.9731258839
35.6241231438
37.7668316929
40.6541642227
44.7762274364
51.5871938196
68.8436219267
114.839436129
114.322517968
113.610140804
112.748364307
111.691644514
110.109768728
107.05058758
101.00945676
91.8258313877
82.1093223717
74.453742076
69.4709615025
66.8138151694
66.0289115323
66.8919267752
69.3765116044
73.7958247481
80.7482764092
91.5162841068
109.252361123
32.2820349918
55.8207192334
33.0482188938
55.8113568082
33.7919473865
55.8006051906
34.2307240897
55.7867183414
34.282059942
55.7709679534
34.1180089291
55.7524744003
34.1369329186
55.7350487387
34.7975819005
55.7216029364
36.431404736
55.7163702313
38.944356366
55.7193280228
41.8977557838
55.726100022
44.8571921441
55.7366097967
48.3144843074
55.7539791922
54.1755497771
55.7672188881
88.1172198734
235.897971577
129.065157633
284.963076706
151.86124979
314.297040164
165.549769439
333.185209031
173.806287206
348.542623619
179.989132066
363.367966739
184.234117874
378.720146847
186.833525303
394.745556241
189.162568
411.121570859
191.42740074
427.309661204
193.85789216
442.813098382
196.38781889
457.221241761
199.458268545
470.226100479
203.313683274
481.464580497
208.340833859
490.838374474
214.215646764
498.247895623
218.792974818
504.487571942
216.197264764
513.42537331
)
;

boundaryField
{
    inletfuel
    {
        type            calculated;
        value           nonuniform 0();
    }
    inletair
    {
        type            calculated;
        value           nonuniform 0();
    }
    outlet
    {
        type            calculated;
        value           uniform 200;
    }
    axis
    {
        type            empty;
    }
    leftside
    {
        type            calculated;
        value           nonuniform List<scalar> 
32
(
55.8207192334
55.8113568082
55.8006051906
55.7867183414
55.7709679534
55.7524744003
55.7350487387
55.7216029364
55.7163702313
55.7193280228
55.726100022
55.7366097967
55.7539791922
55.7672188881
235.897971577
284.963076706
314.297040164
333.185209031
348.542623619
363.367966739
378.720146847
394.745556241
411.121570859
427.309661204
442.813098382
457.221241761
470.226100479
481.464580497
490.838374474
498.247895623
504.487571942
513.42537331
)
;
    }
    burnerwall
    {
        type            calculated;
        value           nonuniform 0();
    }
    front
    {
        type            wedge;
    }
    back
    {
        type            wedge;
    }
    procBoundary1to0
    {
        type            processor;
        value           nonuniform List<scalar> 
27
(
474.937850052
475.035335591
473.954689243
472.245107986
136.301576845
128.208894628
113.367835842
86.8210968709
45.4494097363
18.5260461771
15.6159276117
466.133611484
449.384629168
423.037457928
388.197730305
347.854540475
305.546651595
264.90777221
227.739431146
197.669934395
173.615998088
153.104646588
135.994446728
124.011631458
124.011631458
31.6686955728
55.8289131956
)
;
    }
}


// ************************************************************************* //
