/*--------------------------------*- C++ -*----------------------------------*\
  =========                 |
  \\      /  F ield         | OpenFOAM: The Open Source CFD Toolbox
   \\    /   O peration     | Website:  https://openfoam.org
    \\  /    A nd           | Version:  7
     \\/     M anipulation  |
\*---------------------------------------------------------------------------*/
FoamFile
{
    version     2.0;
    format      ascii;
    class       volScalarField;
    location    "0.1";
    object      p;
}
// * * * * * * * * * * * * * * * * * * * * * * * * * * * * * * * * * * * * * //

dimensions      [1 -1 -2 0 0 0 0];

internalField   nonuniform List<scalar> 
815
(
98839.3478446
98839.25761
98839.1918936
98866.3331477
98866.3073189
98866.2580213
98902.3099377
98902.337639
98902.3220087
98946.0365758
98946.0509437
98946.0555407
98993.472796
98993.5059183
98993.5346578
99041.8596498
99041.8874038
99041.9177807
99091.9505254
99091.9719048
99092.0038118
99145.6243451
99145.6369113
99145.6633863
99204.8820822
99204.8928183
99204.9128675
99270.8631407
99270.8641743
99270.8687805
99342.925123
99342.9356983
99342.9442856
99419.044107
99419.0487026
99419.0554296
99497.3030521
99497.317243
99497.333266
99578.6591934
99578.6728183
99578.689375
99663.9205859
99663.9286115
99663.9384511
99750.9447983
99750.9593766
99750.9775748
99841.6198497
99841.6258574
99841.637089
99937.2859584
99937.2866116
99937.2852398
100035.241668
100035.246967
100035.255154
100137.949375
100137.950752
100137.953039
100243.269419
100243.274247
100243.278918
100351.488175
100351.492239
100351.495767
100460.934589
100460.937334
100460.940053
100570.607921
100570.612259
100570.615872
100679.163202
100679.164677
100679.167202
100785.681084
100785.68427
100785.688778
100889.258457
100889.262189
100889.26761
100989.860512
100989.862549
100989.865361
101087.034231
101087.035224
101087.035888
101180.946345
101180.94702
101180.947445
101275.099304
101275.09958
101275.100556
98839.0879222
98866.1820841
98902.3074814
98946.0621241
98993.5773479
99041.961394
99092.0474629
99145.6986206
99204.9397315
99270.8767568
99342.9585906
99419.066445
99497.3567163
99578.7132738
99663.9539426
99751.0030562
99841.65342
99937.285223
100035.266651
100137.957073
100243.286021
100351.501248
100460.944293
100570.621443
100679.171305
100785.695395
100889.275241
100989.869386
101087.036759
101180.948333
101275.102168
98804.6164503
98804.4720642
98806.2921948
98804.9079003
98804.8632546
98804.2828721
98803.570719
98838.8846576
98838.4625978
98837.889859
98837.1795219
98836.3232472
98835.1687718
98833.3598537
98831.5513865
98830.385737
98829.3510748
98828.735828
98828.2042474
98827.8065668
98827.201865
98827.5352178
98826.9382429
98829.3113547
98831.2856617
98832.1336143
98832.7888435
98866.0171758
98865.5803468
98864.9824913
98864.1554722
98863.144535
98862.0462896
98861.2418399
98860.4766115
98859.8613218
98859.2036262
98858.5165967
98857.6970273
98856.5201035
98855.9718476
98853.7350778
98858.0075556
98858.3572068
98863.1831062
98865.4699553
98866.6061116
98902.2773592
98902.2201066
98902.176416
98902.1253376
98902.1280459
98902.206648
98902.3298634
98902.4938686
98902.7405258
98902.802336
98902.5729208
98901.7622705
98900.176827
98898.2941034
98896.1688876
98893.5280516
98900.8399556
98904.408722
98905.6095336
98906.4506419
98946.0878554
98946.1923005
98946.3542125
98946.6134612
98946.9961993
98947.5411952
98948.1977146
98949.0263679
98949.8727714
98950.5525892
98950.9467643
98950.8223723
98950.0440925
98949.3154302
98948.6234357
98950.9648129
98949.7937732
98951.2579447
98952.3366679
98952.0109735
98993.6669455
98993.8969379
98994.2313973
98994.7111718
98995.3495312
98996.1577081
98997.1091568
98998.227752
98999.5153465
99000.9656083
99002.4025065
99003.7878525
99005.0184893
99005.8902615
99006.6537661
99008.9497776
99004.3706147
99008.2022114
99005.4280545
99004.4860818
99042.0619453
99042.3143652
99042.6924759
99043.2175926
99043.8815664
99044.7438418
99045.8533783
99047.144991
99048.654391
99050.456758
99052.5022782
99054.7504008
99057.2438417
99060.3314057
99063.343944
99065.792372
99074.5009212
99066.2209663
99061.4097267
99058.9969632
99092.1452645
99092.3763219
99092.7208233
99093.2025364
99093.8427801
99094.6289478
99095.5191916
99096.5599924
99097.7808338
99099.2073093
99100.9739999
99103.1186298
99105.5997842
99108.145387
99109.4657431
99112.5601818
99113.2352847
99113.7957376
99114.1665204
99114.4848492
99145.7810049
99145.9705103
99146.2574695
99146.6667521
99147.2336713
99147.9899322
99148.8681963
99149.7786407
99150.7526027
99151.8040418
99152.9152845
99154.00894
99155.2011744
99156.8260792
99158.7827468
99162.8139719
99165.3314229
99169.7852294
99169.0750815
99169.4320817
99204.9966456
99205.1238311
99205.3123745
99205.5791363
99205.9433385
99206.4325585
99207.0776556
99207.8929466
99208.7895403
99209.6998163
99210.6304762
99211.600479
99212.4804178
99213.297426
99213.8005462
99215.8451978
99217.4038463
99220.867464
99222.711451
99225.9604571
99270.8993114
99270.9650051
99271.0663226
99271.2119862
99271.40566
99271.6588669
99271.9849992
99272.414287
99272.9752133
99273.7114372
99274.6074971
99275.6297529
99276.797312
99278.1803478
99279.8089018
99281.6877131
99283.3848289
99286.4851821
99289.1049813
99290.5887143
99342.9879834
99343.0546743
99343.1524953
99343.2906867
99343.4741529
99343.7128742
99344.0147908
99344.393461
99344.866025
99345.4605484
99346.2228034
99347.1888606
99348.4251293
99349.9028096
99351.6342038
99353.9048313
99356.8980592
99361.0211997
99365.3553102
99368.258081
99419.0961045
99419.1761664
99419.3033382
99419.4876183
99419.7399675
99420.0743546
99420.5055757
99421.0506056
99421.7266875
99422.5525522
99423.5503725
99424.754842
99426.2320094
99428.1110704
99430.5013325
99433.6413215
99437.9126798
99443.9025158
99451.3329955
99457.7475989
99497.4084569
99497.5208416
99497.6901372
99497.9312689
99498.2597711
99498.6925532
99499.249705
99499.9520702
99500.8198672
99501.8705032
99503.1175596
99504.5710988
99506.2610855
99508.262242
99510.6041896
99513.5305976
99517.1218119
99520.7786442
99523.6209343
99523.0855999
99578.7653826
99578.8806837
99579.055901
99579.3051708
99579.6471062
99580.1056942
99580.7020747
99581.4629816
99582.4178578
99583.59507
99585.0193824
99586.7127955
99588.7309562
99591.0681189
99593.6807885
99596.4669344
99599.3008826
99601.6754951
99603.7650604
99604.6076211
99663.9900023
99664.0759927
99664.2093417
99664.4020184
99664.6669091
99665.0221645
99665.4944277
99666.1062809
99666.8870666
99667.8734847
99669.1033914
99670.6220516
99672.5239694
99674.7597644
99677.2966818
99680.0732669
99682.7427125
99685.0703827
99686.8662679
99687.4143146
99751.0577826
99751.173376
99751.3447307
99751.5808271
99751.8925883
99752.2905909
99752.7862169
99753.3996297
99754.1431432
99755.0360439
99756.1055091
99757.3929363
99758.9599506
99760.7910002
99762.9030558
99765.3726527
99767.9938086
99770.3637985
99772.1513221
99772.7776775
99841.690401
99841.7739353
99841.9007647
99842.0802026
99842.3229343
99842.6416296
99843.0503945
99843.5655745
99844.2113754
99845.0023671
99845.9595507
99847.1044589
99848.4258854
99849.9113053
99851.5550766
99853.3105471
99855.3187965
99857.4824257
99859.091242
99860.2224032
99937.2869358
99937.3001681
99937.3272038
99937.3756745
99937.454511
99937.5785034
99937.7654457
99938.0379403
99938.4244094
99938.95461
99939.6511839
99940.5406635
99941.5990964
99942.8080899
99944.1163237
99945.5032953
99946.8845015
99948.2664007
99949.8854589
99951.0116402
100035.292431
100035.347339
100035.429769
100035.544539
100035.698374
100035.897716
100036.150419
100036.464483
100036.849044
100037.319194
100037.883702
100038.56419
100039.364803
100040.277393
100041.301118
100042.413715
100043.574322
100044.769515
100045.581307
100046.829605
100137.967754
100137.994908
100138.038599
100138.102522
100138.191898
100138.31303
100138.47378
100138.68348
100138.953519
100139.301684
100139.738874
100140.283397
100140.947836
100141.703353
100142.572267
100143.51344
100144.518578
100145.545886
100146.540159
100147.107477
100243.30165
100243.334521
100243.384452
100243.455091
100243.551667
100243.679603
100243.845956
100244.056898
100244.321518
100244.650025
100245.047393
100245.522531
100246.085147
100246.732641
100247.484285
100248.329295
100249.255435
100250.244262
100251.192951
100251.947244
100351.512986
100351.537618
100351.574958
100351.62814
100351.701247
100351.79852
100351.926454
100352.089683
100352.298793
100352.561533
100352.886116
100353.283791
100353.764328
100354.341202
100355.029507
100355.814711
100356.670014
100357.574933
100358.445371
100359.134603
100460.954209
100460.975703
100461.0092
100461.057137
100461.123996
100461.214046
100461.333772
100461.487711
100461.68812
100461.940576
100462.254701
100462.638367
100463.099184
100463.650036
100464.305723
100465.041258
100465.85107
100466.715689
100467.534827
100468.197553
100570.633099
100570.656846
100570.692808
100570.743559
100570.813563
100570.906843
100571.029632
100571.186834
100571.390145
100571.643921
100571.956944
100572.339609
100572.804049
100573.370714
100574.049412
100574.824442
100575.69286
100576.620192
100577.480051
100578.214151
100679.181782
100679.207518
100679.24785
100679.306148
100679.386626
100679.49487
100679.637079
100679.818891
100680.05315
100680.346755
100680.710017
100681.153385
100681.690982
100682.340476
100683.096803
100683.954927
100684.892655
100685.863802
100686.742732
100687.46939
100785.710823
100785.745496
100785.798774
100785.874811
100785.978519
100786.115337
100786.292442
100786.517027
100786.799192
100787.145682
100787.564519
100788.063038
100788.648064
100789.312553
100790.049778
100790.844661
100791.672438
100792.482511
100793.208503
100793.639578
100889.292553
100889.330465
100889.388181
100889.469955
100889.581066
100889.727117
100889.914183
100890.148948
100890.439224
100890.790314
100891.203084
100891.674272
100892.200401
100892.768144
100893.360854
100893.957787
100894.543679
100895.09461
100895.537788
100895.789126
100989.878789
100989.9007
100989.934543
100989.983357
100990.050617
100990.140384
100990.257208
100990.406169
100990.592555
100990.820624
100991.091967
100991.408026
100991.766431
100992.163085
100992.570835
100992.989629
100993.410932
100993.797261
100994.048269
100994.272386
101087.038533
101087.043567
101087.051924
101087.064799
101087.083752
101087.111434
101087.150231
101087.204765
101087.281484
101087.388084
101087.528511
101087.711383
101087.939039
101088.225703
101088.563647
101088.95106
101089.354331
101089.750964
101090.027478
101090.309759
101180.950461
101180.956943
101180.96795
101180.98539
101181.011626
101181.049902
101181.1047
101181.181187
101181.283402
101181.422259
101181.603316
101181.843289
101182.138111
101182.498447
101182.895139
101183.344984
101183.756645
101184.200803
101184.468856
101184.747131
101275.105928
101275.115743
101275.131426
101275.155855
101275.186535
101275.230647
101275.287452
101275.367265
101275.459722
101275.589601
101275.734691
101275.931297
101276.129423
101276.390504
101276.610143
101276.869754
101276.986161
101277.248221
101277.054825
101277.514141
98803.5329154
98803.5207647
98833.1242555
98833.1716398
98867.0702061
98867.0346126
98906.5952657
98906.6165088
98951.9665073
98951.9177308
99003.9978779
99003.9694551
99059.013732
99059.1053223
99114.5909877
99114.6467744
99169.0477332
99169.0375709
99226.248914
99226.4937015
99291.9659265
99292.1163235
99371.2951052
99371.5741725
99457.3153641
99457.1239025
99522.7145323
99522.6168788
99604.5155258
99604.4961092
99687.3692194
99687.3119513
99772.619222
99772.6113756
99860.1258945
99860.1394869
99950.9480301
99950.999611
100046.83476
100046.891036
100147.331803
100147.351089
100252.076505
100252.102427
100359.26102
100359.282079
100468.304276
100468.327847
100578.286217
100578.313092
100687.489953
100687.523398
100793.687371
100793.705251
100895.779578
100895.794775
100994.239141
100994.252707
101090.26243
101090.284255
101184.668905
101184.697012
101277.144346
101277.321564
)
;

boundaryField
{
    inletfuel
    {
        type            zeroGradient;
    }
    inletair
    {
        type            zeroGradient;
    }
    outlet
    {
        type            fixedValue;
        value           uniform 101325;
    }
    axis
    {
        type            empty;
    }
    leftside
    {
        type            zeroGradient;
    }
    burnerwall
    {
        type            zeroGradient;
    }
    front
    {
        type            wedge;
    }
    back
    {
        type            wedge;
    }
    procBoundary1to0
    {
        type            processor;
        value           nonuniform List<scalar> 
27
(
98817.4166339
98817.3158263
98817.2582774
98817.1696983
98790.5226851
98790.129309
98790.6194726
98788.772787
98786.5652283
98781.7384796
98778.3173605
98816.950244
98816.4857201
98815.8281001
98815.007541
98814.0535033
98813.0332694
98812.0818691
98811.118741
98809.2400222
98807.1598962
98805.5743873
98804.6114976
98804.271955
98804.271955
98777.6316872
98777.5292919
)
;
    }
}


// ************************************************************************* //
