/*--------------------------------*- C++ -*----------------------------------*\
  =========                 |
  \\      /  F ield         | OpenFOAM: The Open Source CFD Toolbox
   \\    /   O peration     | Website:  https://openfoam.org
    \\  /    A nd           | Version:  7
     \\/     M anipulation  |
\*---------------------------------------------------------------------------*/
FoamFile
{
    version     2.0;
    format      ascii;
    class       volScalarField;
    location    "0.1";
    object      PaSR<psiReactionThermo>:kappa;
}
// * * * * * * * * * * * * * * * * * * * * * * * * * * * * * * * * * * * * * //

dimensions      [0 0 0 0 0 0 0];

internalField   nonuniform List<scalar> 
815
(
2.43289679174e-12
2.41801785204e-12
2.3869945552e-12
1.18301844094e-12
1.17774553083e-12
1.1667799188e-12
8.76740366277e-13
8.75394403212e-13
8.74470133823e-13
8.16716614927e-13
8.16234772391e-13
8.16219516063e-13
7.71699071919e-13
7.70884231377e-13
7.70335157318e-13
7.17709103926e-13
7.17090354453e-13
7.16696384476e-13
6.41230368499e-13
6.40656665e-13
6.40531005093e-13
5.35343065088e-13
5.35185351819e-13
5.35427343e-13
4.29544482768e-13
4.29445130683e-13
4.29735088077e-13
3.56776969177e-13
3.56750470764e-13
3.56911246494e-13
3.16978076001e-13
3.16837096775e-13
3.1677401871e-13
2.93951141397e-13
2.9380707303e-13
2.93676046488e-13
2.77334254271e-13
2.77161768224e-13
2.76949663638e-13
2.61915112275e-13
2.616944693e-13
2.61407938629e-13
2.45576607057e-13
2.45384518097e-13
2.45110162799e-13
2.28645434547e-13
2.28398489833e-13
2.28053518166e-13
2.11627106501e-13
2.1141203851e-13
2.1107497945e-13
1.9599862553e-13
1.95776558006e-13
1.95415006431e-13
1.82333570145e-13
1.82107131898e-13
1.81724219487e-13
1.70706448077e-13
1.70476588574e-13
1.70073178686e-13
1.60737278465e-13
1.60514875227e-13
1.6011729663e-13
1.5223458655e-13
1.51991559896e-13
1.51550124346e-13
1.44759255325e-13
1.44524913375e-13
1.44088921899e-13
1.38397076412e-13
1.38143732278e-13
1.37674420074e-13
1.33029339844e-13
1.32777388565e-13
1.32308787841e-13
1.29075983783e-13
1.28822333817e-13
1.28357182538e-13
1.28186746429e-13
1.27932980857e-13
1.2747147871e-13
1.37449957718e-13
1.37199326478e-13
1.36740428289e-13
1.84016070379e-13
1.83799992352e-13
1.83350707688e-13
3.41572608747e-13
3.41631560421e-13
3.41192075757e-13
7.62575473283e-13
7.63833126227e-13
7.63691354722e-13
2.34754588815e-12
1.15379778396e-12
8.74072535017e-13
8.16883315893e-13
7.70260584855e-13
7.16753385785e-13
6.4088411576e-13
5.36300075742e-13
4.30634640343e-13
3.57564337812e-13
3.17111082359e-13
2.93884404492e-13
2.77037016349e-13
2.6140644761e-13
2.45075556906e-13
2.27947509471e-13
2.10943829511e-13
1.95250829337e-13
1.81537536246e-13
1.69873265123e-13
1.59924888859e-13
1.51347526183e-13
1.43900943222e-13
1.37483957678e-13
1.32130893233e-13
1.28193701319e-13
1.27317730821e-13
1.3656992928e-13
1.83071167264e-13
3.40635729993e-13
7.63080151589e-13
6.70747720441e-13
6.95965527089e-13
6.54115642027e-13
5.09824463061e-13
2.75911272162e-13
1.21813249013e-13
1.10183288221e-13
2.25786311364e-12
2.09806291216e-12
1.89540796317e-12
1.67133061899e-12
1.44975048117e-12
1.2472628187e-12
1.09055819e-12
9.66237953384e-13
8.50925686148e-13
7.44968637474e-13
6.5749950651e-13
5.96674172952e-13
5.72953450275e-13
5.97286267672e-13
6.42400636414e-13
6.01168567751e-13
4.414943525e-13
2.27564885765e-13
1.08483384489e-13
1.08562148054e-13
1.12491744947e-12
1.07840952159e-12
1.02779021555e-12
9.79300373135e-13
9.3025236111e-13
8.72235744968e-13
7.98916738364e-13
7.16949225576e-13
6.3805368871e-13
5.72378515649e-13
5.25454401248e-13
5.00440858474e-13
5.04248565931e-13
5.42680485921e-13
5.85311876518e-13
5.2603659822e-13
3.50485516066e-13
1.77890974695e-13
9.56948638248e-14
1.07407437828e-13
8.7323468778e-13
8.70120959784e-13
8.60051163182e-13
8.38440102186e-13
8.0056751934e-13
7.45620878289e-13
6.77320480547e-13
6.05339276926e-13
5.4259230512e-13
4.94616018156e-13
4.62495710821e-13
4.4880267458e-13
4.57446456298e-13
4.86907569396e-13
5.1303216835e-13
4.36722606648e-13
2.7522523144e-13
1.48749961324e-13
9.0980160849e-14
1.07411149273e-13
8.17438538055e-13
8.15131832832e-13
8.05037786872e-13
7.8293019701e-13
7.46292403714e-13
6.95425680136e-13
6.34534846994e-13
5.73373153696e-13
5.21312933516e-13
4.81045239072e-13
4.51386044844e-13
4.33380290293e-13
4.29460774832e-13
4.37094293343e-13
4.37026487154e-13
3.55924811727e-13
2.35611747749e-13
1.46907629917e-13
1.0013111005e-13
1.09866711194e-13
7.69921053983e-13
7.66707956261e-13
7.56743650163e-13
7.37317344181e-13
7.06894888828e-13
6.66050941116e-13
6.18365294264e-13
5.70675660137e-13
5.29116740752e-13
4.95169227041e-13
4.67483296992e-13
4.45761620173e-13
4.30383270517e-13
4.18326925612e-13
3.96258089023e-13
3.27576335664e-13
2.45055815291e-13
1.77958402972e-13
1.27791388506e-13
1.16803055871e-13
7.16665136089e-13
7.14479115363e-13
7.07320892488e-13
6.9345857224e-13
6.71613745361e-13
6.42269744208e-13
6.07942957108e-13
5.72923222796e-13
5.40820787321e-13
5.12409151961e-13
4.86995321726e-13
4.6438310406e-13
4.44624788601e-13
4.25432168254e-13
3.9602163477e-13
3.44548931747e-13
2.89160963262e-13
2.34650906216e-13
1.71308565335e-13
1.29262233481e-13
6.41661288161e-13
6.41544975753e-13
6.38149711745e-13
6.30451157562e-13
6.17475291433e-13
5.99178832433e-13
5.7696448902e-13
5.53542782218e-13
5.3119904512e-13
5.10540833056e-13
4.91114392758e-13
4.71742823508e-13
4.52171964909e-13
4.31579737775e-13
4.04718351135e-13
3.68601295241e-13
3.30444956516e-13
2.85563121052e-13
2.14539698792e-13
1.44232315815e-13
5.37939857421e-13
5.39517408604e-13
5.3924099149e-13
5.3633166645e-13
5.30122591572e-13
5.2050387386e-13
5.08287926771e-13
4.94994875305e-13
4.82180446262e-13
4.70721679418e-13
4.60186268773e-13
4.49184353848e-13
4.36767508196e-13
4.21656509827e-13
4.00836377337e-13
3.75500475995e-13
3.50083262632e-13
3.1303546773e-13
2.39765285791e-13
1.5579591552e-13
4.32569362316e-13
4.35208763494e-13
4.37280913854e-13
4.3795147149e-13
4.36738454148e-13
4.33214420268e-13
4.27763326262e-13
4.21143805461e-13
4.14419462163e-13
4.08484413165e-13
4.0361110224e-13
3.9952831135e-13
3.95187121879e-13
3.88841356371e-13
3.78255394048e-13
3.65033583559e-13
3.50550675717e-13
3.17759620997e-13
2.42907131468e-13
1.60675870434e-13
3.58966405386e-13
3.61356063153e-13
3.63769656874e-13
3.65432785539e-13
3.65767240253e-13
3.64324009838e-13
3.61153639408e-13
3.56696533416e-13
3.51872568214e-13
3.47832142868e-13
3.4546734635e-13
3.44901839948e-13
3.45382391529e-13
3.45879549694e-13
3.45310517977e-13
3.43781429686e-13
3.38009686864e-13
3.06301849655e-13
2.30026683519e-13
1.61937477773e-13
3.17985730368e-13
3.19710219881e-13
3.21453265619e-13
3.22469567546e-13
3.22154230803e-13
3.20077796797e-13
3.16200408607e-13
3.10935205655e-13
3.05282010571e-13
3.00636051196e-13
2.98271645764e-13
2.98759955442e-13
3.0184968389e-13
3.06758896257e-13
3.12431388562e-13
3.17689129737e-13
3.15872949435e-13
2.83953182549e-13
2.10987961942e-13
1.64420152901e-13
2.94447301283e-13
2.95592974014e-13
2.96596588415e-13
2.96727498105e-13
2.95383640834e-13
2.92188245528e-13
2.87133870213e-13
2.80701428945e-13
2.73962195342e-13
2.68385807113e-13
2.65311940622e-13
2.6545497408e-13
2.68892075256e-13
2.75110613277e-13
2.82949461108e-13
2.89886153866e-13
2.87979352451e-13
2.56311445023e-13
1.93297546296e-13
1.69560834674e-13
2.77359710255e-13
2.78103152721e-13
2.78585042007e-13
2.78072055125e-13
2.75982935237e-13
2.71991738039e-13
2.66151934644e-13
2.59007950806e-13
2.5165115613e-13
2.45504498066e-13
2.41836933585e-13
2.41349301949e-13
2.44101902813e-13
2.49593721464e-13
2.56559831652e-13
2.6213842699e-13
2.58760476131e-13
2.30553990213e-13
1.83213622459e-13
1.79710086545e-13
2.61586114866e-13
2.62061684202e-13
2.62181139885e-13
2.61237355675e-13
2.58689014482e-13
2.54258060111e-13
2.48057127514e-13
2.40669999853e-13
2.33156237925e-13
2.2682129946e-13
2.22795734933e-13
2.21682620616e-13
2.23479092787e-13
2.27629005652e-13
2.32975234736e-13
2.36817497521e-13
2.33123560438e-13
2.12383451974e-13
1.82452942667e-13
2.00314719826e-13
2.45147855761e-13
2.45407147794e-13
2.45236985276e-13
2.43947762935e-13
2.41048500011e-13
2.36324236755e-13
2.2994619831e-13
2.22532739032e-13
2.15101990098e-13
2.08826564084e-13
2.04679367932e-13
2.03154925406e-13
2.04213510222e-13
2.07370210843e-13
2.11638508332e-13
2.14911072532e-13
2.13181152023e-13
2.01970345616e-13
1.87969159491e-13
2.26923756205e-13
2.27915598094e-13
2.279932776e-13
2.27571319518e-13
2.25972549088e-13
2.22744861923e-13
2.17750623174e-13
2.11249800664e-13
2.03910311663e-13
1.96711244079e-13
1.90692092265e-13
1.86658955313e-13
1.85006108354e-13
1.8570238831e-13
1.88404617508e-13
1.92426504206e-13
1.96474243281e-13
1.98288163319e-13
1.9630710482e-13
1.9642620409e-13
2.57630636551e-13
2.1083505424e-13
2.10759190599e-13
2.10122245467e-13
2.08256093317e-13
2.04743791063e-13
1.99534110526e-13
1.93004278651e-13
1.85901302873e-13
1.7916464102e-13
1.73680998354e-13
1.70075265886e-13
1.68621382366e-13
1.69307989148e-13
1.71966065726e-13
1.76278056183e-13
1.81686432213e-13
1.87282629381e-13
1.93163635974e-13
2.0611387611e-13
2.89683477844e-13
1.95076647773e-13
1.94887686913e-13
1.94101137819e-13
1.92059872883e-13
1.88385625372e-13
1.83122535362e-13
1.76775005405e-13
1.7017477584e-13
1.64208945437e-13
1.59587897551e-13
1.56737886619e-13
1.55804847711e-13
1.56776466445e-13
1.59623832609e-13
1.64337693214e-13
1.70928542086e-13
1.79490049669e-13
1.91460791441e-13
2.15497727983e-13
3.17268576268e-13
1.8132517745e-13
1.81077018072e-13
1.80232487503e-13
1.78153877421e-13
1.74502873305e-13
1.69411982509e-13
1.63498140737e-13
1.57655264238e-13
1.52700351535e-13
1.4916537374e-13
1.47291672895e-13
1.47102034168e-13
1.48559389759e-13
1.51702512384e-13
1.56721715259e-13
1.64002432887e-13
1.74372658791e-13
1.90383786726e-13
2.22861775459e-13
3.348718788e-13
1.69646235884e-13
1.69396170636e-13
1.68593537078e-13
1.66622604111e-13
1.63175940364e-13
1.58445723377e-13
1.53128613293e-13
1.48156113e-13
1.44279554393e-13
1.41881644992e-13
1.4105126165e-13
1.41704025788e-13
1.43757085767e-13
1.47262099138e-13
1.5249385834e-13
1.60049224395e-13
1.71184575698e-13
1.8923163074e-13
2.26078379117e-13
3.41585656749e-13
1.59713367381e-13
1.59513610126e-13
1.58836009879e-13
1.57085710183e-13
1.53964755012e-13
1.49686287578e-13
1.44994871207e-13
1.40856890419e-13
1.37991012775e-13
1.36677987279e-13
1.36881275956e-13
1.3841623596e-13
1.41140539299e-13
1.45082124806e-13
1.50520862637e-13
1.58120095019e-13
1.69331271793e-13
1.87848842279e-13
2.25928050393e-13
3.40388760872e-13
1.51161436131e-13
1.51048565591e-13
1.50547390731e-13
1.49079080326e-13
1.4633167523e-13
1.42501058846e-13
1.38358400153e-13
1.34929673796e-13
1.3295807983e-13
1.3266980102e-13
1.33911587033e-13
1.3638858541e-13
1.3988387662e-13
1.44373220577e-13
1.50096496789e-13
1.57690162301e-13
1.68611279825e-13
1.86578811636e-13
2.23770327377e-13
3.35972125688e-13
1.43751404666e-13
1.43742040611e-13
1.43438085024e-13
1.42267051664e-13
1.39882090034e-13
1.36431819326e-13
1.32701079072e-13
1.2982285653e-13
1.286422153e-13
1.29366308485e-13
1.3171127061e-13
1.35242904392e-13
1.39645614879e-13
1.44827733124e-13
1.50967031537e-13
1.58626058709e-13
1.69160536953e-13
1.86129303532e-13
2.2145775069e-13
3.31388880398e-13
1.37369683404e-13
1.37469710069e-13
1.37360991057e-13
1.36469499239e-13
1.3439937616e-13
1.31226287703e-13
1.27744549995e-13
1.25257298821e-13
1.24804481592e-13
1.26596054047e-13
1.30170889284e-13
1.34906109667e-13
1.40362715213e-13
1.46373896994e-13
1.53054576389e-13
1.60884411245e-13
1.71078895049e-13
1.86962899353e-13
2.20087681053e-13
3.27821370985e-13
1.32052070214e-13
1.32254264301e-13
1.32319332203e-13
1.316645686e-13
1.29834149137e-13
1.26814896015e-13
1.23412061348e-13
1.21175589625e-13
1.21443698425e-13
1.24424017955e-13
1.29394143753e-13
1.35479441243e-13
1.42101435982e-13
1.49030698343e-13
1.56340510888e-13
1.6444243144e-13
1.74430962988e-13
1.89384827693e-13
2.20499201589e-13
3.26612662956e-13
1.28147948261e-13
1.28432053263e-13
1.28624939128e-13
1.28130825149e-13
1.26429703611e-13
1.23409739769e-13
1.19901667125e-13
1.178000528e-13
1.18840283489e-13
1.23170885961e-13
1.2968756235e-13
1.37212541196e-13
1.45044547189e-13
1.52925780613e-13
1.60925014196e-13
1.69416811432e-13
1.79402382181e-13
1.93733687446e-13
2.23290533803e-13
3.28566511157e-13
1.27285587568e-13
1.27586646755e-13
1.27790550477e-13
1.27290286986e-13
1.25503446034e-13
1.22218869729e-13
1.1831803692e-13
1.16162598383e-13
1.17977308017e-13
1.237387811e-13
1.31831686077e-13
1.40770900348e-13
1.49780534516e-13
1.58623646819e-13
1.67407877583e-13
1.76512153013e-13
1.86908767002e-13
2.01302646209e-13
2.30307641979e-13
3.35875309783e-13
1.36460755851e-13
1.3654738315e-13
1.36403936947e-13
1.3543717121e-13
1.33011766409e-13
1.28787232507e-13
1.23652218322e-13
1.20559418954e-13
1.224382576e-13
1.29088201877e-13
1.38319947489e-13
1.48357754059e-13
1.5839405398e-13
1.68232842454e-13
1.78057840494e-13
1.88310800671e-13
2.00048619175e-13
2.15896935178e-13
2.46121990796e-13
3.5366335894e-13
1.82593488735e-13
1.81755110657e-13
1.80252432608e-13
1.77628468805e-13
1.73222149002e-13
1.66337249098e-13
1.57252601917e-13
1.49183838081e-13
1.46764808395e-13
1.50781458742e-13
1.58724433752e-13
1.68351594903e-13
1.78637837656e-13
1.89304490106e-13
2.0057728751e-13
2.12999982146e-13
2.27864223951e-13
2.47950458637e-13
2.83256231007e-13
3.95616842932e-13
3.39379055704e-13
3.36639473199e-13
3.32564637662e-13
3.27047041621e-13
3.19508838737e-13
3.08541366615e-13
2.91883614869e-13
2.69449203704e-13
2.47941432155e-13
2.34849802271e-13
2.30787324985e-13
2.32957181327e-13
2.39246931765e-13
2.48547454794e-13
2.60798332154e-13
2.76476050866e-13
2.97365959129e-13
3.26836681554e-13
3.74846487703e-13
4.95049894374e-13
7.61602099616e-13
7.58363114557e-13
7.53823584643e-13
7.4818398539e-13
7.41198436818e-13
7.31273421769e-13
7.13822685787e-13
6.81172784005e-13
6.3099551291e-13
5.75315610513e-13
5.29305517415e-13
4.98487639193e-13
4.82104021277e-13
4.77938925848e-13
4.8487087935e-13
5.02855085312e-13
5.34017362418e-13
5.82116587208e-13
6.55035485454e-13
7.73758808947e-13
2.24880986444e-13
3.44214378281e-13
2.29912190995e-13
3.42177787901e-13
2.34651160957e-13
3.39888713974e-13
2.37212861742e-13
3.37903467547e-13
2.3708154015e-13
3.36817842324e-13
2.35533233429e-13
3.36898849064e-13
2.35443862953e-13
3.37991088432e-13
2.39933273483e-13
3.39618294689e-13
2.51099318677e-13
3.41198262907e-13
2.68135491937e-13
3.4247482507e-13
2.8786965107e-13
3.44166158112e-13
3.07285922258e-13
3.47703932036e-13
3.29525880308e-13
3.5554126707e-13
3.67110602897e-13
3.69448484251e-13
5.73595554095e-13
1.44788741915e-12
8.03790879115e-13
1.78437553193e-12
9.3286091219e-13
1.98700139242e-12
1.01920011234e-12
2.12050439004e-12
1.08161536896e-12
2.23269632751e-12
1.135518938e-12
2.34315306857e-12
1.17863473579e-12
2.45788792757e-12
1.21112650276e-12
2.57696768571e-12
1.24035694174e-12
2.69770602919e-12
1.26738130404e-12
2.81620194512e-12
1.2934333597e-12
2.92904447634e-12
1.31795030672e-12
3.0334894323e-12
1.34342574521e-12
3.12756288798e-12
1.37102306079e-12
3.20884562774e-12
1.40295163346e-12
3.27677529318e-12
1.43842103161e-12
3.33054773397e-12
1.47019145247e-12
3.37559955984e-12
1.47730785024e-12
3.43997064655e-12
)
;

boundaryField
{
    inletfuel
    {
        type            calculated;
        value           nonuniform 0();
    }
    inletair
    {
        type            calculated;
        value           nonuniform 0();
    }
    outlet
    {
        type            calculated;
        value           uniform 0;
    }
    axis
    {
        type            empty;
    }
    leftside
    {
        type            calculated;
        value           uniform 0;
    }
    burnerwall
    {
        type            calculated;
        value           nonuniform 0();
    }
    front
    {
        type            wedge;
    }
    back
    {
        type            wedge;
    }
    procBoundary1to0
    {
        type            processor;
        value           uniform 0;
    }
}


// ************************************************************************* //
