/*--------------------------------*- C++ -*----------------------------------*\
  =========                 |
  \\      /  F ield         | OpenFOAM: The Open Source CFD Toolbox
   \\    /   O peration     | Website:  https://openfoam.org
    \\  /    A nd           | Version:  7
     \\/     M anipulation  |
\*---------------------------------------------------------------------------*/
FoamFile
{
    version     2.0;
    format      ascii;
    class       surfaceScalarField;
    location    "0.1";
    object      phi;
}
// * * * * * * * * * * * * * * * * * * * * * * * * * * * * * * * * * * * * * //

dimensions      [1 0 -1 0 0 0 0];

internalField   nonuniform List<scalar> 
1572
(
1.2612620234e-08
-3.26520753739e-08
4.98112134595e-08
-9.77464045011e-08
-1.64223249496e-07
1.10789392433e-07
6.55177382435e-09
-4.50363793105e-08
2.74737552025e-08
-1.36225643892e-07
-2.28882924664e-07
6.26179350377e-08
-7.07749592659e-10
-5.08689348481e-08
-1.08394663008e-09
-1.55449110889e-07
-2.60604537524e-07
-1.97951194682e-09
-4.57022040652e-09
-5.23456667451e-08
-1.84157022406e-08
-1.59745579595e-07
-2.67327576738e-07
-4.18290917918e-08
-6.821445557e-09
-5.2017266343e-08
-2.69438906366e-08
-1.59126268959e-07
-2.66084743676e-07
-6.06052749069e-08
-6.50674580297e-09
-5.30334078283e-08
-2.58818320543e-08
-1.62376045624e-07
-2.71417431487e-07
-5.81961019232e-08
-4.81410859791e-09
-5.63276512307e-08
-1.94421591468e-08
-1.72164805516e-07
-2.87996939443e-07
-4.35657580781e-08
-3.44681819604e-09
-6.03905532871e-08
-1.45034371932e-08
-1.83691427306e-07
-3.07623015891e-07
-3.25575818504e-08
-2.83800171788e-09
-6.39769967815e-08
-1.18412114143e-08
-1.93951571529e-07
-3.24750237566e-07
-2.68680890594e-08
-2.57436208792e-09
-6.69986544797e-08
-1.11703114119e-08
-2.02193904106e-07
-3.38188154411e-07
-2.58264364644e-08
-4.19580438966e-09
-6.81143436231e-08
-1.61141601999e-08
-2.06221444431e-07
-3.44729948303e-07
-3.61454937427e-08
-4.5061919001e-09
-6.89302577277e-08
-1.84855649328e-08
-2.08204590768e-07
-3.4787938841e-07
-4.19094585949e-08
-6.15409148342e-09
-6.81760171543e-08
-2.40649616344e-08
-2.0653760218e-07
-3.4517791958e-07
-5.38123748929e-08
-6.58613532145e-09
-6.70614024105e-08
-2.6010260862e-08
-2.03532583425e-07
-3.40197091803e-07
-5.83457146518e-08
-6.57312237058e-09
-6.59217372093e-08
-2.63091731884e-08
-2.00142220683e-07
-3.34528732659e-07
-5.92114473467e-08
-6.76094121338e-09
-6.45173700409e-08
-2.62187791677e-08
-1.96763932524e-07
-3.29007738835e-07
-5.85297304433e-08
-5.41773549175e-09
-6.40814717091e-08
-2.25382041316e-08
-1.94625768767e-07
-3.25298862707e-07
-5.12869138572e-08
-5.24659819473e-09
-6.36327921371e-08
-2.13145630893e-08
-1.9295871971e-07
-3.22486348361e-07
-4.81320359507e-08
-4.82513164439e-09
-6.33757369283e-08
-1.95937761282e-08
-1.91894486596e-07
-3.20725670225e-07
-4.41995721649e-08
-4.32490740847e-09
-6.3394546844e-08
-1.78562355425e-08
-1.91398583804e-07
-3.19916317383e-07
-4.04080224181e-08
-4.53459612638e-09
-6.304785473e-08
-1.78016890447e-08
-1.90727859431e-07
-3.18888747865e-07
-3.98346323095e-08
-4.34670491456e-09
-6.27493781448e-08
-1.70861421881e-08
-1.90098901725e-07
-3.17977146686e-07
-3.81894868072e-08
-4.01579709192e-09
-6.25771105326e-08
-1.61082259322e-08
-1.89581847054e-07
-3.17194365731e-07
-3.62112405734e-08
-4.18989741901e-09
-6.20791972189e-08
-1.63061293176e-08
-1.88488968673e-07
-3.15486796091e-07
-3.64001199266e-08
-3.51891431959e-09
-6.20554951857e-08
-1.45559499316e-08
-1.87934357087e-07
-3.14458058549e-07
-3.30835740674e-08
-3.72809079734e-09
-6.17304963654e-08
-1.50144489788e-08
-1.86841103667e-07
-3.12661342022e-07
-3.38142996363e-08
-3.69782115309e-09
-6.13169392366e-08
-1.4831262337e-08
-1.85537767392e-07
-3.10585351142e-07
-3.32916161509e-08
-3.2274638882e-09
-6.10627108255e-08
-1.30900373146e-08
-1.84588551263e-07
-3.09002643813e-07
-2.95363337155e-08
-2.42773800605e-09
-6.10249755834e-08
-9.93837446487e-09
-1.84346471997e-07
-3.08287950746e-07
-2.28191114092e-08
-1.08421513686e-09
-6.1682323733e-08
-4.27502026237e-09
-1.86314006276e-07
-3.10990651779e-07
-1.01895852997e-08
2.59424186074e-10
8.58740471342e-10
1.56966081473e-09
-1.98630938845e-07
1.82276005517e-07
-2.75633245299e-07
1.03963823187e-07
-3.12990807271e-07
-3.58074436066e-09
-3.20176619145e-07
-7.05724055681e-08
-3.19301256698e-07
-1.0016130576e-07
-3.25871666764e-07
-9.66129732285e-08
-3.45664452635e-07
-7.25313916258e-08
-3.68585085053e-07
-5.48285217364e-08
-3.89062228334e-07
-4.49310962112e-08
-4.04294556729e-07
-4.42940558229e-08
-4.13035058158e-07
-5.92009551476e-08
-4.16078817661e-07
-7.06385524575e-08
-4.13583888553e-07
-8.86570419664e-08
-4.07936742027e-07
-9.66971941775e-08
-4.01245891994e-07
-9.84993963711e-08
-3.95186657636e-07
-9.66473545176e-08
-3.90347727609e-07
-8.61342306495e-08
-3.86837432787e-07
-8.03960218671e-08
-3.84576609455e-07
-7.38313500583e-08
-3.83178268289e-07
-6.78712032232e-08
-3.82323854636e-07
-6.58933390208e-08
-3.81578438444e-07
-6.31320343179e-08
-3.80655825854e-07
-6.03398041203e-08
-3.79101282445e-07
-5.99879583139e-08
-3.77282593593e-07
-5.59020784935e-08
-3.74958477885e-07
-5.65333074474e-08
-3.72425895184e-07
-5.54691094889e-08
-3.70356385074e-07
-4.94412418103e-08
-3.69302676844e-07
-3.85399651324e-08
-3.72374738728e-07
-1.74279367389e-08
2.25174931418e-09
6.49480550195e-06
-1.28582412546e-05
7.35757099133e-06
-9.92343387009e-06
1.07498748971e-05
6.5915459364e-07
1.60209122166e-05
2.8321968069e-05
1.7366236645e-05
5.31757768685e-05
1.34570257142e-05
6.61141633453e-05
7.28152299149e-05
3.93278832358e-06
4.32999640105e-07
-7.43907396959e-07
7.96729325318e-07
-1.21103937778e-06
1.26640250731e-06
-1.81473637596e-06
1.83019038549e-06
-2.58640542731e-06
2.49990077294e-06
-3.59015419665e-06
3.43286223501e-06
-5.00292981e-06
4.39579045348e-06
-6.53010420752e-06
4.99832579254e-06
-8.14197003919e-06
5.25309734138e-06
-9.74930733906e-06
5.12163169861e-06
-1.12975039076e-05
4.65765431187e-06
-1.28105786457e-05
3.97544914784e-06
-1.43400989053e-05
3.08412709064e-06
-1.59256144408e-05
2.345812445e-06
-1.7032245923e-05
2.46060756595e-06
-1.47109610278e-05
3.15552957391e-06
2.47007619464e-07
7.1063407335e-06
2.91660888477e-05
9.36638538625e-06
5.17149542827e-05
7.33812396033e-06
6.33981583388e-05
6.96961352326e-05
1.81802612799e-06
2.64830097509e-07
-1.04143108142e-06
4.9835495521e-07
-1.6812009614e-06
7.99282939073e-07
-2.48404017922e-06
1.16148483864e-06
-3.46405068507e-06
1.5494417375e-06
-4.63730571746e-06
1.75648634863e-06
-5.99971179405e-06
1.86664664734e-06
-7.53763856199e-06
1.95109259826e-06
-9.2274363833e-06
2.04840313624e-06
-1.10055769722e-05
2.18796192128e-06
-1.28857614341e-05
2.26760958481e-06
-1.48413007155e-05
2.06956054227e-06
-1.68928735249e-05
1.15321059257e-06
-1.89296000527e-05
-7.91749011926e-07
-2.04963447013e-05
-4.38978825623e-06
-1.81711796644e-05
-8.34181770208e-06
-4.65226539897e-07
-4.92665737342e-06
2.63666826689e-05
-6.48281659848e-07
4.45631181386e-05
1.35187945096e-06
5.4689272159e-05
6.18224842515e-05
1.71273104885e-07
-1.31119058382e-08
-1.17555571101e-06
-5.03088102567e-08
-1.86807928387e-06
-1.34316204699e-07
-2.71497888865e-06
-2.78394508473e-07
-3.7275943665e-06
-4.81206706217e-07
-4.92422414816e-06
-7.16554058538e-07
-6.31063366866e-06
-9.35683003864e-07
-7.88657509142e-06
-1.05342122603e-06
-9.664919083e-06
-9.54656159028e-07
-1.16489358606e-05
-6.2400515078e-07
-1.38314566119e-05
-1.99288965902e-07
-1.61524832034e-05
-1.05848605945e-07
-1.84886043454e-05
-9.57894608432e-07
-2.06674365705e-05
-3.76648321186e-06
-2.19514432204e-05
-9.39249800117e-06
-1.95543511876e-05
-1.37514176496e-05
-2.33307306581e-06
-9.20222415621e-06
1.920269067e-05
-2.9810180858e-06
3.32859995163e-05
-1.45403411714e-07
4.41373955733e-05
5.23789358744e-05
-1.19994085974e-07
-1.79368769918e-07
-1.19824305036e-06
-3.53518636291e-07
-1.89421440809e-06
-6.05089586431e-07
-2.73556173504e-06
-9.43188656645e-07
-3.72821213633e-06
-1.36409349683e-06
-4.89197931454e-06
-1.85604991501e-06
-6.22556153151e-06
-2.34773893214e-06
-7.77250177077e-06
-2.7084644365e-06
-9.59396053949e-06
-2.80642697876e-06
-1.17039683172e-05
-2.61886422843e-06
-1.40315294577e-05
-2.24684042338e-06
-1.64719169869e-05
-1.99480072832e-06
-1.8829173305e-05
-2.64678081242e-06
-2.06657797544e-05
-5.38311420961e-06
-2.11679053492e-05
-1.14489420274e-05
-1.80963740139e-05
-1.36507733427e-05
-5.67135867115e-06
-8.34987835762e-06
9.06061211259e-06
-2.75910006894e-06
2.09906123879e-05
-7.98251461296e-08
3.3041165423e-05
4.21978030953e-05
2.72509345705e-07
-2.45280871758e-07
-1.19488341895e-06
-4.6908826472e-07
-1.88688729861e-06
-7.78664351145e-07
-2.72139802672e-06
-1.17386270335e-06
-3.70321654173e-06
-1.64374015857e-06
-4.85162936454e-06
-2.18318077833e-06
-6.14381547976e-06
-2.76209150888e-06
-7.63333126544e-06
-3.34251534722e-06
-9.37922722519e-06
-3.88155126225e-06
-1.13969401365e-05
-4.27845327502e-06
-1.36730976641e-05
-4.53125739189e-06
-1.60270110878e-05
-4.67592450326e-06
-1.82837671512e-05
-4.8526254774e-06
-2.00445189828e-05
-5.42541128702e-06
-2.05631097078e-05
-6.69560441049e-06
-1.80825507749e-05
-4.00725502818e-06
-1.04028660009e-05
5.97503208869e-08
5.60146369915e-07
3.52256667862e-06
1.05476050569e-05
4.49743908396e-06
2.35563420182e-05
3.4912009078e-05
1.7977758434e-06
-2.38379344755e-07
-1.21870032591e-06
-4.56947461278e-07
-1.92372138793e-06
-7.57694880314e-07
-2.77488575866e-06
-1.14675099251e-06
-3.76953425466e-06
-1.63058164467e-06
-4.917321305e-06
-2.18260635162e-06
-6.21710321527e-06
-2.74433737069e-06
-7.74299359184e-06
-3.31501333166e-06
-9.48190502655e-06
-3.88137268016e-06
-1.14505054937e-05
-4.33088233205e-06
-1.3711883611e-05
-4.59254505108e-06
-1.60250864633e-05
-4.61146177195e-06
-1.82012407262e-05
-4.25932335716e-06
-1.99524165942e-05
-3.42990623287e-06
-2.065394748e-05
-1.21912558015e-06
-1.93723259188e-05
3.33615865105e-06
-1.47649455523e-05
9.3441664648e-06
-7.52561572848e-06
1.1666335605e-05
2.85467825625e-06
1.03124627589e-05
1.76785988623e-05
3.21851321627e-05
3.5216210006e-06
-1.7901923494e-07
-1.29280939296e-06
-3.41081374067e-07
-2.04396137469e-06
-5.5923083767e-07
-2.95628952972e-06
-8.25862645163e-07
-4.03217906369e-06
-1.12407906339e-06
-5.28531745447e-06
-1.4516087851e-06
-6.69083774218e-06
-1.81700046495e-06
-8.30818884415e-06
-2.20816433911e-06
-1.0134445166e-05
-2.63285228124e-06
-1.21521337507e-05
-3.19589346864e-06
-1.4310172974e-05
-3.78954004388e-06
-1.6546978649e-05
-3.96985950854e-06
-1.89442489146e-05
-3.28221497873e-06
-2.11284570856e-05
-1.31467243921e-06
-2.23805858307e-05
2.18308771905e-06
-2.20765755646e-05
7.65041036588e-06
-1.93800970933e-05
1.41885844533e-05
-1.39685301223e-05
1.72414362852e-05
-2.7068634658e-06
1.44302330636e-05
1.63756019145e-05
3.3456670792e-05
4.86038417502e-06
-1.38046911308e-07
-1.37772780518e-06
-2.65323976863e-07
-2.18224764546e-06
-4.38958783052e-07
-3.16442818708e-06
-6.5278979708e-07
-4.33613622527e-06
-8.88538821902e-07
-5.7238798464e-06
-1.10355590453e-06
-7.32571161481e-06
-1.30561850952e-06
-9.14871864904e-06
-1.50625520197e-06
-1.11832801663e-05
-1.67969457696e-06
-1.34431659203e-05
-1.78739452943e-06
-1.58709737421e-05
-1.78297717726e-06
-1.83762943757e-05
-1.79232711217e-06
-2.08196609345e-05
-1.69114618846e-06
-2.30172017636e-05
-6.87637032208e-07
-2.48066686749e-05
2.29214584199e-06
-2.59787130108e-05
7.05614176609e-06
-2.46483303172e-05
1.21135092954e-05
-1.9595096713e-05
1.52109077314e-05
-6.59521272732e-06
1.26853320124e-05
1.57868490249e-05
3.41016900504e-05
3.80415355254e-06
-1.13632160024e-07
-1.45268565796e-06
-2.19262115707e-07
-2.30457215596e-06
-3.67157460712e-07
-3.34703373884e-06
-5.56794620043e-07
-4.60019057437e-06
-7.87523652531e-07
-6.09478117741e-06
-1.04314843441e-06
-7.8475642332e-06
-1.29673951752e-06
-9.88099191651e-06
-1.51648783002e-06
-1.21935030038e-05
-1.70497791492e-06
-1.47674777324e-05
-1.85363301523e-06
-1.75552384273e-05
-1.88378608189e-06
-2.05285664033e-05
-1.65847819502e-06
-2.35745237048e-05
-1.03271222867e-06
-2.64478940472e-05
4.19831283127e-08
-2.87981006516e-05
1.18607369143e-06
-3.00395728405e-05
3.00720187977e-06
-2.93011345544e-05
5.06346874343e-06
-2.46278361552e-05
6.2429713324e-06
-1.11028201577e-05
4.48771066188e-06
1.23008485864e-05
2.91521624078e-05
1.82938123362e-07
-1.15407239379e-07
-1.5069751029e-06
-2.26285756825e-07
-2.39250787207e-06
-3.83851313141e-07
-3.47790103304e-06
-5.918810463e-07
-4.78890254597e-06
-8.56084965572e-07
-6.35833370498e-06
-1.17679886084e-06
-8.21245758946e-06
-1.5535190473e-06
-1.0381082887e-05
-1.97143518237e-06
-1.28841062974e-05
-2.39522398222e-06
-1.57343632907e-05
-2.7627744713e-06
-1.89229816976e-05
-3.05079569495e-06
-2.23976680964e-05
-3.29982592828e-06
-2.59881542059e-05
-3.45429264595e-06
-2.954540086e-05
-3.39290808164e-06
-3.27529777661e-05
-3.0185254629e-06
-3.4920982803e-05
-2.62032097979e-06
-3.47843615188e-05
-2.85836226581e-06
-3.00763130102e-05
-3.95294582237e-06
-1.62649708237e-05
-4.78302239747e-06
5.45980110137e-06
1.71925650088e-05
-3.0940803677e-06
-1.44946651577e-07
-1.53919986521e-06
-2.78669925072e-07
-2.44529474525e-06
-4.69756468202e-07
-3.55642005074e-06
-7.25633575277e-07
-4.90218089713e-06
-1.05527723937e-06
-6.51652261041e-06
-1.46553767006e-06
-8.43066480058e-06
-1.96336544252e-06
-1.06786168046e-05
-2.55316629576e-06
-1.32883557566e-05
-3.23688236969e-06
-1.62846238693e-05
-4.01264805445e-06
-1.96777846887e-05
-4.86475405279e-06
-2.34539710191e-05
-5.70431848191e-06
-2.7547744559e-05
-6.51167427442e-06
-3.17803463419e-05
-7.35945149045e-06
-3.57801929479e-05
-8.51470370795e-06
-3.8691246923e-05
-1.02830451842e-05
-3.92753319593e-05
-1.31758153198e-05
-3.50372426433e-05
-1.51334897737e-05
-2.29173651929e-05
-1.22493933725e-05
-6.13925274167e-06
1.43875334109e-06
-6.16148241635e-06
-1.7807538813e-07
-1.5494581633e-06
-3.46943807734e-07
-2.46215737187e-06
-5.88826943983e-07
-3.58223056978e-06
-9.15340019849e-07
-4.94076399311e-06
-1.33877395144e-06
-6.57265501409e-06
-1.87021305654e-06
-8.51197787265e-06
-2.5200628228e-06
-1.07953350942e-05
-3.29622029484e-06
-1.34557960134e-05
-4.20568085337e-06
-1.65238695143e-05
-5.25751066628e-06
-2.00179299322e-05
-6.47079256463e-06
-2.39334962264e-05
-7.88428901815e-06
-2.82189150852e-05
-9.55746569739e-06
-3.2726633759e-05
-1.16003308701e-05
-3.7109182285e-05
-1.4074931987e-05
-4.06460122855e-05
-1.72473399301e-05
-4.20030419889e-05
-2.06834514896e-05
-3.92204193535e-05
-2.08932435061e-05
-3.0732552921e-05
-1.52454618982e-05
-1.88163518119e-05
-1.68470179089e-05
-5.34144641202e-06
-2.17157789833e-07
-1.54073062672e-06
-4.19186524699e-07
-2.44900131253e-06
-7.09227693594e-07
-3.56423598469e-06
-1.10268572211e-06
-4.9179694155e-06
-1.61623840631e-06
-6.54524370489e-06
-2.26667940905e-06
-8.48113376051e-06
-3.07102563038e-06
-1.07629660906e-05
-4.04552403566e-06
-1.34253500521e-05
-5.20648553966e-06
-1.65003411079e-05
-6.57271183823e-06
-2.00081930633e-05
-8.17065049444e-06
-2.39468822904e-05
-1.00429124964e-05
-2.8268955787e-05
-1.22582401039e-05
-3.28377847025e-05
-1.48922556182e-05
-3.73615208273e-05
-1.79161890855e-05
-4.13048328811e-05
-2.09687166894e-05
-4.37011655149e-05
-2.29683317246e-05
-4.30614501415e-05
-2.15097695086e-05
-3.79969098289e-05
-1.41810757851e-05
-3.100024967e-05
-3.22637069323e-05
-3.81785332795e-06
-2.3885406766e-07
-1.51981089143e-06
-4.62555142728e-07
-2.41669207522e-06
-7.84091562028e-07
-3.51885780239e-06
-1.22083520153e-06
-4.85830340008e-06
-1.79180635954e-06
-6.47027451699e-06
-2.51668055161e-06
-8.39048449338e-06
-3.41571326379e-06
-1.06570001381e-05
-4.50849066163e-06
-1.33054078843e-05
-5.81497746828e-06
-1.63677580693e-05
-7.3567435505e-06
-1.98632745059e-05
-9.16154170163e-06
-2.37864818446e-05
-1.12668076878e-05
-2.80870420068e-05
-1.37067464302e-05
-3.2646932791e-05
-1.63412749917e-05
-3.73719529124e-05
-1.88700044028e-05
-4.19033308747e-05
-2.07944735234e-05
-4.5464099144e-05
-2.10369431141e-05
-4.69274230299e-05
-1.74542634138e-05
-4.54125235309e-05
-9.77834030824e-06
-4.23720903377e-05
-4.47227432967e-05
-2.10031244035e-06
-2.44392704041e-07
-1.49483555134e-06
-4.74111677359e-07
-2.37820160152e-06
-8.04328863597e-07
-3.4651817585e-06
-1.25291904251e-06
-4.78854915233e-06
-1.83920822654e-06
-6.38437034968e-06
-2.58283700844e-06
-8.2901110297e-06
-3.50403560219e-06
-1.05453796727e-05
-4.62071390475e-06
-1.31892716586e-05
-5.94829018764e-06
-1.62570914231e-05
-7.49844190437e-06
-1.97713354715e-05
-9.28448171697e-06
-2.37237735883e-05
-1.13468764406e-05
-2.80348703173e-05
-1.35781489354e-05
-3.27334016239e-05
-1.58626488558e-05
-3.77277993886e-05
-1.78490264738e-05
-4.28774895543e-05
-1.88790867112e-05
-4.76363621023e-05
-1.79444878327e-05
-5.10504986486e-05
-1.36222509207e-05
-5.24399561118e-05
-6.374840174e-06
-5.23050911729e-05
-5.50184439194e-05
-4.13707029911e-07
-2.37925861743e-07
-1.47253032218e-06
-4.60524013552e-07
-2.34416810913e-06
-7.80864317453e-07
-3.41832796013e-06
-1.21651385087e-06
-4.72910477267e-06
-1.78638614968e-06
-6.31386027408e-06
-2.50949565393e-06
-8.2130101563e-06
-3.40452449663e-06
-1.04694208337e-05
-4.4875625407e-06
-1.31274666994e-05
-5.76911330509e-06
-1.62299030349e-05
-7.25036948063e-06
-1.98092913919e-05
-8.92699134717e-06
-2.38614036601e-05
-1.0771410121e-05
-2.83251628425e-05
-1.2676768118e-05
-3.33046042259e-05
-1.45183953012e-05
-3.87097187245e-05
-1.61902349788e-05
-4.43606613527e-05
-1.69524234143e-05
-5.02670732403e-05
-1.5855338167e-05
-5.5528879186e-05
-1.2014665129e-05
-5.93121112128e-05
-5.78025493027e-06
-6.14890154044e-05
-6.49359606641e-05
4.5476209278e-08
-2.16266256651e-07
-1.45416379759e-06
-4.21736942661e-07
-2.31644528969e-06
-7.18323059221e-07
-3.38101043476e-06
-1.12276666124e-06
-4.68365232964e-06
-1.65373130783e-06
-6.26349323044e-06
-2.32985645139e-06
-8.16474549505e-06
-3.16977035866e-06
-1.04348886038e-05
-4.18880400273e-06
-1.31258818043e-05
-5.39677585275e-06
-1.62901031612e-05
-6.78946879409e-06
-1.99771667079e-05
-8.3389936293e-06
-2.42073841559e-05
-9.99031052734e-06
-2.89430154422e-05
-1.16885472874e-05
-3.42852734212e-05
-1.32843205883e-05
-4.02246987254e-05
-1.45701148689e-05
-4.66141608703e-05
-1.55386938361e-05
-5.32300806753e-05
-1.53055769555e-05
-5.99582634899e-05
-1.25810813694e-05
-6.62413300372e-05
-7.34888258287e-06
-7.09342823344e-05
-7.65075193763e-05
-4.8476286324e-07
-2.00513148961e-07
-1.44096602585e-06
-3.9060852934e-07
-2.2966865399e-06
-6.6557675607e-07
-3.35490679662e-06
-1.04180887984e-06
-4.65296368969e-06
-1.53737127637e-06
-6.23190354391e-06
-2.17114989887e-06
-8.13956009393e-06
-2.96239932587e-06
-1.04281838277e-05
-3.92815901196e-06
-1.31577701193e-05
-5.08108060996e-06
-1.63914576173e-05
-6.42268721577e-06
-2.01966515958e-05
-7.92572090248e-06
-2.46286513984e-05
-9.52444636346e-06
-2.96915799479e-05
-1.12079043753e-05
-3.54338488402e-05
-1.28475508934e-05
-4.19618117596e-05
-1.423607744e-05
-4.91893088515e-05
-1.50776783968e-05
-5.69441476189e-05
-1.52260400561e-05
-6.49025916866e-05
-1.41786486762e-05
-7.27994044746e-05
-9.93899190152e-06
-8.08985023001e-05
-9.04378019958e-05
-1.72609115712e-06
-1.84118672726e-07
-1.43253232471e-06
-3.59299449501e-07
-2.28414060044e-06
-6.13752946038e-07
-3.33879079483e-06
-9.63942043083e-07
-4.6349294107e-06
-1.42813753178e-06
-6.21562344418e-06
-2.02641679482e-06
-8.13168921301e-06
-2.77992405244e-06
-1.0440032403e-05
-3.70959604691e-06
-1.32076835111e-05
-4.83352643605e-06
-1.65084653622e-05
-6.16258208709e-06
-2.04258729063e-05
-7.6911874525e-06
-2.50411668733e-05
-9.36021316814e-06
-3.04208515222e-05
-1.11561483988e-05
-3.65739136165e-05
-1.30043197096e-05
-4.36763510628e-05
-1.47240362122e-05
-5.17457712414e-05
-1.60259558432e-05
-6.06976738104e-05
-1.64106002068e-05
-7.03608545178e-05
-1.52367670626e-05
-8.04982333852e-05
-1.18329729843e-05
-9.12586319768e-05
-0.000106124631604
-3.01203670264e-06
-1.70459090724e-07
-1.42705927826e-06
-3.34153839181e-07
-2.27587140914e-06
-5.73275736083e-07
-3.32815370509e-06
-9.0476921399e-07
-4.62301170656e-06
-1.34787703436e-06
-6.20522601134e-06
-1.92454174146e-06
-8.12786026153e-06
-2.65858681987e-06
-1.04519137126e-05
-3.57512675351e-06
-1.32503465842e-05
-4.69797056443e-06
-1.66067247166e-05
-6.04729206603e-06
-2.06180646732e-05
-7.63065852808e-06
-2.53893554467e-05
-9.42943225085e-06
-3.10253185133e-05
-1.13851942277e-05
-3.75855674618e-05
-1.34726185544e-05
-4.52258390612e-05
-1.55259141394e-05
-5.41135600298e-05
-1.72396023828e-05
-6.42938014153e-05
-1.80807924455e-05
-7.57745833979e-05
-1.70994106078e-05
-8.86136572005e-05
-1.28183291942e-05
-0.000103250811744
-0.000122760218271
-3.93058134579e-06
-1.6292922586e-07
-1.42394791384e-06
-3.18231551114e-07
-2.27108584215e-06
-5.46413111238e-07
-3.32159620229e-06
-8.64979505623e-07
-4.61503959611e-06
-1.29440725816e-06
-6.19721242686e-06
-1.85862020534e-06
-8.12273073364e-06
-2.58423150054e-06
-1.04558626875e-05
-3.50015548745e-06
-1.32745728961e-05
-4.63581457397e-06
-1.66705778588e-05
-6.01804040663e-06
-2.07536387594e-05
-7.66527909246e-06
-2.56488113619e-05
-9.57857156558e-06
-3.14911099627e-05
-1.17072036577e-05
-3.84042604794e-05
-1.40078982711e-05
-4.65494087658e-05
-1.63081776987e-05
-5.62344229988e-05
-1.82841223272e-05
-6.76490486748e-05
-1.93453236948e-05
-8.10262387329e-05
-1.84737753558e-05
-9.67420892326e-05
-1.40548007733e-05
-0.00011561356597
-0.000140752988839
-4.20280772683e-06
-1.56047695571e-07
-1.42124446511e-06
-3.05290566732e-07
-2.26657750711e-06
-5.25790834875e-07
-3.31457553099e-06
-8.35812751114e-07
-4.60482560469e-06
-1.25742367645e-06
-6.18338295222e-06
-1.81643204741e-06
-8.106084075e-06
-2.5422005146e-06
-1.04395925183e-05
-3.46737851453e-06
-1.32657327058e-05
-4.62375978502e-06
-1.66853254158e-05
-6.04220184552e-06
-2.08186234045e-05
-7.74401944722e-06
-2.5810800819e-05
-9.73287335548e-06
-3.18259258629e-05
-1.19866939231e-05
-3.90242687841e-05
-1.43865341736e-05
-4.76749046498e-05
-1.67642962874e-05
-5.81428879672e-05
-1.87707802364e-05
-7.07915221934e-05
-1.97774975195e-05
-8.60936710863e-05
-1.87516527823e-05
-0.000104735869708
-1.4124965138e-05
-0.000127902056408
-0.000158636149771
-4.25434058724e-06
-1.50461182587e-07
-1.41770365506e-06
-2.95839966338e-07
-2.26019348133e-06
-5.1130548969e-07
-3.30430702383e-06
-8.1634786193e-07
-4.58831132321e-06
-1.23376873771e-06
-6.15895968293e-06
-1.79227296014e-06
-8.07109405098e-06
-2.52337123559e-06
-1.03943342962e-05
-3.46224096267e-06
-1.32135666533e-05
-4.64276452473e-06
-1.66383886993e-05
-6.09421440412e-06
-2.08019552864e-05
-7.83583493228e-06
-2.58683748403e-05
-9.87097027579e-06
-3.20266728504e-05
-1.21501270472e-05
-3.9497946362e-05
-1.45627373779e-05
-4.86196193249e-05
-1.69028495928e-05
-5.98543317415e-05
-1.87872878103e-05
-7.37294666423e-05
-1.95874700664e-05
-9.09241683413e-05
-1.8321878791e-05
-0.000112403111582
-1.36075505673e-05
-0.00013964190691
-0.000175619300977
-4.09065111509e-06
-1.47678977969e-07
-1.41222324323e-06
-2.8928221426e-07
-2.25061940232e-06
-5.00511248646e-07
-3.28817758506e-06
-8.00502926584e-07
-4.56296320102e-06
-1.21454365878e-06
-6.11963396116e-06
-1.77205134508e-06
-8.01363878489e-06
-2.50719198303e-06
-1.03155026351e-05
-3.45662993826e-06
-1.31137760657e-05
-4.65471480157e-06
-1.65268142089e-05
-6.12788996784e-06
-2.07021386556e-05
-7.88609581198e-06
-2.5826802787e-05
-9.91571927777e-06
-3.21190666981e-05
-1.21622926516e-05
-3.98446070814e-05
-1.44865323522e-05
-4.94276578299e-05
-1.66567802785e-05
-6.14188945771e-05
-1.82905215571e-05
-7.64792945807e-05
-1.87845208155e-05
-9.54740021756e-05
-1.72644050938e-05
-0.000119586118236
-1.25785254922e-05
-0.000150512164636
-0.000191278541785
-3.55879889677e-06
-1.41874814613e-07
-1.40464625796e-06
-2.81386228045e-07
-2.23703688907e-06
-4.89519014856e-07
-3.26618737932e-06
-7.86924795094e-07
-4.52772838935e-06
-1.19807564715e-06
-6.06644247112e-06
-1.75507875137e-06
-7.93473510995e-06
-2.49432040495e-06
-1.02041995259e-05
-3.45070556117e-06
-1.29701926673e-05
-4.65648408921e-06
-1.63586826096e-05
-6.13156412609e-06
-2.0533618384e-05
-7.87685821493e-06
-2.57044387873e-05
-9.86924283517e-06
-3.21155230616e-05
-1.20239724655e-05
-4.00936933956e-05
-1.41917091224e-05
-5.01252145476e-05
-1.61258346014e-05
-6.28489719751e-05
-1.74562273542e-05
-7.90304458581e-05
-1.76278943175e-05
-9.96896885125e-05
-1.58914244337e-05
-0.000126169563065
-1.12746726658e-05
-0.00016036913087
-0.000205248793456
-2.95777931606e-06
-1.41471786016e-07
-1.39580109474e-06
-2.79004393288e-07
-2.22169214544e-06
-4.84786118851e-07
-3.24089142205e-06
-7.79254139269e-07
-4.4872742746e-06
-1.18891802589e-06
-6.00325327244e-06
-1.74485248395e-06
-7.84098656232e-06
-2.48368162921e-06
-1.00712289889e-05
-3.44196635837e-06
-1.27936214675e-05
-4.64505342595e-06
-1.61482026092e-05
-6.10089766052e-06
-2.03177109612e-05
-7.79916106403e-06
-2.55300857147e-05
-9.67920556552e-06
-3.20787476114e-05
-1.16684473232e-05
-4.02983235684e-05
-1.36005323862e-05
-5.07632592889e-05
-1.52407320647e-05
-6.41699488508e-05
-1.62316812628e-05
-8.13889240373e-05
-1.61107867683e-05
-0.000103523372227
-1.42236911368e-05
-0.000132087707816
-9.67921080696e-06
-0.000169218954218
-0.000217082381483
-2.50333969862e-06
-1.38477669307e-07
-1.38602963274e-06
-2.72809864225e-07
-2.20490226822e-06
-4.74126363634e-07
-3.21303839202e-06
-7.62437286923e-07
-4.44282208685e-06
-1.16355491702e-06
-5.93418298155e-06
-1.70989126215e-06
-7.73653956318e-06
-2.43620546892e-06
-9.92201096816e-06
-3.37376350971e-06
-1.25964471056e-05
-4.54159497776e-06
-1.59127120886e-05
-5.93766773765e-06
-2.00735299171e-05
-7.53593198717e-06
-2.53286679591e-05
-9.27349144414e-06
-3.20050860959e-05
-1.10192867671e-05
-4.05004883953e-05
-1.26643615453e-05
-5.13608034587e-05
-1.39812053916e-05
-6.53930023624e-05
-1.46809087246e-05
-8.35168352569e-05
-1.43200139227e-05
-0.000106973323088
-1.23384537011e-05
-0.00013737524703
-8.26581390598e-06
-0.00017677367194
-0.000227196438732
-1.94074897848e-06
-1.24552414033e-07
-1.37743786523e-06
-2.46691671167e-07
-2.18957177214e-06
-4.30352744955e-07
-3.1870994507e-06
-6.94536390405e-07
-4.40048120773e-06
-1.0642753683e-06
-5.86659169575e-06
-1.57015130288e-06
-7.63251652933e-06
-2.24573236671e-06
-9.77007679156e-06
-3.11794931265e-06
-1.23927993088e-05
-4.1956643896e-06
-1.56703665339e-05
-5.46632455233e-06
-1.98244610145e-05
-6.88910929588e-06
-2.51303348122e-05
-8.4023352359e-06
-3.19326664298e-05
-9.8849656495e-06
-4.06847086252e-05
-1.11975607103e-05
-5.19460843405e-05
-1.22213916147e-05
-6.64960928497e-05
-1.26385015281e-05
-8.54426957428e-05
-1.21625981536e-05
-0.000109975276448
-1.0304009172e-05
-0.000141885655467
-6.89604184124e-06
-0.000182903941086
-0.000235598413155
-1.4851015562e-06
-9.97021285144e-08
-1.37111694225e-06
-1.99053629264e-07
-2.17846835716e-06
-3.49661443789e-07
-3.16721583773e-06
-5.67843139841e-07
-4.36681350903e-06
-8.74572462713e-07
-5.81219187404e-06
-1.29921536961e-06
-7.54464181474e-06
-1.87186924852e-06
-9.63726089742e-06
-2.61585598251e-06
-1.22100785137e-05
-3.53591343373e-06
-1.54488851822e-05
-4.61439622544e-06
-1.9594564198e-05
-5.81511891855e-06
-2.49385665197e-05
-7.07983698202e-06
-3.18452983851e-05
-8.33615911131e-06
-4.07794353724e-05
-9.4187482357e-06
-5.23896332317e-05
-1.02030413735e-05
-6.74066846504e-05
-1.05176771105e-05
-8.69714091501e-05
-1.00853324954e-05
-0.000112354263216
-8.58297638871e-06
-0.000145360521912
-5.6017746994e-06
-0.000187813639175
-0.000242460081956
-9.6513213111e-07
-4.54391262532e-08
-1.38168508039e-06
-9.31317639702e-08
-2.19301604139e-06
-1.68101267263e-07
-3.18486328386e-06
-2.81319452675e-07
-4.38506024552e-06
-4.49291960541e-07
-5.82528240654e-06
-6.92895154092e-07
-7.54453550297e-06
-1.03627030542e-06
-9.61430704981e-06
-1.50479721223e-06
-1.21525251194e-05
-2.09892104745e-06
-1.53668836884e-05
-2.78689171133e-06
-1.95268826885e-05
-3.52289703908e-06
-2.49358240753e-05
-4.25873410028e-06
-3.19588447563e-05
-4.93184961527e-06
-4.10727839728e-05
-5.47999812099e-06
-5.29220108662e-05
-5.7844561778e-06
-6.82853897551e-05
-5.79499341292e-06
-8.82204286811e-05
-5.44473931953e-06
-0.00011398991515
-4.54330532127e-06
-0.000147501570421
-2.63054923807e-06
-0.000190876517891
-0.000246482403222
-1.46353194652e-07
4.23571065559e-09
6.44340361552e-09
7.82862748638e-09
5.21790856041e-09
-6.58366542162e-09
-3.37048021823e-08
-9.00246484323e-08
-1.85729048076e-07
-3.21125730205e-07
-4.82478149388e-07
-6.35366442995e-07
-7.4985845475e-07
-7.79288441917e-07
-7.4638828117e-07
-6.00949516714e-07
-4.20566152883e-07
-8.36724950338e-08
1.24107787033e-07
4.33986385762e-07
1.96827257457e-07
1.87160087333e-06
1.29786204494e-05
8.34559500507e-06
8.04084112595e-07
1.19538992741e-05
7.05750212833e-06
3.9898327559e-08
1.00169515466e-05
4.97080969632e-06
-7.95844739189e-08
7.87458487503e-06
2.73810440906e-06
1.71610984766e-07
5.81893770963e-06
7.14697102555e-07
9.0000854377e-07
4.47676537436e-06
-6.57030621231e-07
1.65487234802e-06
4.06704724223e-06
-1.27524362567e-06
2.36891139071e-06
4.28560868274e-06
-1.25338292111e-06
1.81169903917e-06
3.96179404773e-06
-1.81153882467e-06
9.82956950191e-09
1.97851911472e-06
-3.89258895139e-06
-1.86337268239e-06
-1.39468306798e-06
-7.79866092545e-06
-2.9524039887e-06
-6.20359190149e-06
-1.23389613435e-05
-2.400584367e-06
-1.05105237137e-05
-1.61675933867e-05
-1.59444269008e-06
-1.35606663515e-05
-1.87307047498e-05
-9.24845735181e-07
-1.57656705047e-05
-2.08585539372e-05
-8.84580854069e-10
-1.7424109278e-05
-2.24631674054e-05
3.38684439372e-07
-1.90993436495e-05
-2.39379282255e-05
1.320127586e-07
-2.13025905748e-05
-2.58124512044e-05
-6.54629475282e-07
-2.41448931058e-05
-2.85834890133e-05
-1.35821271321e-06
-2.76975379246e-05
-3.20915539481e-05
-1.83338437066e-06
-3.17339425424e-05
-3.6044678232e-05
-1.97853655797e-06
-3.58718708115e-05
-4.00716519165e-05
-2.02284267561e-06
-3.9938898926e-05
-4.40443865771e-05
-1.94682284094e-06
-4.38082997829e-05
-4.78236282749e-05
-1.67705809051e-06
-4.72657832621e-05
-5.11991139732e-05
-1.40503045048e-06
-5.02346160098e-05
-5.41543922662e-05
-1.13777881938e-06
-5.28627645637e-05
-5.67079129746e-05