/*--------------------------------*- C++ -*----------------------------------*\
  =========                 |
  \\      /  F ield         | OpenFOAM: The Open Source CFD Toolbox
   \\    /   O peration     | Website:  https://openfoam.org
    \\  /    A nd           | Version:  7
     \\/     M anipulation  |
\*---------------------------------------------------------------------------*/
FoamFile
{
    version     2.0;
    format      ascii;
    class       volScalarField;
    location    "0.1";
    object      Qdot;
}
// * * * * * * * * * * * * * * * * * * * * * * * * * * * * * * * * * * * * * //

dimensions      [1 -1 -3 0 0 0 0];

internalField   nonuniform List<scalar> 
815
(
38765163.4947
38846126.9016
39442336.6837
64792977.2199
65131137.5346
65731900.8026
14663473.2564
14499364.6044
14255094.9254
5870176.0445
5822861.49115
5726733.28567
2520578.5311
2493101.87333
2447794.77781
985876.102445
976610.259199
959603.93471
338377.666264
335082.912177
330220.222616
107139.923654
106533.091281
105383.021448
39931.1202787
39716.4608681
39391.4670852
19007.8073829
18946.7517894
18804.5360074
10766.0695147
10721.1937948
10637.8092672
6618.09637329
6593.73394881
6545.44165
4207.88543
4194.64312762
4165.59516597
2689.66045036
2679.11851003
2662.27296025
1708.38720777
1703.89741792
1694.98173823
1097.49032184
1093.69369837
1088.37629973
727.661230726
725.731033304
722.562914638
515.521144151
514.185675799
511.827526845
396.461580036
395.387813866
393.351623711
329.156596532
328.198898617
326.271887866
288.433897469
287.610896958
285.776581218
260.623737203
259.651722305
257.819524159
236.916715962
236.119866857
234.41902132
214.291067616
213.433545424
211.82819465
190.340224245
189.628407341
188.220528738
165.496695906
164.893537296
163.699184685
141.348382216
140.852407054
139.874330462
122.476035887
122.083843214
121.31564445
117.750075789
117.486018579
116.925183924
124.8208329
124.729151312
124.399663047
118.231369247
118.385435356
118.321412258
40183240.3324
66663786.0674
13940864.4894
5608105.35513
2388068.93747
937664.43011
323720.401647
103993.048429
38993.1734457
18643.4372886
10538.9381899
6489.70285771
4132.69405119
2643.41082871
1685.43062017
1082.8511538
719.354225116
509.459655088
391.275585359
324.288695931
283.87820326
255.943226954
232.72445335
210.280436243
186.919467939
162.643516568
139.046173649
120.664920922
116.37382038
123.958063269
118.1508347
5060272.58301
3110564.9078
1472437.91877
442193.333597
78958.007018
7756.3844969
499.680820748
41832714.0375
45348101.7598
50849231.6972
59120622.606
70614698.1277
86624182.0247
57098674.712
30751012.3289
16882359.3831
9802882.78424
6238830.62465
4261321.3698
3021408.9862
2220238.1344
1591724.44277
828770.775916
249765.983021
44913.6403149
4383.99784745
341.269375802
66835386.9865
54091585.5363
41188905.6433
30498519.8064
22121286.825
15413039.8371
10117468.5497
6415944.92433
4109228.85452
2773297.4792
2001557.74127
1514944.83642
1203615.79731
1007301.87901
804752.329423
424722.539304
118459.698852
20973.6113156
1959.58191502
218.987094442
13272882.9666
12005991.9364
10318450.5038
8364985.17046
6352873.92015
4516752.58285
3043578.50998
2000725.11514
1344696.9782
957856.20863
728943.895457
586834.26213
503969.472521
457132.478089
390947.956803
200478.243655
52919.5458825
9613.32392208
1137.78843886
168.682884218
5341284.63169
4814543.27747
4113123.50231
3301315.5296
2475863.66582
1742421.42099
1170283.04531
777838.574721
535865.667596
394037.325695
309193.976555
255787.677979
224168.810656
206392.601173
176893.87557
86030.0587534
23913.1326518
5027.22125138
856.900407081
199.946926156
2264255.46243
2024855.35666
1712806.83133
1361098.17769
1013870.76376
714354.177627
486038.55773
331590.066728
236291.532175
179572.734572
145610.980003
123660.600452
108964.448972
98383.0406955
82314.8065441
40135.8148655
12770.6384126
3452.71806814
960.637662401
300.231645473
890774.083184
798894.202374
678679.032772
543941.879848
411554.980788
297593.36601
210202.253117
149690.819545
110995.919507
87367.7231525
73046.7173169
63572.2867451
56535.4703662
50416.3586431
41254.5854412
21677.0062411
8526.28508475
3168.26448963
1303.95838989
451.452101724
310134.839367
282784.263936
245967.118416
203997.655984
161976.242753
124556.575841
94270.4827953
71628.9262304
55712.746099
45082.4941535
38193.7030527
33511.5948928
29962.1618355
26683.6028036
21654.268507
13029.6655366
6422.69519231
3137.75069742
1666.39778926
610.851600373
100798.060165
93971.7875465
84446.0210793
73280.2818192
61735.0305268
50930.9274747
41549.1481685
33886.151282
27971.247981
23647.9148804
20577.6791223
18310.9576155
16441.6315483
14624.2510242
12005.9427898
8179.81407096
4924.59388408
2958.92163865
1835.77590269
705.151798134
38124.335183
36194.8232
33453.1352966
30127.3851173
26550.4065899
23008.5325499
19742.219314
16899.2854165
14560.9693858
12729.3929483
11333.922459
10258.3194972
9365.01577092
8460.78326137
7163.06052679
5417.05039301
3798.00885102
2631.24300427
1779.76353642
692.433090746
18270.3664403
17472.7599032
16365.2068834
15018.5469051
13545.0334063
12056.8021008
10654.3963295
9403.9216883
8340.03996145
7466.07306494
6760.21237002
6184.93946055
5696.58735282
5219.30199729
4597.96780928
3790.17061526
2968.66565532
2254.43320093
1561.71319554
597.742462221
10331.3362552
9911.07758249
9341.73968556
8655.0197363
7904.87404114
7148.4947825
6435.33644993
5795.40068915
5240.95743208
4770.85091884
4376.54802756
4044.76139702
3757.59591733
3481.73547601
3157.12921481
2761.16235824
2326.99704231
1861.83848346
1262.63237297
477.206874436
6370.5339342
6132.03997353
5812.89740189
5430.65857932
5015.1580452
4598.4658238
4206.56872934
3853.34626541
3542.28723978
3270.93525648
3034.8128174
2828.39696935
2644.82204126
2470.66465954
2281.48191518
2061.56438653
1803.73356215
1462.01319112
953.712427904
356.673970498
4063.65361686
3928.89620625
3750.17907242
3536.97829891
3306.1260725
3075.58540048
2859.11223605
2662.86051718
2486.90294019
2328.52615187
2184.862588
2053.2145476
1930.40315095
1810.7918317
1683.96616404
1539.66170061
1360.36861684
1092.64493355
694.623874272
255.122470316
2606.00647733
2533.60957178
2437.68811714
2323.48390864
2200.3165537
2077.79648435
1962.82435996
1857.63828825
1761.0142429
1670.44368003
1583.83425599
1499.4870514
1415.68536546
1329.69185864
1237.19627211
1130.89427874
993.472214971
788.643207042
497.32419497
182.445762645
1666.02938967
1628.64015031
1579.22572245
1520.57807559
1457.7453062
1395.64967018
1337.36858886
1283.20570357
1231.6181967
1180.58487643
1128.58378596
1074.43312936
1016.87816191
954.63532711
885.758531705
804.853250113
700.638629107
552.448012374
347.281514066
127.808292468
1072.49220135
1052.99364541
1027.40422392
997.175603325
964.994367516
933.30226662
903.273739503
874.439293778
845.448269925
814.928151268
781.919590447
745.666697149
705.30776844
660.096619047
609.076586952
549.431167827
474.225143334
371.626452904
233.019348612
86.6233975113
713.223010825
701.814350175
686.925031306
669.344538136
650.555701067
631.794594473
613.452847337
594.987728768
575.465988825
554.056733188
530.236771941
503.558540584
473.568214599
439.914954859
402.182063794
359.127351513
306.843955355
238.160785759
148.932958486
56.0415117516
504.923376113
496.577646168
485.651431729
472.592340058
458.319152416
443.590579416
428.629137542
413.153460032
396.671074764
378.723263333
358.9914675
337.234908853
313.260054193
287.026025629
258.463342043
226.929002031
190.375833118
145.500719916
90.6042958094
34.3577417775
387.249850396
379.764377087
369.814861755
357.66168065
343.977351667
329.412386057
314.323281461
298.783029273
282.65701106
265.716087938
247.758315203
228.635150633
208.327347319
186.929584152
164.56594768
140.982340436
115.237550848
85.8784432257
52.8684105701
20.1887459021
320.390295682
313.009169581
303.016155519
290.529164065
276.104083316
260.427476267
244.090410082
227.502213316
210.808169983
193.940208813
176.780785397
159.255093082
141.420844622
123.435505178
105.470585204
87.4938396674
69.1543868863
49.9806987599
30.217294751
11.6627410815
280.070483416
272.728719764
262.620115587
249.720852473
234.486666956
217.654293361
200.044879003
182.366855215
165.003007388
148.022077364
131.375687028
115.04132922
99.1086830595
83.745303178
69.1006111155
55.2126118559
41.9777982866
29.279668315
17.3229117348
6.82243409033
252.305276915
245.233151337
235.343771489
222.465797541
206.92253015
189.442927672
171.020197822
152.628753872
134.875586073
117.953558801
101.857273757
86.5909246563
72.2528584214
58.9870388585
46.9021053356
36.0209878828
26.2904628718
17.6592740476
10.2042854485
4.12191533158
229.39793269
222.890671246
213.664094745
201.397688868
186.240602363
168.830965531
150.245469822
131.692336948
114.000551204
97.4611607187
82.0789947392
67.8628959728
54.9123220069
43.3467686656
33.2299071241
24.5424655939
17.2043467489
11.1281159485
6.27044804447
2.59127949017
207.356244752
201.667184817
193.492942235
182.384064085
168.292520624
151.684622516
133.625076759
115.515733424
98.4013840298
82.6292042198
68.1708189572
55.0299759719
43.3187026774
33.1508267895
24.5588971381
17.4809188639
11.7925281708
7.35247407801
4.03285555287
1.68942392015
184.479345684
179.759455585
172.887168901
163.321417903
150.824896752
135.641158943
118.735477333
101.655510813
85.6411629842
71.0316251989
57.7160788655
45.6979844486
35.1324080309
26.1535873659
18.7805520128
12.9191727038
8.40653937911
5.05777477272
2.6951201308
1.13138836784
160.693761656
156.963377328
151.458505138
143.59743232
132.990566122
119.646373287
104.37370255
88.8169569978
74.3609009938
61.2515966915
49.2598429715
38.4157475929
28.9496285015
21.034283452
14.687548317
9.79320853629
6.16165047423
3.58164305897
1.84968196667
0.766461291789
137.535577782
134.667667058
130.376641437
124.103304827
115.370101193
103.976436871
90.5397114363
76.7570333088
64.0953845046
52.6329501014
42.026137341
32.3671150401
23.9734613425
17.0505679486
11.6125926092
7.52726866944
4.59117740509
2.58016030445
1.28469369815
0.514867446259
119.451638126
117.104888755
113.57015763
108.395242419
101.097303613
91.2890486623
79.3160329597
66.8553220458
55.5199090411
45.3209424717
35.8557435251
27.2540545817
19.8545361051
13.8470012126
9.22059019968
5.82484713626
3.44889936379
1.87068348091
0.890032214832
0.334283208441
115.231679987
112.852092168
109.34241
104.47295952
97.8391454817
88.7979647647
77.0195987531
63.7965110091
51.4479257044
40.7463446898
31.3868584534
23.29820918
16.5992062638
11.3199190253
7.35944827649
4.52465899638
2.59503212668
1.35158019716
0.606022311186
0.203694711692
122.959020916
120.686129394
117.453400303
113.240428217
107.77693234
100.210332129
89.0595219705
73.711678948
56.8718896612
42.1006217022
30.4246462782
21.4404945657
14.6482089216
9.63280485975
6.05165606264
3.58923293587
1.97582701434
0.976549815609
0.404555840675
0.114944039858
117.710449834
116.576244825
114.99018658
112.919975057
110.235345791
106.341309432
99.8741314667
88.6434202918
72.0052276002
53.4198600122
37.1993617721
24.8697020805
16.0932113032
10.0520025933
6.01340841005
3.39633852644
1.77243598606
0.820753311276
0.308752505352
0.0713223067464
138.889320859
29.0815812441
96.9022099647
22.2912442354
70.2949841481
21.5465811942
72.7217267165
30.8823406196
108.349849168
53.7018750551
174.657019167
90.2658527262
256.934062578
133.06144371
329.698969235
165.108513458
363.715777838
171.856979697
342.707573867
152.05136291
284.182463264
119.688718745
216.324361221
87.0974654314
151.128165431
59.0231945658
99.3799752563
37.1851619918
74.7108531905
50.0011756735
48.3253062542
13.6995126861
26.1461524906
5.19815871835
14.2578453731
2.22733588539
8.15087635515
1.11833913915
4.89180515778
0.643294306844
3.07302490148
0.406924006738
2.01965658842
0.276144199096
1.37814379548
0.195908265132
0.966677220292
0.142709108475
0.689358479895
0.105110684717
0.492188052889
0.0769147159566
0.344776348018
0.0545763719582
0.229893563083
0.0363280760511
0.139607062773
0.021707809492
0.0727664687221
0.0111199752959
0.0313378211249
0.00487812522301
0.0132098376742
0.00231337282313
)
;

boundaryField
{
    inletfuel
    {
        type            zeroGradient;
    }
    inletair
    {
        type            zeroGradient;
    }
    outlet
    {
        type            zeroGradient;
    }
    axis
    {
        type            empty;
    }
    leftside
    {
        type            zeroGradient;
    }
    burnerwall
    {
        type            zeroGradient;
    }
    front
    {
        type            wedge;
    }
    back
    {
        type            wedge;
    }
    procBoundary1to0
    {
        type            processor;
        value           nonuniform List<scalar> 
27
(
5771654.84484
5950353.91264
6302783.81693
6791298.54033
10109545.4153
5122192.21425
2078478.79137
611329.580899
112896.929702
10698.3604078
644.079943523
7839260.57962
9969042.02564
13262058.9488
18161994.3129
25094817.155
34624441.7033
48006980.9206
67547333.2714
86487439.1902
42096653.2371
22145401.0983
12776928.4751
7884357.74029
7884357.74029
178.370614202
36.9023056259
)
;
    }
}


// ************************************************************************* //
