/*--------------------------------*- C++ -*----------------------------------*\
  =========                 |
  \\      /  F ield         | OpenFOAM: The Open Source CFD Toolbox
   \\    /   O peration     | Website:  https://openfoam.org
    \\  /    A nd           | Version:  7
     \\/     M anipulation  |
\*---------------------------------------------------------------------------*/
FoamFile
{
    version     2.0;
    format      ascii;
    class       volScalarField;
    location    "0.1";
    object      T;
}
// * * * * * * * * * * * * * * * * * * * * * * * * * * * * * * * * * * * * * //

dimensions      [0 0 0 1 0 0 0];

internalField   nonuniform List<scalar> 
815
(
1908.0165532
1912.81137885
1923.05130858
2274.31444859
2272.6010505
2269.34597901
2099.80583469
2094.69224312
2085.07334627
1898.31703497
1894.17147813
1886.06937488
1735.8881482
1732.85857133
1727.24525313
1570.16519475
1568.26517371
1565.09029694
1391.3738604
1390.31458411
1388.88070812
1226.55780678
1226.07617607
1225.4998235
1104.25182301
1103.97345392
1103.65360377
1020.41778784
1020.24410366
1019.9915582
958.85041065
958.698004763
958.514342608
907.530746022
907.456111733
907.401661058
860.488301336
860.457489242
860.517329617
814.920166868
814.943425862
815.132281365
770.947464684
771.022202226
771.305976423
729.963473629
730.05572048
730.386760948
693.348638612
693.473216786
693.827190939
661.964855519
662.09243346
662.431187604
635.584700408
635.706788809
636.01751184
613.482822205
613.595408569
613.871203455
594.768704757
594.86177941
595.094288812
578.553683791
578.631011276
578.825018128
564.186487873
564.24810119
564.403458444
551.168160834
551.212998264
551.330481937
539.131878214
539.163140276
539.246334609
527.870103337
527.885893449
527.93381807
517.226775275
517.228394017
517.244212368
507.152322002
507.141580154
507.129364396
497.732964718
497.710374267
497.672539341
489.198606682
489.165748959
489.104135273
482.353511888
482.31462916
482.231347319
1936.90991069
2265.09360043
2072.32214406
1875.08281977
1719.61580066
1560.83183123
1387.05093006
1224.87329607
1103.32733261
1019.73105784
958.325193575
907.387034278
860.660176411
815.448221006
771.747078001
730.886408698
694.348580944
662.929100268
636.474273907
614.27745828
595.439229849
579.11250577
564.634340476
551.506022587
539.372154419
528.010039015
517.275120365
507.120052908
497.625363669
489.019051737
482.112695956
1692.85263034
1560.11724355
1069.44609295
555.437787778
359.411330899
304.231052729
294.092138558
1967.39739355
2018.30025386
2074.02369461
2119.19474067
2140.32182683
2122.18680131
2025.86195158
1846.79235481
1645.40393441
1470.76699397
1349.59784425
1286.41892891
1279.95694962
1312.58815243
1260.39360278
859.06496006
478.541032586
341.594175801
300.750479759
294.432102534
2254.74642092
2228.37840516
2175.80634748
2084.07053852
1952.90961009
1792.81231217
1614.10756611
1436.74589959
1282.00473573
1160.55564735
1073.82264788
1018.57293273
993.428561964
987.680226662
925.261115552
645.568642852
409.407575745
325.069714124
298.436520136
295.133416227
2044.42146645
1988.26736793
1908.38797143
1804.3163355
1679.4871962
1541.08805059
1398.67555769
1261.97543397
1139.65553051
1035.29083226
948.517959719
877.447671692
820.42943367
769.806911049
690.327814078
512.416189691
372.147522433
318.214984118
299.636567916
296.536741996
1851.82652094
1804.70311254
1739.33002242
1656.65632529
1559.21208702
1451.11169665
1337.81994309
1225.4200685
1118.52852685
1018.76665888
925.446202322
837.552399304
754.395383808
673.602823312
581.560151763
454.458976824
364.589976267
323.845832781
305.071489898
299.20758301
1703.72557015
1671.51805863
1626.24012277
1568.14585536
1498.31467354
1418.83050707
1332.44142512
1242.50618454
1151.38902748
1059.64379448
966.51532352
871.36329558
774.317210825
675.887242561
573.950269687
464.381319359
389.672447734
345.637453607
317.240828043
303.86485117
1551.87294743
1533.54003795
1506.84756382
1471.67260136
1427.99899826
1376.61006713
1318.4557411
1254.74808773
1186.16103526
1112.3010224
1032.04369552
944.156705305
848.098231121
744.494689063
634.253633887
527.253406198
448.91956783
388.391913707
338.148801001
310.89397447
1383.10385671
1374.8112017
1361.9590609
1344.42286347
1321.82218215
1294.03517506
1260.93905594
1222.69532671
1179.14204879
1129.42341696
1071.89486766
1004.36514924
924.681073489
831.487029022
726.862628137
623.386377964
532.697843024
446.508809584
365.248414535
319.476458968
1223.3645064
1219.83656902
1213.91946306
1205.45915564
1194.11438651
1179.57715695
1161.5767189
1139.99482584
1114.72784935
1085.36603233
1050.75722698
1008.58615638
955.712716313
888.329780802
804.089953776
710.432227074
611.459992252
499.410287541
387.707817933
327.481521352
1102.5397391
1100.56115583
1097.16878836
1092.00699556
1084.72911271
1074.86646971
1062.18540198
1046.60699251
1028.33801269
1007.60988117
984.33191918
957.433667906
924.49423811
881.468635702
823.346341717
747.937119358
650.332177525
522.860948845
396.314516759
333.802447849
1019.106101
1017.67210924
1015.20807415
1011.24549665
1005.2753329
996.763318963
985.371676487
970.992219564
953.864139265
934.470107802
913.231013641
890.000126309
863.692870267
831.533790511
788.543012313
728.168866935
639.112828738
513.649663815
394.16005854
340.487186673
957.923494742
957.049511032
955.393800597
952.417121666
947.511336193
940.059715508
929.601193136
915.907504887
899.070776496
879.427306142
857.358401739
832.974713041
805.754197534
773.942228369
733.78123176
678.735179029
598.631495783
490.167229211
392.510058605
351.430541434
907.34414307
907.208127378
906.585921851
904.93016794
901.597124697
895.920495621
887.345369082
875.504291227
860.269756684
841.684970977
819.819055322
794.57995562
765.508103723
731.410367267
689.700991295
635.858888139
564.02555978
475.193570086
399.106354307
368.42761324
860.980035665
861.638335447
862.164490564
862.037669854
860.630246032
857.269070258
851.355473311
842.426990141
830.187314539
814.43341517
794.939474692
771.336950921
743.027669799
709.021557583
667.584635928
616.09523077
552.175103319
478.812848537
417.726320592
392.111319012
816.137656188
817.535228892
819.131080351
820.469488551
820.974209508
820.008236723
816.983347947
811.409757748
802.915628217
791.170168258
775.779586576
756.190498744
731.670521614
701.286986436
663.790247687
617.677804404
561.967738984
500.102298742
447.779933771
421.213574815
772.6993587
774.635558382
777.041533131
779.530479015
781.590179301
782.642821602
782.147882932
779.649205537
774.789486631
767.236080603
756.578440213
742.231360986
723.420461643
699.216553182
668.561013529
630.233839814
583.717856778
531.634081812
484.388734285
452.71230967
731.973029059
734.210140795
737.103641501
740.324183487
743.418128585
745.865870423
747.181375739
746.967131102
744.929250075
740.811835815
734.298458586
724.909666907
711.957829904
694.58201194
671.771480443
642.371061629
605.648611276
562.869133105
519.677572475
482.420837939
695.475479036
697.810736695
700.896947127
704.455106229
708.078598464
711.293737866
713.656134273
714.818984779
714.554881443
712.697920603
709.060521014
703.324765521
694.982035765
683.331010301
667.477325769
646.308922641
618.765625269
584.699329358
546.174122113
506.263364196
664.013135698
666.295336877
669.355592423
672.954060235
676.721518219
680.217035247
683.020081931
684.814565619
685.417787693
684.73318515
682.674163101
679.076853758
673.61767535
665.793167502
654.886036785
639.905156944
619.650606992
593.155532969
560.269494813
521.833732599
637.475917318
639.609250018
642.498375421
645.938181618
649.592056444
653.044258647
655.88644567
657.814156102
658.663809935
658.37857371
656.938683475
654.282227253
650.241216928
644.484518045
636.493009043
625.470776423
610.332564189
589.83074662
562.886101017
529.144070334
615.172879732
617.096195512
619.723003394
622.880171827
626.265409711
629.486237129
632.140800493
633.921888631
634.667444915
634.338173279
632.951585259
630.513071498
626.957139864
622.093653696
615.577303486
606.837078966
595.037231734
579.108682788
557.843978386
530.069499666
596.208851691
597.884223419
600.194340693
602.997105372
606.027124821
608.919322881
611.278949863
612.79026325
613.282409754
612.720492238
611.146176016
608.611414258
605.122723266
600.601814923
594.846006115
587.493547035
577.982742341
565.552364587
549.205626428
527.406269903
579.757605735
581.170073248
583.135035589
585.543863761
588.17222844
590.688701859
592.712388124
593.920917236
594.130177206
593.308759887
591.517348601
588.84696474
585.364733592
581.076799311
575.905743211
569.661035025
562.012829674
552.478398242
540.295252706
523.716020098
565.154668314
566.300732404
567.910677055
569.907511554
572.10968806
574.229284118
575.908200227
576.824737514
576.787197282
575.767517363
573.848473403
571.158356908
567.815342621
563.89907847
559.42910298
554.345128221
548.487454924
541.560319006
532.938067438
520.675796131
551.904654137
552.79048584
554.049514183
555.629612965
557.395509891
559.105960124
560.441130241
561.092378528
560.870983853
559.757573071
557.858131177
555.336123279
552.354327414
549.048617901
545.510523404
541.76990606
537.770532849
533.311727753
527.798299435
519.039077082
539.658403038
540.298464831
541.217687823
542.388008288
543.712911008
545.006600686
545.999292426
546.412492192
546.077082739
544.990466477
543.281562744
541.141234683
538.763649816
536.323550512
533.95727187
531.746133766
529.681771342
527.586017623
524.811869744
518.875753354
528.186916767
528.5944215
529.190943275
529.963665542
530.852238418
531.724264943
532.374192472
532.577392218
532.200465012
531.266073244
529.922505588
528.373118252
526.829287002
525.480470862
524.483712924
523.938458134
523.846111161
524.002982172
523.666443997
520.021385924
517.351669146
517.54235365
517.834906633
518.226086668
518.686721573
519.138580838
519.449580225
519.471397048
519.129402758
518.475091809
517.663940365
516.894727337
516.373158146
516.287260966
516.791215508
517.98204581
519.84617767
522.139402197
524.009553972
522.255133266
507.105768906
507.09318564
507.096779795
507.120825003
507.163680953
507.198904883
507.17890427
507.053923244
506.826310878
506.57401058
506.439903106
506.59847521
507.230286008
508.505642911
510.565692866
513.494103788
517.26818121
521.612042192
525.554537458
525.379567038
497.524533605
497.312601735
497.032214771
496.694334344
496.319807411
495.931060948
495.569854094
495.311042923
495.258194855
495.505611984
496.154999047
497.331956339
499.181040125
501.845615811
505.455382284
510.090165264
515.726622626
522.071553902
528.017854034
529.09723961
488.830389824
488.421963279
487.861881662
487.166476408
486.373388543
485.542540744
484.795480563
484.346945019
484.446224657
485.218281338
486.69240697
488.916623272
491.985393307
496.01628812
501.127882511
507.403235143
514.828188499
523.09831975
530.948192102
532.806054034
481.845665308
481.267231658
480.463371759
479.451375023
478.279872312
477.035411907
475.899981843
475.203428928
475.354399209
476.554091424
478.772200755
481.95842277
486.141458013
491.397682339
497.829471895
505.504885022
514.404912471
524.186229066
533.431722247
535.408530472
298.504986795
303.340700942
300.265624566
305.902453659
302.510259742
308.907392591
305.209775159
312.296679791
308.369147565
316.033060108
312.190393083
320.26611852
316.984507201
325.362703915
322.985593075
331.85745512
330.492039672
340.429841143
340.182440184
351.864425932
353.263243546
366.766293345
370.517292962
385.207840894
391.96710947
406.317540524
416.26017001
428.092703705
440.254602315
447.782356164
460.884793978
461.382053218
476.360079914
468.663933136
485.705275578
470.635103144
489.602259114
469.023616424
489.803383033
465.778957348
488.362938436
462.435521021
486.805756731
459.873035492
485.832595881
458.349530621
485.698442233
457.788680734
486.353689453
457.946879214
487.608476142
458.55113863
489.213933226
459.322021079
490.905681067
460.035112922
492.398794424
460.545393252
493.422811891
460.9181747
493.915132159
461.490840839
494.277996868
462.471226913
)
;

boundaryField
{
    inletfuel
    {
        type            fixedValue;
        value           nonuniform 0();
    }
    inletair
    {
        type            fixedValue;
        value           nonuniform 0();
    }
    outlet
    {
        type            zeroGradient;
    }
    axis
    {
        type            empty;
    }
    leftside
    {
        type            fixedValue;
        value           uniform 294;
    }
    burnerwall
    {
        type            zeroGradient;
    }
    front
    {
        type            wedge;
    }
    back
    {
        type            wedge;
    }
    procBoundary1to0
    {
        type            processor;
        value           nonuniform List<scalar> 
27
(
1292.15804481
1299.56890605
1315.4236565
1336.90337551
2023.98581096
1704.5882061
1118.69740774
591.451788208
371.929390883
306.56918845
293.894592824
1385.43593092
1473.41810346
1588.11978545
1722.22903967
1864.08068293
1996.87764027
2095.50441754
2133.61856669
2116.55710223
1989.81835779
1838.76692247
1728.80538292
1690.67101153
1690.67101153
297.163859892
301.230577306
)
;
    }
}


// ************************************************************************* //
