/*--------------------------------*- C++ -*----------------------------------*\
  =========                 |
  \\      /  F ield         | OpenFOAM: The Open Source CFD Toolbox
   \\    /   O peration     | Website:  https://openfoam.org
    \\  /    A nd           | Version:  7
     \\/     M anipulation  |
\*---------------------------------------------------------------------------*/
FoamFile
{
    version     2.0;
    format      ascii;
    class       volVectorField;
    location    "0.1";
    object      U;
}
// * * * * * * * * * * * * * * * * * * * * * * * * * * * * * * * * * * * * * //

dimensions      [0 1 -1 0 0 0 0];

internalField   nonuniform List<vector> 
815
(
(0.218553577774 -1.01822591522e-11 -16.1227359261)
(0.563012089231 -2.73450244954e-11 -16.326546212)
(0.877073905061 -3.79526466491e-11 -16.4935642609)
(0.087964118028 -4.63379642983e-11 -20.1903025147)
(0.236169639832 -1.16740015071e-10 -20.2871489294)
(0.385063732367 -2.01241332019e-10 -20.2914589582)
(-0.00936769969865 -1.50014790631e-10 -19.9749406492)
(-0.0128023306481 -1.13925825428e-10 -20.0418699006)
(-0.00897369113324 -1.27915023e-10 -20.0007990786)
(-0.0422521250362 -9.50606858391e-11 -18.4537844295)
(-0.110387805352 -6.72414054401e-11 -18.5112187972)
(-0.176735067142 -1.84584662688e-10 -18.4709481638)
(-0.0557495638206 -1.16347457749e-10 -16.501661118)
(-0.143641536949 -1.10609157129e-10 -16.5691218831)
(-0.226614770963 -1.29005412614e-10 -16.5557669834)
(-0.0452155605845 -1.29685336451e-11 -14.7204627102)
(-0.116894814198 -3.61990419244e-11 -14.7904967011)
(-0.185693291257 -5.79672449033e-11 -14.7964471216)
(-0.0287898471765 -8.37376685395e-12 -13.5583018202)
(-0.0745949042669 -2.40377418672e-11 -13.63119782)
(-0.118541207823 -4.16914052568e-11 -13.6504528856)
(-0.0169563916805 1.15697824376e-12 -12.7584688822)
(-0.0450263082747 3.71281112116e-13 -12.8229811603)
(-0.073209487318 -2.07317077779e-11 -12.8425577023)
(-0.0121923330641 2.87193532317e-11 -12.2013903544)
(-0.0321614738272 8.43836620879e-11 -12.2663519025)
(-0.0522024714862 1.35825011557e-11 -12.287990424)
(-0.00944484123816 -7.51595318898e-12 -11.7863674374)
(-0.0257955013182 -3.41574621365e-11 -11.8441937724)
(-0.0431326364192 -6.46408745575e-11 -11.8621034724)
(-0.0142344586317 5.86235562446e-11 -11.3384561173)
(-0.0356913966658 -5.03446627108e-11 -11.3971083386)
(-0.0557219964059 -1.42207627238e-10 -11.4170153055)
(-0.0136339746595 -1.91014425039e-11 -10.8095882115)
(-0.0358248201148 -5.343988062e-11 -10.8658154483)
(-0.0577915654643 -8.37466639307e-11 -10.885457238)
(-0.0170653607066 -2.96981449222e-11 -10.1817079715)
(-0.0432868922094 -8.14020957646e-11 -10.234526582)
(-0.0679444973199 -1.14886969005e-10 -10.2543143801)
(-0.0167161098541 -7.547847098e-11 -9.47087676095)
(-0.0426308041607 -2.14175561408e-10 -9.52499900308)
(-0.067230091873 -2.517380932e-10 -9.54726412331)
(-0.014978553699 -2.68954926505e-11 -8.78915345919)
(-0.0385769117577 -7.61770623282e-11 -8.83814159606)
(-0.0614065834201 -1.30615810711e-10 -8.85908327117)
(-0.0142371290548 1.30707724376e-12 -8.15987827795)
(-0.0356691551342 3.31854523713e-12 -8.21033881562)
(-0.0556694180466 -1.14477934682e-10 -8.2331121605)
(-0.0101914483755 -2.46712248162e-11 -7.64600741588)
(-0.0270692578312 -7.00341519361e-11 -7.69356099775)
(-0.0439508355058 -1.16241377626e-10 -7.71538371606)
(-0.00905059005576 -2.11748778461e-11 -7.22357662542)
(-0.023632702886 -6.00973200574e-11 -7.26985884684)
(-0.0378424401859 -1.00177571678e-10 -7.29142436297)
(-0.00765058877665 -8.36636223017e-12 -6.89016496905)
(-0.0200100186735 -2.51662934517e-11 -6.93573837827)
(-0.0320128157293 -5.65873774593e-11 -6.95731525099)
(-0.00632040525608 7.01004303062e-11 -6.6199472526)
(-0.016781861294 2.03155002415e-10 -6.6652484974)
(-0.0270579893777 1.49916752299e-10 -6.68713582922)
(-0.0062171816568 4.58985754715e-11 -6.40077717641)
(-0.0158540953251 1.31115803775e-10 -6.44508037547)
(-0.0248859375859 3.97626998583e-11 -6.46672413704)
(-0.00559108877836 2.30898480022e-12 -6.2048032208)
(-0.0142995222258 5.07918415086e-12 -6.25145689964)
(-0.0224237607481 4.49233581983e-13 -6.27501580971)
(-0.00478569761189 -2.22237178208e-13 -6.03502062749)
(-0.0124513959085 -1.02246508904e-12 -6.08007993729)
(-0.0197687844207 -3.85797847233e-12 -6.10315660821)
(-0.0047402427699 -1.05885425957e-12 -5.86594546812)
(-0.0120375263279 -3.04544418673e-12 -5.91212514169)
(-0.0187791064749 -5.55003775109e-12 -5.93630153128)
(-0.00367800787945 -2.80647171455e-12 -5.70400509677)
(-0.00981422293027 -4.8267254011e-12 -5.74861143694)
(-0.0158693909461 -5.39512808689e-12 -5.77212313456)
(-0.00368231367861 -5.96190652618e-11 -5.54217713301)
(-0.00960603966866 -3.05745822655e-11 -5.5854992937)
(-0.015285744012 -3.70024792264e-12 -5.60825316899)
(-0.00344196181129 -5.98253521175e-12 -5.38260265987)
(-0.00893356740821 -1.97727311454e-11 -5.42477976895)
(-0.0141739039366 -3.25846405152e-11 -5.44661483781)
(-0.00281947541033 2.75403431115e-11 -5.23449767413)
(-0.00737958592895 -8.1145893051e-11 -5.27566728741)
(-0.0118086919321 -6.93757852218e-11 -5.29571169037)
(-0.00198856835038 -7.01575838184e-11 -5.11120341788)
(-0.00520109721381 -2.35325515933e-11 -5.15043671898)
(-0.00850305123417 2.17370186743e-11 -5.16547332609)
(-0.00085710735087 2.99926213539e-11 -5.06287078733)
(-0.0021259906167 1.05289599766e-10 -5.09745808196)
(-0.00352396703608 -4.7102043297e-11 -5.10365326197)
(0.000202108844706 -7.39687348905e-11 -5.06886548685)
(0.000458002129458 1.90969417583e-10 -5.09976604957)
(0.000593557983318 1.89973373798e-10 -5.10215744313)
(1.1667919972 -2.93877850044e-11 -16.6325692868)
(0.527778060404 -1.55707215311e-10 -20.2266191484)
(-0.0145917563816 -1.40703950412e-10 -19.8827191074)
(-0.246080538605 -1.79893367927e-10 -18.3562029428)
(-0.308034228349 -1.59496239241e-10 -16.4826733252)
(-0.254223135244 -7.56715508649e-11 -14.7547046224)
(-0.161292726848 -5.73155657184e-11 -13.6339711784)
(-0.101066771689 -4.00066003811e-11 -12.8321732639)
(-0.0715348784619 -2.12640806522e-11 -12.2838186068)
(-0.0611063519379 -8.03492519299e-11 -11.8550129697)
(-0.0753322859827 -1.35453963878e-10 -11.4140037634)
(-0.0800433503698 -1.071137693e-10 -10.8834710326)
(-0.0922256776565 -1.33404518923e-10 -10.2545022297)
(-0.0913360782728 -2.33127931528e-10 -9.5515751292)
(-0.0839427356092 -1.7063187956e-10 -8.86398736103)
(-0.0752107522587 -2.01954294775e-10 -8.24083636274)
(-0.0604778707362 -1.56274440673e-10 -7.72316578196)
(-0.051764268134 -1.37351819217e-10 -7.29937382036)
(-0.0437786808497 -9.17553361274e-11 -6.96530440974)
(-0.0371779777295 3.28406386409e-11 -6.69510120264)
(-0.0337741412521 -2.39633507568e-11 -6.47401417187)
(-0.0303086016926 -8.83801562845e-12 -6.28337201379)
(-0.0269635872758 -8.1712705169e-12 -6.11051546638)
(-0.0253319645048 -8.40596617316e-12 -5.94401074537)
(-0.0218957615718 -6.09224928377e-12 -5.77877610511)
(-0.0208934113538 1.74624125232e-11 -5.6138021386)
(-0.0193104527526 -5.08241485814e-11 -5.45094755583)
(-0.0161650882648 -8.12240025982e-11 -5.29819938696)
(-0.0118181233601 -2.19690906934e-11 -5.16412751817)
(-0.00502633969553 -2.38085213662e-11 -5.09761827522)
(0.000673058613101 1.10687080724e-10 -5.09446682299)
(1.65637393502 -8.37284639304e-12 -4.41237331418)
(1.24350028828 -6.05479179432e-13 -2.69853318322)
(0.848256669974 -1.4259425748e-11 0.121718756928)
(0.693530168078 -9.65222406057e-12 1.80138161433)
(0.52812054972 -4.78387412877e-12 1.93274347043)
(0.401608851135 -2.09287648259e-12 1.71657313555)
(0.191048825049 -6.02576398355e-12 1.49092032647)
(1.6750712009 -6.64298361224e-12 -16.8514651638)
(2.26918972204 4.06624490507e-11 -17.0240478366)
(2.76522725021 2.35084770635e-11 -17.027555029)
(3.1033989281 -1.33045574627e-11 -16.7256278265)
(3.28690449984 -3.21879066434e-11 -16.030102288)
(3.38047591985 -4.23659062955e-11 -14.8863419495)
(3.32179169252 -4.74234210422e-11 -13.3320458887)
(2.87992140166 -5.49383150001e-11 -11.3999693865)
(2.30000868867 -8.29971973684e-11 -9.45905197462)
(1.78289753462 -4.65658418623e-11 -7.78929493234)
(1.33539929099 -1.48871514237e-11 -6.50907082286)
(1.01297922621 1.13250919973e-11 -5.5773073128)
(0.802475818827 -2.45770730845e-11 -4.93675966995)
(0.495576273377 -1.19675628847e-11 -4.33491387621)
(0.304128737646 6.15696137384e-12 -2.91345217746)
(0.228640146115 -1.3140639067e-11 0.0132650014734)
(0.262916041065 -8.9201074847e-12 1.57822921061)
(0.259629301121 -4.51438780646e-12 1.77921459665)
(0.219264799261 -6.45466930994e-12 1.64892055266)
(0.0913497424396 -6.25854898216e-12 1.46744578934)
(0.803633582257 -1.39284300166e-10 -20.0265060308)
(1.13459488034 -1.94558977493e-10 -19.5219661613)
(1.38226175907 -6.16584157034e-11 -18.7302870679)
(1.50411542427 -8.67599765824e-11 -17.5750328974)
(1.50171145169 -7.37268254169e-11 -16.0507621165)
(1.30083694508 -6.74302100264e-11 -14.261617699)
(1.02294532963 -6.42381649471e-11 -12.3466855162)
(0.806316196727 -7.59572233948e-11 -10.4836737998)
(0.64130145157 -5.75770221552e-11 -8.79911125923)
(0.545745470875 -3.04040989175e-11 -7.40798155659)
(0.468123691693 1.6657461976e-11 -6.27520050597)
(0.398445749033 -4.38299069307e-12 -5.35956127146)
(0.253352291526 -1.49516261586e-11 -4.61843138053)
(0.101800710839 -8.5631716893e-12 -3.93146779389)
(-0.384881251825 -1.55147241938e-12 -2.5867587239)
(-0.48806888669 -1.23736587757e-11 0.0359808786255)
(-0.204659123203 -7.9094998748e-12 1.35187447898)
(-0.0564961087813 -4.08471492646e-12 1.56349286143)
(0.0347612071906 -6.21079270348e-12 1.48874013642)
(0.0186187301606 -6.49742174773e-12 1.36075253994)
(-0.0207629410293 -1.69737329068e-10 -19.5756015238)
(-0.0632477474237 -2.31521810015e-10 -18.8858800228)
(-0.153652521842 -1.261878604e-10 -17.9005690332)
(-0.259175641622 -6.56910304154e-11 -16.639233957)
(-0.362238918435 -7.36253850307e-11 -15.1491160705)
(-0.420100173188 -6.6783027327e-11 -13.5281867192)
(-0.414215753474 -6.04540801281e-11 -11.846287747)
(-0.369908194998 -1.07059832426e-10 -10.244209636)
(-0.281540385716 -4.94295088814e-11 -8.78827160178)
(-0.165050662818 -5.24079554632e-11 -7.51291557325)
(-0.0554616727389 -9.14882123476e-13 -6.39319864045)
(0.00292173311032 -1.28537662206e-11 -5.3890681093)
(-0.0418886513309 -1.5549217247e-11 -4.47954541303)
(-0.216110418514 -7.1173044701e-12 -3.55512626988)
(-0.600360148144 -2.72731222918e-12 -2.30496810421)
(-0.623890158674 -1.06117684749e-11 -0.12944384637)
(-0.349866119172 -4.12138961182e-13 0.977032910906)
(-0.117472123531 -3.64593284414e-12 1.26386263102)
(-0.00531632362595 -6.53299252869e-12 1.26490678089)
(-0.000849984614636 -1.0356251725e-11 1.18975125858)
(-0.371756854662 -2.05991956953e-10 -18.0745420639)
(-0.538632447707 -2.26009058184e-10 -17.4496685389)
(-0.693800953897 -1.53181205629e-10 -16.5722264626)
(-0.833110660482 -1.42867066682e-10 -15.4722472025)
(-0.934609822931 -8.80210984679e-11 -14.1960333287)
(-0.96899735989 -5.69859132527e-11 -12.8028580495)
(-0.949356149347 -1.69355642379e-11 -11.3703499258)
(-0.872638904109 -5.61376906116e-11 -9.9758145256)
(-0.727894328604 -2.01916524982e-11 -8.66539493785)
(-0.55114568889 -5.22720536164e-11 -7.45759383972)
(-0.374295186886 8.06134614513e-12 -6.33017767155)
(-0.255484476557 -3.00752674208e-11 -5.25767824618)
(-0.232670345274 -2.87409556733e-11 -4.20551103971)
(-0.335872870739 -6.08093041533e-12 -3.12440384962)
(-0.602157903222 1.00508895368e-11 -1.85528500651)
(-0.584983409742 -8.87402825102e-12 -0.211420782759)
(-0.309767492526 -3.21539779374e-13 0.673273066898)
(-0.0987317474719 -3.35828249018e-12 0.945504967219)
(-0.012526043101 -6.64049623264e-12 1.02283335267)
(0.0096392731867 -1.0311777987e-11 0.995355041758)
(-0.448012951969 -2.18284830522e-10 -16.2900894914)
(-0.633194448834 -1.54979824451e-10 -15.8371266455)
(-0.800409663344 -1.26232307599e-10 -15.195356244)
(-0.94282195899 -1.06483034723e-10 -14.3805598925)
(-1.04024442611 -8.65502346525e-11 -13.4201612822)
(-1.07998007018 -6.75130629648e-11 -12.3483723346)
(-1.07484641919 -5.32198953461e-11 -11.2083271147)
(-1.03537681168 -5.36045025968e-11 -10.0380784948)
(-0.963801343846 -3.83516997888e-11 -8.87509306038)
(-0.854125430807 -3.73595092177e-11 -7.73134739144)
(-0.720543921318 -6.16964991459e-12 -6.60123662251)
(-0.585271618058 -8.8494537734e-12 -5.47153055523)
(-0.463969062478 -3.64074625836e-11 -4.32032206145)
(-0.394505046789 -9.80685892703e-12 -3.13466163957)
(-0.383774026809 4.64895188362e-12 -1.85424229826)
(-0.209886793443 -7.49472278017e-12 -0.522877775146)
(-0.0530964292613 3.00329101579e-13 0.255108975186)
(0.0681991372179 -2.94098084706e-12 0.598485655967)
(0.111132618867 -2.03368562415e-12 0.783314709327)
(0.0613192114122 -1.01735886761e-11 0.824559377381)
(-0.373253859894 -1.00063102954e-10 -14.6340260816)
(-0.534215947206 -1.14631445487e-10 -14.3318485727)
(-0.682652447957 -1.1470544997e-10 -13.8942006499)
(-0.81817565517 -1.05275408427e-10 -13.3252140813)
(-0.935020534813 -9.09328391333e-11 -12.6349326488)
(-1.00674810885 -7.43125170238e-11 -11.8361000409)
(-1.02421268452 -5.81647169223e-11 -10.9490466982)
(-1.00579025387 -5.04001886411e-11 -9.98859085765)
(-0.961517273297 -3.7789539793e-11 -8.96911711978)
(-0.880159702515 -3.4420389127e-11 -7.89539357953)
(-0.761522822291 -1.30686300437e-11 -6.78505011127)
(-0.618947893044 -1.48486349121e-11 -5.64213708287)
(-0.464937844963 -2.9033675496e-11 -4.460975687)
(-0.289487318878 -1.47900481456e-11 -3.24452045579)
(-0.173250667101 1.35606162428e-12 -1.98821425368)
(0.0768511906932 -5.90464765179e-12 -0.869359783491)
(0.291595197097 -6.84184719762e-14 -0.178296707944)
(0.310566422477 -2.33917086397e-12 0.289469743159)
(0.247654309884 2.50336858641e-12 0.597125627459)
(0.131724531154 -9.39120939187e-12 0.707909465319)
(-0.23621745519 -8.02965521114e-11 -13.5667337922)
(-0.338384234207 -9.88673772011e-11 -13.3760129494)
(-0.433839407914 -1.13101176438e-10 -13.0915265211)
(-0.515344462632 -1.10744348837e-10 -12.7115600246)
(-0.573096163505 -1.01133596751e-10 -12.2342521867)
(-0.607235891539 -8.78269523222e-11 -11.654793501)
(-0.625180398799 -6.680596243e-11 -10.9765855853)
(-0.629667280172 -5.10662663492e-11 -10.2025524586)
(-0.623843951597 -3.64200671553e-11 -9.33409171907)
(-0.62406488683 -2.91131838039e-11 -8.3668622196)
(-0.622399812793 -1.60281114164e-11 -7.3077627582)
(-0.561010698514 -1.37794681329e-11 -6.15902508652)
(-0.409972844581 -2.32918253863e-11 -4.95002389775)
(-0.19851964006 -1.67434727271e-11 -3.7016067478)
(0.0289869876089 -3.69854472235e-12 -2.49481940022)
(0.334134782953 -4.96696894323e-12 -1.40400230126)
(0.511168916774 -5.01381273595e-13 -0.623896544181)
(0.491091785631 -1.67840402181e-12 -0.00345537843017)
(0.351397606899 2.72766916081e-12 0.500097630247)
(0.16725466195 -8.38698128538e-12 0.694350952156)
(-0.151371513684 -6.64499199838e-11 -12.7873339242)
(-0.219757861454 -8.45388325329e-11 -12.6561689652)
(-0.285562806036 -1.33369682505e-10 -12.4589509693)
(-0.343826631609 -1.33071778122e-10 -12.1899073598)
(-0.386903133217 -1.22023756792e-10 -11.8466191998)
(-0.406100328006 -1.15928478762e-10 -11.4231754711)
(-0.403893697058 -7.703337717e-11 -10.9173955136)
(-0.392597890193 -5.07441335897e-11 -10.3239267082)
(-0.371579258864 -3.08346364212e-11 -9.63993809085)
(-0.342722537222 -2.02504321137e-11 -8.85761133434)
(-0.288820999403 -1.11580729686e-11 -7.96494445841)
(-0.244860166694 -1.00741099903e-11 -6.94734506301)
(-0.19837124624 -1.97831390521e-11 -5.81492715267)
(-0.140208363283 -1.53954580171e-11 -4.58570846964)
(0.051301264131 -6.47011121359e-12 -3.29857829943)
(0.353232138067 -4.13763098955e-12 -2.12462972171)
(0.489225449443 8.41494815967e-12 -1.13102898031)
(0.441991980151 -8.73401830351e-14 -0.223755418891)
(0.311878933559 3.08425174326e-12 0.496108848478)
(0.141238885917 -7.65012140581e-12 0.754460213494)
(-0.10663117292 -5.63582287721e-11 -12.251032366)
(-0.155213742374 -5.68762143083e-11 -12.1484551826)
(-0.203856195697 -1.87531054774e-10 -11.9933618651)
(-0.250546456382 -1.80996457787e-10 -11.7780036435)
(-0.292321020356 -1.51610218032e-10 -11.4979021855)
(-0.32554929053 -1.69081957251e-10 -11.1455010324)
(-0.344358773517 -8.49362920047e-11 -10.720646091)
(-0.346162154639 -4.52487671027e-11 -10.2215959085)
(-0.333538012853 -1.81923756834e-11 -9.65007949239)
(-0.313122078213 -6.58485487864e-12 -9.0073014933)
(-0.280392474596 2.85994635977e-12 -8.28894715187)
(-0.224588823688 -3.45930479192e-12 -7.48746041362)
(-0.147862898617 -3.42700618104e-11 -6.56900567513)
(-0.0342271854223 -1.28469624444e-11 -5.51302065622)
(0.0475465059131 -5.33880110177e-12 -4.30034974769)
(0.153966297218 -1.5796600293e-12 -3.03556566614)
(0.208485206426 1.6835990996e-11 -1.75937695739)
(0.179500290808 1.6204841607e-12 -0.463508922704)
(0.125864072609 7.28679876458e-12 0.483415790568)
(0.0237004817354 -7.23616726028e-12 0.759044388354)
(-0.0943477304851 -1.07578587189e-10 -11.822739546)
(-0.140455424258 -1.55166350084e-10 -11.7359281621)
(-0.187298051968 -1.89256571643e-10 -11.6066183535)
(-0.234203988321 -2.44589859206e-10 -11.4256577885)
(-0.280002772701 -1.61591668028e-10 -11.1850376169)
(-0.322897343073 -1.36482682435e-10 -10.87651583)
(-0.36015012796 -7.54405874269e-11 -10.4962583981)
(-0.388712188967 -3.89063697952e-11 -10.0444473389)
(-0.40476512369 8.82781085064e-13 -9.52594353097)
(-0.404348571327 9.4846946991e-12 -8.94764888259)
(-0.385539929595 3.23149683344e-11 -8.3121442025)
(-0.360272656708 1.28448359113e-11 -7.61362870184)
(-0.326114028556 1.18526969414e-11 -6.83702760058)
(-0.281797906614 -9.27587294732e-13 -5.95012320071)
(-0.211744839952 -8.70080091106e-13 -4.91495123874)
(-0.145156774686 2.51030755711e-12 -3.6813244307)
(-0.10682520261 1.59641716593e-11 -2.26216140924)
(-0.112359340899 2.10412217687e-12 -0.73223708539)
(-0.0994287400182 1.80706405214e-12 0.317270085483)
(-0.0940343326996 -7.30691333253e-12 0.608795053045)
(-0.108798746704 -1.53007459708e-10 -11.3888946485)
(-0.156410891547 -2.19641139e-10 -11.3180936973)
(-0.206467522869 -1.85957013785e-10 -11.2116567602)
(-0.25822299545 -1.75210456298e-10 -11.0603489188)
(-0.310309021659 -1.50414545198e-10 -10.8547668849)
(-0.361369284017 -1.55978973424e-10 -10.5856650869)
(-0.40965851082 -7.18004669649e-11 -10.2473789908)
(-0.453645176555 -4.95366999521e-11 -9.83774749639)
(-0.491525431274 3.04321179853e-11 -9.35973168999)
(-0.522354155917 2.14509328958e-11 -8.81920717974)
(-0.540613740988 3.31118073345e-11 -8.22171375489)
(-0.543102333773 4.66223485965e-11 -7.56675372644)
(-0.531438433358 1.32164269832e-11 -6.84019035067)
(-0.509322407141 2.38783434465e-11 -6.01573893735)
(-0.487005572284 3.89335918797e-12 -5.04663756126)
(-0.472206199971 6.40889698729e-12 -3.88682022826)
(-0.456865490088 1.51505781234e-11 -2.49049721827)
(-0.41184850717 2.19650906175e-12 -1.00539335274)
(-0.257990778683 1.67086670639e-12 0.009841162206)
(-0.174824744846 -7.20452569743e-12 0.277652537816)
(-0.119441300755 -1.40542991957e-10 -10.863149486)
(-0.175246023374 -1.64751712946e-10 -10.8078654744)
(-0.233881441585 -1.63012002929e-10 -10.7242834298)
(-0.295021311171 -1.47285744281e-10 -10.6030591738)
(-0.35744238066 -1.20224568156e-10 -10.4344334653)
(-0.419603626148 -9.59230533866e-11 -10.2088536559)
(-0.479533052437 -5.44355319439e-11 -9.91953498474)
(-0.53512515971 -2.1751755178e-11 -9.56262871372)
(-0.584328354383 2.33509923494e-11 -9.13799525796)
(-0.625928700453 2.64406647686e-11 -8.64720129134)
(-0.659633579254 3.5323161983e-11 -8.09058033424)
(-0.687362451431 3.58838379994e-11 -7.46584402716)
(-0.707915636074 1.85461276459e-11 -6.76397187068)
(-0.721276879496 1.8728979715e-11 -5.96497167705)
(-0.723440728731 6.9609822084e-12 -5.03555380167)
(-0.71447581864 7.56805019177e-12 -3.93227992942)
(-0.673240295437 1.30558391087e-11 -2.63660413719)
(-0.554574073593 2.48995971297e-12 -1.29266089884)
(-0.329553488443 1.04410064392e-12 -0.388511305529)
(-0.210129447917 -6.88573405199e-12 -0.181467541938)
(-0.133217977713 -1.6166213748e-10 -10.2405787881)
(-0.191938132371 -1.62885691822e-10 -10.2009738837)
(-0.255351775538 -1.50511234759e-10 -10.139840648)
(-0.322884688849 -1.24102621161e-10 -10.04804651)
(-0.393044902076 -9.2419068907e-11 -9.91616319095)
(-0.464384930942 -6.26184174149e-11 -9.73474550682)
(-0.535154441536 -4.17931415995e-11 -9.49637713627)
(-0.603300692179 -1.71466832766e-11 -9.19592562852)
(-0.66672679119 3.44088586294e-11 -8.831105909)
(-0.723611323229 2.81403866142e-11 -8.40034521486)
(-0.772789961187 3.59874285601e-11 -7.9007086246)
(-0.814331887973 3.74900946446e-11 -7.32594618801)
(-0.843790894204 1.82660947056e-11 -6.6647615016)
(-0.858424166718 1.89291077508e-11 -5.90009696722)
(-0.85692905747 9.01557173124e-12 -5.00899746849)
(-0.824762581643 -1.59326971001e-12 -3.96974539972)
(-0.725760369301 1.17926498085e-11 -2.79341254968)
(-0.576890559659 3.21094997633e-12 -1.62171585497)
(-0.33111235729 1.13372306433e-12 -0.82422412838)
(-0.174526852212 -6.25184415867e-12 -0.642093954571)
(-0.132336851871 -2.56880299636e-10 -9.54515839657)
(-0.191459984435 -1.88880528938e-10 -9.52023984525)
(-0.255067495318 -1.62689264965e-10 -9.47974674524)
(-0.32315254892 -1.1167670164e-10 -9.41554534287)
(-0.395666278094 -6.46550913273e-11 -9.31874837725)
(-0.470606141696 -9.91535884615e-12 -9.18014708233)
(-0.545579125713 -3.38342740576e-11 -8.99236463556)
(-0.619032243692 -4.25887723464e-11 -8.74936904746)
(-0.689006535117 -5.05151905991e-12 -8.44712265568)
(-0.753435213185 2.40047486346e-11 -8.08166054632)
(-0.811128553385 3.83196443854e-11 -7.64747373517)
(-0.859497159291 5.3616614469e-11 -7.13594267281)
(-0.889903920462 3.43533933609e-12 -6.53551272194)
(-0.899053305536 1.92999250559e-11 -5.83315084132)
(-0.876116112173 2.2351747743e-11 -5.01489181007)
(-0.806659494228 3.89732909481e-12 -4.07174558344)
(-0.679114880865 1.81462918099e-11 -3.02933468956)
(-0.497445730044 4.29749639079e-12 -2.0116900741)
(-0.252327905532 1.73244235825e-12 -1.27855460817)
(-0.0992485239771 -5.29857510802e-12 -1.05670844517)
(-0.122401432912 -2.20598898586e-10 -8.86182696924)
(-0.17759415655 -2.12880441521e-10 -8.84908743204)
(-0.237087142122 -2.33919492939e-10 -8.82643121463)
(-0.300491060252 -1.1954180549e-10 -8.78663521588)
(-0.3676561841 -5.8030114e-11 -8.72160496598)
(-0.438761280849 -1.84165952769e-11 -8.62264931534)
(-0.511588232728 -2.50062070882e-11 -8.48260877666)
(-0.583014404975 -2.38002656688e-11 -8.29581474981)
(-0.651290932404 -9.6104353746e-13 -8.05772836652)
(-0.714417415793 1.63908185709e-11 -7.76355695618)
(-0.770188626722 3.65522355152e-11 -7.40664465128)
(-0.815488642725 4.46415557746e-11 -6.97712522247)
(-0.84170771418 1.47878116482e-11 -6.46280217887)
(-0.844654545683 1.88642397172e-11 -5.85230114042)
(-0.813109846275 1.96492992845e-11 -5.134908606)
(-0.736989344892 5.79601929348e-12 -4.31074442492)
(-0.599070075589 1.48899118353e-11 -3.40445533952)
(-0.415905878427 4.01249251423e-12 -2.504817208)
(-0.186920701696 2.27042639149e-12 -1.80284714989)
(-0.0442172922916 -4.05660700568e-12 -1.48130078856)
(-0.108336600431 -3.41290663881e-10 -8.24331290896)
(-0.156550076184 -2.27644275276e-10 -8.23992817533)
(-0.208878585725 -1.83480266866e-10 -8.23111954639)
(-0.264912981155 -1.20351906494e-10 -8.21078259029)
(-0.324408919696 -4.88378451417e-11 -8.17175097197)
(-0.386883115251 1.37539275514e-11 -8.10630728748)
(-0.452284380088 -1.65755656508e-11 -8.00758028253)
(-0.518169580955 -1.81431264576e-11 -7.8704450047)
(-0.581251228488 -6.61969367905e-12 -7.69113314383)
(-0.639334045578 -1.1905798919e-11 -7.46546129629)
(-0.690082249005 3.66577625981e-11 -7.18732542504)
(-0.728516999099 6.14505837911e-11 -6.84764514597)
(-0.747767693073 2.09384205616e-11 -6.43418575257)
(-0.744562679319 1.94480417361e-11 -5.93552431356)
(-0.718862546903 2.71469184983e-11 -5.33943747513)
(-0.657732393756 6.63870942883e-12 -4.64063698613)
(-0.537201537946 1.13844823992e-11 -3.85919186609)
(-0.376374690051 -8.91403506964e-12 -3.05607619107)
(-0.174773040586 1.97335892782e-12 -2.34787507221)
(-0.038527942783 -2.49130617221e-12 -1.9032472355)
(-0.0890407353503 -2.11162449204e-10 -7.72750455144)
(-0.130128398035 -2.15688718713e-10 -7.73064475436)
(-0.174627936143 -1.8432529554e-10 -7.73205088715)
(-0.222358731519 -1.67169340663e-10 -7.72658716606)
(-0.273354156352 -6.09545623727e-11 -7.70785091782)
(-0.327102363208 -1.52736245301e-11 -7.66907203692)
(-0.383217698713 -1.97853346555e-11 -7.60412995938)
(-0.441161548575 -1.3410278669e-11 -7.50834526428)
(-0.498347565881 -2.27904683802e-12 -7.37867113028)
(-0.551290338214 7.51420517387e-12 -7.21233270033)
(-0.597165720501 3.65652034551e-11 -7.0047458286)
(-0.631072527395 5.09934532386e-11 -6.74867750935)
(-0.649036403143 2.58459794753e-11 -6.4339467363)
(-0.64921980119 1.58905473223e-11 -6.0489831408)
(-0.622328017434 5.6327458782e-12 -5.57995020935)
(-0.580325534259 1.68988175932e-12 -5.01302950413)
(-0.504903469705 6.62081608068e-12 -4.34980186551)
(-0.382997877959 -6.95730116551e-12 -3.62368063195)
(-0.210945370797 1.33763686711e-12 -2.9147701384)
(-0.0662758898304 -8.79180028995e-13 -2.37090692515)
(-0.0757180457156 -1.97646011648e-10 -7.30478856042)
(-0.110319462843 -2.74802224124e-10 -7.31200888463)
(-0.148044099573 -1.77875892415e-10 -7.32018198843)
(-0.188705999345 -1.32263669693e-10 -7.3250223555)
(-0.23241724827 -6.49628425836e-11 -7.32090872242)
(-0.278821949933 -3.18878423779e-11 -7.30187320626)
(-0.327543478745 -4.51983095403e-11 -7.26238145885)
(-0.378113395014 -1.38274320228e-11 -7.19852821883)
(-0.429650166654 1.30794748444e-12 -7.10771220063)
(-0.478980745081 1.43638540197e-11 -6.98842267361)
(-0.522785712573 3.75937912868e-11 -6.83761465384)
(-0.557413256862 6.41221135948e-11 -6.65062395768)
(-0.579811210559 4.01699531616e-11 -6.41949595417)
(-0.587529545141 1.22045086928e-11 -6.13386073908)
(-0.575543904309 -1.44512604469e-12 -5.7790116104)
(-0.539899783438 -2.15316105766e-11 -5.34097079878)
(-0.475472558933 7.01609822295e-13 -4.8022828317)
(-0.400904461396 -7.25513929616e-12 -4.17207061087)
(-0.271030798696 3.33236481585e-13 -3.4935249262)
(-0.106464879453 5.89161831961e-13 -2.92330333585)
(-0.0640259591869 -1.41980263149e-10 -6.97104720496)
(-0.093351676927 -1.71875159744e-10 -6.97991885562)
(-0.125517967056 -1.491598093e-10 -6.99138165476)
(-0.160422067664 -1.52000477101e-10 -7.0019221157)
(-0.198299478662 -7.02093682302e-11 -7.00669521979)
(-0.238911121792 -3.91413707418e-11 -7.00045253894)
(-0.282120209622 -3.42424307009e-11 -6.97817077567)
(-0.327400574114 -1.85428820675e-11 -6.93648426102)
(-0.374983505608 -7.87746180406e-13 -6.87343604925)
(-0.421893231908 1.4769910982e-11 -6.78824314692)
(-0.465752044178 1.83391552046e-11 -6.67923036328)
(-0.503642901123 4.82240255158e-11 -6.54363630739)
(-0.533390725245 2.92832462294e-11 -6.37605558045)
(-0.55151658976 7.12941922639e-12 -6.16772701357)
(-0.552937008093 -1.67454410464e-11 -5.90662931279)
(-0.536336024617 -3.30942978191e-11 -5.57656245474)
(-0.489679465046 -4.06098551232e-12 -5.16317829863)
(-0.408906009754 -7.13959147429e-12 -4.65790630101)
(-0.299461174368 -2.04705103839e-12 -4.07733876347)
(-0.144056885358 1.62169629583e-12 -3.55488666256)
(-0.0547640761944 -7.59341661469e-11 -6.70061861256)
(-0.0802179710142 -9.41551254175e-11 -6.70921517718)
(-0.108288077432 -4.86873645053e-11 -6.72113847132)
(-0.138970793541 -5.40139349366e-11 -6.73354418482)
(-0.172606687122 -5.82392188712e-11 -6.74244609665)
(-0.209118692024 -4.24596434521e-11 -6.74328239334)
(-0.248539482535 -4.09411771138e-11 -6.73158863705)
(-0.29053710233 -5.51334367239e-11 -6.70434987781)
(-0.335655163092 -2.70527819614e-11 -6.66026015403)
(-0.381128286459 1.65967373617e-11 -6.59901743265)
(-0.424927634271 2.78387422792e-11 -6.52023943315)
(-0.466051142485 5.39986843347e-11 -6.42253094556)
(-0.501046353915 2.45799908884e-11 -6.30285209169)
(-0.528043671346 1.50039192158e-11 -6.15456563543)
(-0.540187813646 2.55932381972e-12 -5.96926134384)
(-0.534829049319 -2.21267807529e-11 -5.73333637082)
(-0.502477249401 -5.28956489704e-12 -5.4334376508)
(-0.437970100227 -8.22626864863e-12 -5.06214624129)
(-0.314537348129 -1.28095490016e-11 -4.63286117514)
(-0.152661987799 1.90330564042e-12 -4.23469330068)
(-0.0489579100278 -1.25423374414e-10 -6.47824465864)
(-0.0711348620114 -2.35594436864e-11 -6.48474674927)
(-0.0958863118576 -1.17986095e-10 -6.49454272875)
(-0.123262044176 -1.12652882367e-10 -6.50537639708)
(-0.153568373085 -6.08109674749e-11 -6.51412763864)
(-0.186951585957 -4.14749409678e-11 -6.51705221007)
(-0.223389701092 -3.40202450929e-11 -6.51035861538)
(-0.263105592445 -2.59311917418e-11 -6.49146489365)
(-0.306339328243 -3.55475120298e-12 -6.45971309262)
(-0.350354559737 3.40341895006e-11 -6.41528469431)
(-0.393933084794 1.56678162697e-11 -6.35901914212)
(-0.436562403875 4.5201259993e-11 -6.29093000023)
(-0.474730479246 6.88959672364e-12 -6.20957628198)
(-0.506846625571 -3.0861140066e-12 -6.11180901617)
(-0.52563095925 -5.05678266024e-12 -5.99122342753)
(-0.526382939014 -1.45725401111e-11 -5.83965599519)
(-0.502077197905 4.35253940254e-12 -5.64762968085)
(-0.443104142765 -8.718596657e-12 -5.41078573283)
(-0.330458944099 -1.23595922494e-11 -5.13664440728)
(-0.159860392435 1.20034994212e-12 -4.9002037924)
(-0.0437828736792 -2.17292845039e-11 -6.28742139414)
(-0.063659217416 2.27953714257e-11 -6.29074552185)
(-0.0859588209714 -5.99838856612e-11 -6.29630845025)
(-0.110812630053 -7.36284170202e-11 -6.30269096713)
(-0.138606515075 -5.3902974095e-11 -6.30770155754)
(-0.169672112922 -3.55932082903e-11 -6.30858443203)
(-0.203796082085 -1.87497633821e-11 -6.3024718056)
(-0.241973851415 1.44520751909e-11 -6.28756192483)
(-0.283574430326 7.65210149613e-12 -6.26383932791)
(-0.326032345658 2.47908257089e-11 -6.2323515425)
(-0.368908241411 2.22511767174e-11 -6.19500050724)
(-0.410770366591 2.82303618119e-11 -6.15307737756)
(-0.450078223525 6.93195983232e-12 -6.10700514329)
(-0.483023932369 -2.75950751405e-12 -6.05586852377)
(-0.502055026288 -7.74842340556e-12 -5.99643591714)
(-0.503948958987 -1.1030094813e-11 -5.92495738043)
(-0.48182930197 -2.2014297572e-12 -5.83672966585)
(-0.424927219162 -1.02071413886e-11 -5.73037472297)