/*--------------------------------*- C++ -*----------------------------------*\
  =========                 |
  \\      /  F ield         | OpenFOAM: The Open Source CFD Toolbox
   \\    /   O peration     | Website:  https://openfoam.org
    \\  /    A nd           | Version:  7
     \\/     M anipulation  |
\*---------------------------------------------------------------------------*/
FoamFile
{
    version     2.0;
    format      ascii;
    class       volScalarField;
    location    "0.05";
    object      alphat;
}
// * * * * * * * * * * * * * * * * * * * * * * * * * * * * * * * * * * * * * //

dimensions      [1 -1 -1 0 0 0 0];

internalField   nonuniform List<scalar> 
815
(
0.000183986228974
0.000183097180495
0.00018307223418
0.00021370300313
0.000213391753355
0.00021297895548
0.000224147813168
0.000223078029826
0.000222284322743
0.000160307703821
0.000160438029255
0.000159831995809
9.70141635889e-05
9.70259847661e-05
9.6898202397e-05
9.23158944905e-05
9.22018207612e-05
9.25036686605e-05
0.000163188811062
0.000162862435795
0.000163413393757
0.00026143498152
0.00026148136942
0.000261688974452
0.000333932247353
0.000333743871898
0.000333507284815
0.000376539780753
0.000376482732549
0.000376025691327
0.000398608191359
0.000398441242489
0.000397956324103
0.00040725617332
0.000407109835322
0.00040667374068
0.000407994702591
0.00040801661307
0.000407747946062
0.000405023206979
0.000404895652172
0.000404740203778
0.000399095418463
0.000399184367048
0.000399181418994
0.00039205264715
0.000392027314493
0.000392140147823
0.000383532867576
0.000383625245305
0.000383848697804
0.000374052081564
0.000374203446533
0.000374522735592
0.000363689636782
0.000363884303711
0.00036428395995
0.000352655893351
0.000352874606024
0.00035332494846
0.000341171074748
0.000341427141611
0.000341916343085
0.000329829713229
0.000330037873467
0.000330535395604
0.000318992753067
0.000319212169335
0.000319699000967
0.00030942338471
0.000309625181612
0.000310079538318
0.000301705186334
0.000301893000621
0.000302304545074
0.000296331164205
0.000296500694289
0.000296864786139
0.000293457385901
0.000293595445421
0.000293905967261
0.000292179073494
0.000292282094801
0.000292536525675
0.000284596668742
0.000284637709372
0.000284822076356
0.000218831956462
0.000218792804759
0.000218781965827
0.000119453778896
0.000119339924812
0.000119217778082
0.000182816953586
0.000212584916541
0.000220991136856
0.000158893665909
9.65896960685e-05
9.31107660891e-05
0.000164439516413
0.000262162635617
0.000333207158059
0.000375485065126
0.000397285999746
0.000406097843099
0.000407378488817
0.000404499889359
0.00039917104244
0.000392264811487
0.000384143632341
0.000374958131613
0.000364835343483
0.000353960499365
0.000342615763896
0.000331248827098
0.000320414672749
0.000310768087702
0.00030294776934
0.000297453379414
0.00029443177536
0.000292993829099
0.000285195078947
0.000218986567627
0.000119205429397
8.51046392114e-05
8.89533975273e-05
9.9038038635e-05
0.000114611965592
0.000125070084279
0.000124085220732
0.000188445785964
0.000183062555471
0.000182998123327
0.000180355356506
0.000173078131186
0.000160491105031
0.000144419901737
0.000127930239188
0.00011593384932
0.00010704049781
9.90611437904e-05
9.23387090377e-05
8.62377323877e-05
8.24984864236e-05
8.27395561802e-05
8.89643515545e-05
0.000104271931483
0.000127130574144
0.000143132818409
0.000141950403048
0.000212681507932
0.000211674419454
0.000209615867696
0.000205343890733
0.000197594614512
0.000185276681472
0.000168139727345
0.000146960224342
0.000125414845045
0.00010694783691
9.47314746619e-05
8.61671778102e-05
8.07959409035e-05
7.98909754972e-05
8.50683606469e-05
9.79017463081e-05
0.000118594347668
0.000143150272731
0.000158051980219
0.000161263112848
0.000246102977043
0.00021861025882
0.000213219557853
0.000203853979038
0.000189126680279
0.000168560219996
0.000144103891098
0.000120036404118
0.000102138504422
8.99787888765e-05
8.24282964416e-05
7.88804229315e-05
8.01535771902e-05
8.79783713423e-05
0.000103209068734
0.000124119872591
0.000145478626619
0.000163361043006
0.000173559030629
0.000191619698216
0.000297266945128
0.000156242726612
0.000149126699295
0.000138396059121
0.000124925900208
0.000111081340518
9.79707559929e-05
8.72929903246e-05
8.08988825634e-05
7.83288204128e-05
7.93108620767e-05
8.4829575891e-05
9.65360714404e-05
0.000115038953982
0.000138000329506
0.000160210059521
0.000176736017208
0.000188434449252
0.000201012239775
0.000244400818384
0.000380407974415
9.58467835292e-05
9.33298829594e-05
8.98487020001e-05
8.61504285136e-05
8.33611174536e-05
8.22387434169e-05
8.30636139573e-05
8.5875285897e-05
9.10969330705e-05
9.99367272414e-05
0.000113767827202
0.000132754866457
0.000155111125012
0.000177263057743
0.000195605963389
0.00021011626356
0.000224990337069
0.00025223512386
0.00032879747654
0.000494372911035
9.46048552855e-05
9.73753115713e-05
0.000100958019147
0.000105386416777
0.000110058398794
0.000114357452654
0.000118480507096
0.000123475323782
0.000130841410875
0.000141788584239
0.000156515633004
0.000173998264815
0.000192609172412
0.000210971209565
0.000228829512683
0.000249072928114
0.000277730111825
0.000330822074183
0.000444310851518
0.000619920121782
0.000167172140925
0.000172249191339
0.000177067304779
0.000180286104741
0.000180933541977
0.000179452688978
0.000177329737262
0.000176682368429
0.000179038076412
0.000184999580642
0.000194299043792
0.000206402743088
0.000221171514964
0.000239144351895
0.00026230569912
0.000295263291676
0.000346231529392
0.000432883764613
0.000579658733605
0.000733766174737
0.000263262168666
0.000264682629611
0.000264153161958
0.000260214529969
0.000252402830395
0.00024185456891
0.000230886806682
0.000222079122576
0.000217043018405
0.000216314230363
0.000219884188595
0.000227985950819
0.000241605738988
0.000262859651069
0.000295532166213
0.000346032460367
0.000424840902066
0.000548673156151
0.00072025587606
0.000825659649439
0.000332716354304
0.000331084173623
0.000326685414759
0.000317875675823
0.000304171921907
0.000286902123074
0.000268887786054
0.000253230587647
0.000241970588808
0.000235900690426
0.00023536950312
0.000241262374723
0.000255629172456
0.000282171464741
0.000326783320196
0.000398474139411
0.000509687111766
0.000671934727163
0.000857198111099
0.000898179723366
0.000374276754858
0.000371259014427
0.000365097454797
0.000353953626782
0.000337155716694
0.000315966338814
0.000293407709014
0.000273017167375
0.000257316696054
0.000247434688278
0.000244035271365
0.000248559000605
0.000264146457067
0.000296344900434
0.000353914890084
0.000449447671177
0.000597352312671
0.000798880200736
0.000988004182393
0.0009591461885
0.000395916774401
0.000392648990298
0.000386192574525
0.000374529847378
0.000356739852445
0.000333853479521
0.000308866622626
0.000285583917507
0.000266936870194
0.000254364511445
0.00024876783365
0.000252045814917
0.000268441665521
0.00030578217435
0.000376779692071
0.000499050258521
0.000688439916712
0.000929059648095
0.0011139151596
0.00101560528032
0.000404898136483
0.000402057852628
0.000396192902504
0.000385128181733
0.00036769307953
0.000344623880678
0.000318747885316
0.000293973602631
0.000273530923651
0.000259103451029
0.000251721845189
0.000253585403621
0.000269956361426
0.000311336966969
0.000395781436676
0.000548023375678
0.000783834270169
0.00106211419309
0.00123608064217
0.0010714367898
0.000406556889176
0.000404494660217
0.000399661479649
0.000389773142367
0.000373443572251
0.000351119406155
0.000325393856988
0.000300155766291
0.000278822259931
0.000263246441686
0.000254483296319
0.000254842499537
0.000270441966775
0.000314813630523
0.000413159583192
0.00059974063223
0.000885966178718
0.00119770262555
0.00135514365818
0.0011284998503
0.000404075048301
0.000402897253316
0.000399250721256
0.000390769616603
0.000375909985665
0.000354873423715
0.00033000723495
0.000305097640159
0.000283646487904
0.000267603809516
0.000257965036076
0.00025695961902
0.000271345276038
0.000318150737083
0.000431856723507
0.000657719453737
0.000996991812782
0.0013352099967
0.00147171520984
0.00118711387576
0.000399167032979
0.000398877662821
0.000396418794254
0.000389384155574
0.000376132826751
0.000356683903292
0.000333160269344
0.000309197683061
0.000288294441301
0.000272434441159
0.000262504586487
0.00026053564472
0.00027386344556
0.000323402158218
0.000455313075517
0.000726504955023
0.00111867950676
0.00147460972365
0.00158678063814
0.00124706728969
0.000392646055106
0.000393183150319
0.000391834147252
0.000386187897796
0.000374563029337
0.000356860997529
0.000335018664768
0.000312492300728
0.000292700953539
0.000277608750231
0.000267971568713
0.000265636502847
0.000278429671637
0.000332042342433
0.000487089641517
0.000810103965011
0.00125198769977
0.00161628551799
0.00170102485258
0.00130755625558
0.000384872262659
0.000386143433664
0.000385786524479
0.00038142169471
0.000371380539382
0.000355505988074
0.00033558544975
0.000314877353696
0.000296640713053
0.000282803406029
0.000274002232891
0.000271893434042
0.000285055497076
0.0003455589585
0.000531342928048
0.000912484927764
0.00139732616617
0.00176055157975
0.00181483620465
0.0013683302903
0.000375993469303
0.000377894122114
0.000378395359505
0.000375191224339
0.000366669103337
0.000352660199337
0.000334816279133
0.000316212488166
0.000299927410395
0.000287723090023
0.000280122932182
0.000278753457785
0.000293586239117
0.000365784587057
0.000592800987548
0.00103686457876
0.00155455907043
0.00190775738911
0.00192845406238
0.00142893504488
0.000366126318126
0.000368537767467
0.000369757303549
0.000367589210077
0.000360506472435
0.000348373634707
0.000332768317205
0.00031652264181
0.000302444997898
0.000292094890037
0.000285905790289
0.00028573261267
0.000304183155872
0.00039564908407
0.000676969178265
0.00118489854197
0.00172298115151
0.00205814134495
0.00204201057646
0.00148939277364
0.000355443247753
0.000358239306974
0.000360035323559
0.000358781720233
0.000353086562685
0.000342871086107
0.000329622704032
0.000315904350216
0.000304181735456
0.000295766636339
0.000291073727252
0.000292634694674
0.000317881907634
0.000439968557945
0.000789758907196
0.0013569546758
0.00190190318595
0.00221178731423
0.00215555800877
0.00154949304744
0.00034423427127
0.000347286298726
0.000349528669056
0.00034909564612
0.000344755688365
0.000336495996569
0.000325688942962
0.000314579897402
0.000305237630741
0.000298715738195
0.00029556113449
0.000299759190757
0.000337339402641
0.000506145093181
0.00093656042476
0.00155219419321
0.00209072686564
0.0023686009832
0.00226887397917
0.00160916882035
0.000332932085179
0.000336119704633
0.000338697712541
0.000339013427201
0.000336009351488
0.000329727192156
0.000321384710497
0.00031285970389
0.00030579809182
0.000301047470644
0.000299573215539
0.000308253660035
0.000367973455374
0.00060426771437
0.0011214891782
0.0017692483689
0.00228883217631
0.00252802601985
0.00238112520951
0.00166768786217
0.000322102720358
0.000325323187573
0.000328149711855
0.000329161457658
0.000327472420071
0.000323146073183
0.000317197075725
0.000311103448761
0.00030611198396
0.000303007182097
0.000303704512437
0.000320902870674
0.000419567240664
0.000746322299913
0.00134631943703
0.00200632470408
0.00249508739354
0.00268858681288
0.0024903305624
0.00172324813118
0.000312405591614
0.000315579393797
0.000318588684321
0.000320251450185
0.000319829415489
0.00031736210338
0.000313615287662
0.000309672147086
0.000306475921138
0.000305021663152
0.000309293458994
0.000343960085878
0.0005075027658
0.000943456794927
0.00160944334029
0.00226045807851
0.00270667785127
0.00284685299512
0.00259256665755
0.00177208303178
0.000304499545721
0.000307570385193
0.000310713842926
0.000312968474844
0.00031370945719
0.000312901430208
0.000311041554011
0.00030887647587
0.000307229786714
0.000307826974115
0.000319443529228
0.000389871125249
0.000650816925173
0.00120043177811
0.00190441565018
0.00252583977438
0.00291778376589
0.00299628191854
0.00268021476856
0.00180669239363
0.000298897146979
0.000301832194594
0.000305061613087
0.000307814696049
0.000309534207439
0.000310077335916
0.000309694235426
0.000308924049809
0.000308775791386
0.000312860871144
0.000341294435362
0.000478056986257
0.000864297424824
0.0015096770156
0.00221817531927
0.00279094415914
0.00311656813525
0.00312414487893
0.00274116050344
0.00181938066218
0.000295754164279
0.000298529743318
0.0003017802164
0.000304884339513
0.000307314020565
0.000308818524484
0.000309475945669
0.000309818891453
0.000311583136134
0.000323075191585
0.000387589190025
0.000626897537739
0.00114424170021
0.00184732617914
0.0025279953181
0.0030347813056
0.00328248707306
0.00321057538848
0.00275473273856
0.00178763278036
0.000294185632069
0.000296771874071
0.000299947971171
0.000303195252312
0.000305999510743
0.000308040293186
0.000309348480537
0.000310728572693
0.000315660190224
0.000342610178633
0.000469600271714
0.000833917038168
0.00145596622111
0.00217051916524
0.00279648100784
0.00322244253841
0.00338070105801
0.00321857891161
0.00268191700613
0.00167569923398
0.0002862313115
0.000288579136466
0.000291514231085
0.000294561169995
0.000297238013739
0.000299251851653
0.000300776279647
0.000303322212039
0.000313804803593
0.000366608716917
0.000573623081732
0.00105302649382
0.00173041987644
0.00241394195872
0.00296165053645
0.00328992478523
0.00334320324117
0.00307734297194
0.00245528736338
0.00143335958291
0.000219657712074
0.000221323153485
0.000223211809085
0.000224845839967
0.000225927319371
0.000226471057077
0.000227175435182
0.00023103888709
0.00025077690087
0.000337466777105
0.000618393142359
0.00117044141028
0.00184528404769
0.00245670226427
0.00289716632499
0.00310344618989
0.00303414530526
0.00266269012275
0.00198694602331
0.00104338603296
0.000119307848533
0.000119616871141
0.000119841808636
0.00011981033774
0.000119481937618
0.000119001515763
0.000118845885751
0.000120829020009
0.000133029869719
0.000193745028538
0.000429029872913
0.000941905370704
0.001548019871
0.00204618719002
0.00235278547319
0.00242914930448
0.00226112997449
0.00186159419034
0.00127781876546
0.000622547301226
0.000137259733352
0.000156781109757
0.000113350366046
4.74663331485e-05
0.000111315424011
5.21952710009e-05
0.000123541930523
5.77484289588e-05
0.000145781810529
6.39420778512e-05
0.000171064842509
6.99859037758e-05
0.000193063239953
7.53279764083e-05
0.000207663563845
7.99804652345e-05
0.000215143718364
8.40961915133e-05
0.000218385962579
8.79335161486e-05
0.000220558474117
9.16127338114e-05
0.000223550275354
9.52159015362e-05
0.000228134311345
9.87533201705e-05
0.000234442500326
0.000102222926217
0.000242039470143
0.00010561447877
0.000250568200456
0.000108914839876
0.000259601798696
0.000112111825685
0.000269116973146
0.00011518659266
0.000278832764501
0.000118130862512
0.000288922252987
0.000120929623688
0.000299277642237
0.000123567744688
0.000309859692305
0.00012602775845
0.000320405683266
0.000128279813074
0.000330303439107
0.000130288259719
0.000338695436069
0.000131972598459
0.000345734794289
0.000133242164846
0.000347704643575
0.000133938521848
0.000340629074075
0.000133867292481
0.000317908604461
0.000132909811327
0.000276085066601
0.000131174070777
0.000225965815926
0.000128918524264
0.00019304090925
0.000125193135017
)
;

boundaryField
{
    inletfuel
    {
        type            calculated;
        value           nonuniform 0();
    }
    inletair
    {
        type            calculated;
        value           nonuniform 0();
    }
    outlet
    {
        type            calculated;
        value           nonuniform List<scalar> 
26
(
0.000119566039839
0.000119461548136
0.000119340835008
0.000119331264953
0.000119434576933
0.000119743946638
0.000119969193264
0.000119937674742
0.000119608978284
0.000119128049484
0.000118972307983
0.000120957571875
0.000133171488688
0.000193951320158
0.000429487147278
0.000942909160888
0.00154967134899
0.00204836955514
0.00235529697231
0.00243174028847
0.00226354225187
0.00186357772129
0.00127917787842
0.000623198019747
0.000193224559237
0.000125326688802
)
;
    }
    axis
    {
        type            empty;
    }
    leftside
    {
        type            compressible::alphatWallFunction;
        Prt             0.85;
        value           nonuniform List<scalar> 
32
(
0
1.96283595344e-07
1.80747031441e-06
3.41777525482e-06
5.1016260831e-06
6.72331777986e-06
8.16715994969e-06
9.4461520155e-06
1.0594656176e-05
1.16812091804e-05
1.27380068382e-05
1.37903844761e-05
1.48437229403e-05
1.59002404182e-05
1.69585652889e-05
1.80172614318e-05
1.90742055266e-05
2.01265036628e-05
2.11727364778e-05
2.22101230726e-05
2.32341701576e-05
2.42389716457e-05
2.52116188936e-05
2.61364027013e-05
2.69824458526e-05
2.77073026054e-05
2.82395360352e-05
2.84879849752e-05
2.83797086799e-05
2.79263609531e-05
2.72420247872e-05
2.61346948403e-05
)
;
    }
    burnerwall
    {
        type            compressible::alphatWallFunction;
        Prt             0.85;
        value           nonuniform 0();
    }
    front
    {
        type            wedge;
    }
    back
    {
        type            wedge;
    }
    procBoundary1to0
    {
        type            processor;
        value           nonuniform List<scalar> 
27
(
0.000159836397492
0.000160198333232
0.000160506636805
0.000161207554127
8.33865163983e-05
8.67935540356e-05
9.3479962783e-05
0.000102307924285
0.000106101376858
0.000107989923477
0.000175592165656
0.000162797551424
0.000165538689378
0.000166271450344
0.000160607971902
0.000145806490947
0.000122998877657
9.82914749077e-05
8.60593539095e-05
8.42394550285e-05
8.59920151929e-05
8.73447114267e-05
8.66140730363e-05
8.50550935102e-05
8.50550935102e-05
0.000151033758589
0.00014520616576
)
;
    }
}


// ************************************************************************* //
