/*--------------------------------*- C++ -*----------------------------------*\
  =========                 |
  \\      /  F ield         | OpenFOAM: The Open Source CFD Toolbox
   \\    /   O peration     | Website:  https://openfoam.org
    \\  /    A nd           | Version:  7
     \\/     M anipulation  |
\*---------------------------------------------------------------------------*/
FoamFile
{
    version     2.0;
    format      ascii;
    class       volScalarField;
    location    "0.05";
    object      dQ;
}
// * * * * * * * * * * * * * * * * * * * * * * * * * * * * * * * * * * * * * //

dimensions      [1 2 -3 0 0 0 0];

internalField   nonuniform List<scalar> 
815
(
0.000240937452318
0.000742674483597
0.00132321231354
0.000335347618506
0.00102372195097
0.00177482543472
0.00157216053496
0.00472528763589
0.00799667449103
0.0109782777322
0.0330289524506
0.0555928167566
0.0190932613311
0.0573314499881
0.095391276918
0.00402726086805
0.0121830987976
0.0200569564831
0.000603762032021
0.00181812256054
0.00299750806615
0.000131528857649
0.000393941874386
0.000650691435146
4.46174690553e-05
0.000133341476654
0.000220429041766
1.81669032085e-05
5.43197123281e-05
8.98632639293e-05
7.74441439144e-06
2.31542926491e-05
3.83405718272e-05
3.3152733709e-06
9.91953837944e-06
1.64441601012e-05
1.42003467566e-06
4.25070389435e-06
7.05339957237e-06
6.05548006707e-07
1.8133179891e-06
3.01265913123e-06
2.55933667893e-07
7.67198410852e-07
1.27620446469e-06
1.07010069525e-07
3.20857240197e-07
5.34347998413e-07
4.42890699747e-08
1.32934500771e-07
2.21673130173e-07
1.86101232291e-08
5.58748801237e-08
9.32672418304e-08
8.47828644752e-09
2.5461825367e-08
4.25404947424e-08
4.77652424599e-09
1.43463729581e-08
2.39777749822e-08
3.69307323458e-09
1.10892676128e-08
1.85189889141e-08
3.67148335098e-09
1.10156430209e-08
1.83662434332e-08
4.07763031914e-09
1.22248615824e-08
2.03463493897e-08
4.63839221033e-09
1.38946753622e-08
2.30860570495e-08
5.20740149547e-09
1.55867702181e-08
2.58539609554e-08
5.68111678707e-09
1.69908590978e-08
2.81352839377e-08
5.9779480607e-09
1.78631685657e-08
2.95286646816e-08
6.04678321574e-09
1.80540676497e-08
2.97945973715e-08
5.96379508198e-09
1.77925283049e-08
2.93196102862e-08
6.7202156944e-09
2.00529943963e-08
3.30380754713e-08
1.01303385933e-08
3.02468985322e-08
4.98840939208e-08
0.00173211211177
0.00224964867731
0.00980911340597
0.0678522697408
0.11298861881
0.0234378955585
0.00351314526055
0.000767833356812
0.00026084338644
0.000106545099326
4.55149431712e-05
1.95575246866e-05
8.40033607452e-06
3.59414685933e-06
1.52524506428e-06
6.39585592207e-07
2.65821954896e-07
1.12012602775e-07
5.11694711749e-08
2.8865679841e-08
2.22748861975e-08
2.20447773919e-08
2.43654592455e-08
2.75847391874e-08
3.08236485764e-08
3.34683337632e-08
3.5045950458e-08
3.52838093238e-08
3.46518436397e-08
3.90031379115e-08
5.88890255544e-08
0.170617167469
0.115561995474
0.075086036812
0.0462403602976
0.0261199339252
0.0112921752157
0.00284523756785
0.00774053954959
0.017369799225
0.0385747107543
0.0861093208433
0.193729980536
0.42650193371
0.772440790497
1.07937461153
1.32711602934
1.20255692436
0.751293858689
0.486851314892
0.319913509475
0.2053695548
0.126763966181
0.0768303156705
0.0466999197948
0.0266552975392
0.0114341662912
0.00287421260074
0.00945169357737
0.0192187650376
0.0384891248022
0.0770152001417
0.153447063428
0.298414221568
0.529439321876
0.877474446324
1.57521922116
1.20970838096
0.751291685605
0.467644916429
0.283096344933
0.16450663116
0.0940533667303
0.056120555206
0.0357047846427
0.0214624751767
0.0091932211955
0.00237972673087
0.0386856147198
0.0707920903742
0.126285934367
0.226615344565
0.413910151885
0.773781971037
1.48040630441
1.94552915042
1.27757790846
0.795090055526
0.476655718758
0.277367492057
0.157163513867
0.0879361791716
0.0510650828247
0.0325261030077
0.0223443256382
0.0142807460529
0.00632421277956
0.00170415736794
0.263585666395
0.466114632901
0.79342452951
1.34550404511
1.91304469535
1.60644113922
1.18701894199
0.810615812316
0.521385799063
0.320256549191
0.190597361629
0.11139021342
0.0648875348671
0.0387204906016
0.0247390172656
0.0172412685683
0.012725468362
0.00863180470178
0.00409261367508
0.00107894961461
0.396458763665
0.5464068368
0.635589877364
0.639604800438
0.561752781329
0.440354872249
0.317781049264
0.219496251773
0.146531447591
0.0953811048219
0.0610723595982
0.0390233176872
0.0252332084538
0.0168361014716
0.0119301185751
0.0090106613242
0.00705289621791
0.00502805721682
0.0025080654307
0.000621579119262
0.081317073801
0.109272973915
0.12361156765
0.12103098495
0.106275255409
0.0868011430813
0.0680355208405
0.0520678608
0.0389530742809
0.02851955345
0.0205286300654
0.0146975709957
0.0105704844619
0.00776978249303
0.00598339612425
0.00482048281063
0.00392231553074
0.00286030391027
0.00142133313372
0.000333861689771
0.0123046371354
0.0170303171942
0.0203002463546
0.021594527302
0.0211669014554
0.0195593178428
0.0174067083143
0.0150032554161
0.0125333601801
0.0101471159154
0.00800594831521
0.00622967157577
0.00484003403673
0.00383182363637
0.00314441255411
0.00264420019766
0.00218182210074
0.00157060913077
0.000749172922951
0.000170511719215
0.00274292301748
0.00398683868387
0.00507846970637
0.00585934716495
0.00626269635571
0.00630133337966
0.00605318381619
0.00557984230258
0.00495260998747
0.0042426786684
0.0035354073062
0.00290555248625
0.00238947700556
0.00199975568886
0.0017150797644
0.00147710722994
0.0012105402471
0.000834535824314
0.000375258410491
8.45314230428e-05
0.000941013334685
0.00140026022212
0.00184060593553
0.00220463729235
0.0024499484659
0.00255945879307
0.00254188160865
0.00241624799285
0.00221075707334
0.00195679205125
0.00169123689966
0.00144710950031
0.00124441030066
0.00108783956049
0.000962981262777
0.000836673666971
0.000670130868068
0.00043535152336
0.000183152388651
4.13419183461e-05
0.000386232987685
0.000581198466667
0.000775590111487
0.000946090788048
0.00107257371638
0.00114359287163
0.00115816852122
0.00112281053213
0.00104935972328
0.000952458836833
0.000848864095845
0.00075359951844
0.000675321094526
0.000613073060759
0.000555000292516
0.000480747806394
0.000371656712844
0.000225796809875
8.9021689086e-05
2.02415243402e-05
0.000165624284037
0.000251449205496
0.000339678971425
0.000420709361695
0.000485356458648
0.000527255751722
0.000544201600942
0.000537973618618
0.000513605225903
0.000478309555089
0.000440318343694
0.000406573668902
0.00037989119728
0.000356869280787
0.000327918449828
0.000280468032445
0.000207300557542
0.000117603417149
4.37941444215e-05
1.00386262645e-05
7.14499019417e-05
0.00010943008361
0.000149651535972
0.000188278143124
0.000221252084779
0.000245271303046
0.000258568932872
0.000261333700962
0.000255738288651
0.000245484492863
0.000234786209712
0.000226703077951
0.000221276459511
0.000214427817031
0.000198602994628
0.000166195167841
0.000116581811782
6.18576138985e-05
2.2001988723e-05
5.08363846256e-06
3.0801443774e-05
4.75752225681e-05
6.58506763355e-05
8.41571733845e-05
0.000100782113175
0.000114137816559
0.000123163933933
0.000127726217666
0.000128841134528
0.000128471842711
0.000128760645222
0.000130815449439
0.000133499178732
0.000132905100797
0.000123153178811
9.99164653539e-05
6.62246521468e-05
3.29987459017e-05
1.13318549594e-05
2.64188498113e-06
1.32279420489e-05
2.05927506532e-05
2.8827325894e-05
3.73988200772e-05
4.56318207054e-05
5.2840007852e-05
5.85197955044e-05
6.26083603539e-05
6.56704704179e-05
6.87805926359e-05
7.296775083e-05
7.83619745829e-05
8.34483344586e-05
8.48222124764e-05
7.797796237e-05
6.0835888287e-05
3.79974127276e-05
1.78914285121e-05
5.99052489487e-06
1.40992359284e-06
5.63344338211e-06
8.83373078364e-06
1.2497528361e-05
1.64501616253e-05
2.04548961655e-05
2.42636205146e-05
2.770905524e-05
3.08476011258e-05
3.4061742001e-05
3.79628999221e-05
4.2985672944e-05
4.88018901279e-05
5.38980216912e-05
5.55250361094e-05
5.02085763298e-05
3.73627856056e-05
2.19843957936e-05
9.85764576036e-06
3.24148739304e-06
7.70065618407e-07
2.37030634812e-06
3.74298065162e-06
5.35127896744e-06
7.1505493636e-06
9.07875217249e-06
1.10809170487e-05
1.31561457038e-05
1.54305040659e-05
1.81957898999e-05
2.18149462082e-05
2.64163736699e-05
3.15018227988e-05
3.57551582813e-05
3.70290612123e-05
3.26399067901e-05
2.30167510569e-05
1.27849854479e-05
5.50326534871e-06
1.78579491435e-06
4.27918167985e-07
9.88688235281e-07
1.57298815863e-06
2.27522184917e-06
3.0940160683e-06
4.03020726722e-06
5.10238149967e-06
6.37348855732e-06
7.98688789576e-06
1.01707049636e-05
1.31454570075e-05
1.68919126729e-05
2.09013166504e-05
2.41277199037e-05
2.49276772719e-05
2.12261114406e-05
1.41304790588e-05
7.44327939665e-06
3.09796812138e-06
9.95375540127e-07
2.404157583e-07
4.18208743584e-07
6.71232855142e-07
9.8482060188e-07
1.36928135525e-06
1.84348312679e-06
2.44607155269e-06
3.25202855414e-06
4.38997095944e-06
6.03043617067e-06
8.30470660855e-06
1.11355996307e-05
1.40859919444e-05
1.63840511155e-05
1.67653206833e-05
1.36686544815e-05
8.58667526285e-06
4.31780221136e-06
1.74887240524e-06
5.57802462028e-07
1.35704402187e-07
1.91826073655e-07
3.10898476448e-07
4.6366217411e-07
6.61479263227e-07
9.24745003431e-07
1.29080642992e-06
1.82421378076e-06
2.62454114329e-06
3.81067367491e-06
5.45656860492e-06
7.47390560876e-06
9.52833692203e-06
1.10870342484e-05
1.11478518906e-05
8.63391180641e-06
5.13467371089e-06
2.4835694587e-06
9.84711640361e-07
3.12445751705e-07
7.65231527149e-08
1.08489012643e-07
1.76909992964e-07
2.66752089016e-07
3.87366661414e-07
5.55349946954e-07
7.99617315281e-07
1.16735018146e-06
1.72702009591e-06
2.55460978254e-06
3.68775183816e-06
5.04960575876e-06
6.41038135709e-06
7.42030547287e-06
7.25638992996e-06
5.30764183219e-06
3.00738118604e-06
1.410246365e-06
5.50303360721e-07
1.74039877695e-07
4.28891966009e-08
8.35911219581e-08
1.35816048225e-07
2.03877684036e-07
2.94524270255e-07
4.19389819368e-07
5.97740812452e-07
8.5950513731e-07
1.24621168331e-06
1.80145431295e-06
2.54148045788e-06
3.40997635164e-06
4.26778449268e-06
4.88548180367e-06
4.5833320872e-06
3.15893114942e-06
1.71946788934e-06
7.87622006211e-07
3.03940095084e-07
9.59686684397e-08
2.37803897941e-08
8.23539699394e-08
1.32394742141e-07
1.95581122932e-07
2.76127508679e-07
3.80905868643e-07
5.2050698745e-07
7.10510801156e-07
9.72000787077e-07
1.32653609911e-06
1.77963328812e-06
2.2974448295e-06
2.81068786791e-06
3.15092834823e-06
2.78916782089e-06
1.81574667495e-06
9.57765574653e-07
4.3146237462e-07
1.65343097321e-07
5.21943225328e-08
1.29934234833e-08
9.055682705e-08
1.43883716244e-07
2.08734667656e-07
2.86948720257e-07
3.81201741711e-07
4.9506228111e-07
6.33486859159e-07
8.03790318167e-07
1.01434398268e-06
1.26717382927e-06
1.5494040361e-06
1.83779827643e-06
1.9807130829e-06
1.628810092e-06
1.00799904603e-06
5.19347616376e-07
2.31392875665e-07
8.83434377258e-08
2.78996348132e-08
6.96459954547e-09
1.02009970228e-07
1.60298523434e-07
2.28648846402e-07
3.06662824356e-07
3.93472529724e-07
4.87431672235e-07
5.86535719988e-07
6.90114761262e-07
8.00105364929e-07
9.19712447782e-07
1.05367198611e-06
1.19849703241e-06
1.2050996392e-06
9.12845009103e-07
5.41690616543e-07
2.74415224122e-07
1.21457967266e-07
4.63009677177e-08
1.46293173839e-08
3.65362588366e-09
1.13427792125e-07
1.76362779693e-07
2.47624873786e-07
3.2473998217e-07
4.04024866645e-07
4.80389063924e-07
5.48046627761e-07
6.02786571704e-07
6.44808726459e-07
6.81263955111e-07
7.28745039013e-07
7.77771280562e-07
7.05457074085e-07
4.93196668433e-07
2.83079430984e-07
1.41696916799e-07
6.24795627914e-08
2.37978919805e-08
7.5141655682e-09
1.87279538389e-09
1.22550667038e-07
1.88575467771e-07
2.60804462844e-07
3.34963303582e-07
4.05365009288e-07
4.65081822868e-07
5.07009292588e-07
5.264534091e-07
5.24883773567e-07
5.14378301594e-07
5.13799507859e-07
4.96024722187e-07
3.98169724559e-07
2.59512483076e-07
1.45088307148e-07
7.19782886848e-08
3.16597097462e-08
1.20524254915e-08
3.80095613499e-09
9.39528999306e-10
1.27691289653e-07
1.94496368126e-07
2.6513022483e-07
3.33946899606e-07
3.94090359908e-07
4.38095431151e-07
4.59206171276e-07
4.54114556411e-07
4.27180642176e-07
3.94009343593e-07
3.64389276312e-07
3.07619853386e-07
2.1965141006e-07
1.35130200965e-07
7.39205030349e-08
3.63909604566e-08
1.59634772472e-08
6.06221883827e-09
1.89825998519e-09
4.59141411248e-10
1.27946208957e-07
1.93015039145e-07
2.59587109057e-07
3.21173401551e-07
3.70497244475e-07
4.00440507355e-07
4.05528928908e-07
3.84715487463e-07
3.45438719952e-07
3.0292022037e-07
2.54248468396e-07
1.86853351386e-07
1.21188002741e-07
7.11162691996e-08
3.81086854351e-08
1.85772814859e-08
8.09503403152e-09
3.04764660983e-09
9.37277479053e-10
2.16812916811e-10
1.25114312916e-07
1.87108330422e-07
2.48670755707e-07
3.02958223534e-07
3.4275039987e-07
3.61606707713e-07
3.55434180422e-07
3.25150792314e-07
2.79776012396e-07
2.31030984214e-07
1.73170787698e-07
1.1344887215e-07
6.84712491505e-08
3.8615177901e-08
2.02299158105e-08
9.70681276657e-09
4.16518896615e-09
1.53586618681e-09
4.55766615588e-10
9.75995789596e-11
1.40352496637e-07
2.08390070213e-07
2.74549997316e-07
3.31139436843e-07
3.70092180625e-07
3.84240910006e-07
3.6909300846e-07
3.25210301931e-07
2.59986178152e-07
1.8669049157e-07
1.19171423981e-07
7.04898910504e-08
4.01818064395e-08
2.18375676174e-08
1.11235419623e-08
5.19908022948e-09
2.16553017292e-09
7.67298313426e-10
2.1430358426e-10
4.09946716116e-11
2.11722805517e-07
3.13916398355e-07
4.13020180227e-07
4.97228028915e-07
5.53769073061e-07
5.70852082023e-07
5.40999883776e-07
4.63647369431e-07
3.45519346082e-07
2.06036580476e-07
9.89247753987e-08
4.79228160472e-08
2.4851237828e-08
1.2817543673e-08
6.27282507853e-09
2.81861676328e-09
1.12116244227e-09
3.74628253307e-10
9.63367980901e-11
1.61126291818e-11
0.000185708861425
5.21503333301e-05
0.000187981315734
9.55796467107e-05
0.000133252893786
4.27046028395e-05
8.36295546213e-05
2.06177794072e-05
5.17741542991e-05
1.1653497142e-05
3.1590448647e-05
7.19283052478e-06
1.84422491624e-05
4.41645030118e-06
1.02772453786e-05
2.56951546505e-06
5.53172957196e-06
1.41155096177e-06
2.91747873615e-06
7.47461816246e-07
1.52732186716e-06
3.89952800381e-07
8.0332253009e-07
2.04034998734e-07
4.28582429904e-07
1.08665103865e-07
2.33327777849e-07
5.93332092358e-08
1.29733879318e-07
3.32188910137e-08
7.34505964405e-08
1.89874673719e-08
4.21073701379e-08
1.10037410374e-08
2.43091318312e-08
6.42756501741e-09
1.40447242039e-08
3.75796754696e-09
8.07969908829e-09
2.18816236991e-09
4.60464389157e-09
1.2622782486e-09
2.58769040313e-09
7.18197023812e-10
1.42791755607e-09
4.00663666733e-10
7.6929082308e-10
2.17989015968e-10
4.05005185593e-10
1.15705167609e-10
2.07937768193e-10
5.97484008386e-11
1.03546723872e-10
2.96320182499e-11
4.93663062141e-11
1.38380990649e-11
2.2070404903e-11
5.88252072844e-12
8.91221775644e-12
2.17202247592e-12
3.07315012647e-12
6.73941104698e-13
8.98989393866e-13
1.87919018026e-13
)
;

boundaryField
{
    inletfuel
    {
        type            zeroGradient;
    }
    inletair
    {
        type            zeroGradient;
    }
    outlet
    {
        type            zeroGradient;
    }
    axis
    {
        type            empty;
    }
    leftside
    {
        type            zeroGradient;
    }
    burnerwall
    {
        type            zeroGradient;
    }
    front
    {
        type            wedge;
    }
    back
    {
        type            wedge;
    }
    procBoundary1to0
    {
        type            processor;
        value           nonuniform List<scalar> 
27
(
0.000253854127677
0.000794347152757
0.0014412050825
0.00193352146537
0.110225293375
0.079492520532
0.0536667265809
0.0342699442657
0.0193732632323
0.00825698543985
0.00208369831468
0.00896589721045
0.0212324746854
0.0499344196778
0.120830632227
0.309679907067
0.816999169708
1.27466022413
0.975936600977
0.813099364975
0.639266267897
0.476080051508
0.34405004128
0.244615988073
0.244615988073
0.000145130257188
5.70959200156e-05
)
;
    }
}


// ************************************************************************* //
