/*--------------------------------*- C++ -*----------------------------------*\
  =========                 |
  \\      /  F ield         | OpenFOAM: The Open Source CFD Toolbox
   \\    /   O peration     | Website:  https://openfoam.org
    \\  /    A nd           | Version:  7
     \\/     M anipulation  |
\*---------------------------------------------------------------------------*/
FoamFile
{
    version     2.0;
    format      ascii;
    class       volScalarField;
    location    "0.05";
    object      ed::R_H2;
}
// * * * * * * * * * * * * * * * * * * * * * * * * * * * * * * * * * * * * * //

dimensions      [1 -3 -1 0 0 0 0];

internalField   nonuniform List<scalar> 
815
(
-0.0173293451951
-0.0178041975994
-0.0190297828532
-0.0231860732502
-0.023592231027
-0.0245381823441
-0.104436604261
-0.104627818753
-0.106229196197
-0.700587092013
-0.702575887362
-0.709500564823
-1.17760057615
-1.17860119351
-1.17663294969
-0.241303555807
-0.24331686874
-0.240349092655
-0.0350271509411
-0.0351592313567
-0.0347806747415
-0.00736259886037
-0.00735061940003
-0.00728493184524
-0.00240587324118
-0.00239670597137
-0.00237725358427
-0.000942965952432
-0.000939840560736
-0.000932901820635
-0.000386820731227
-0.000385508938937
-0.000383017779462
-0.000159324042518
-0.000158904192303
-0.000158056923849
-6.56555707405e-05
-6.55112217097e-05
-6.52246673231e-05
-2.69352058669e-05
-2.68861162576e-05
-2.68017478008e-05
-1.09520297449e-05
-1.09435303493e-05
-1.09226863455e-05
-4.40542250227e-06
-4.40308913202e-06
-4.39976662499e-06
-1.75411112841e-06
-1.75501589849e-06
-1.75596761632e-06
-7.09102365371e-07
-7.09674577479e-07
-7.1077499721e-07
-3.10790881761e-07
-3.11123475279e-07
-3.11893495329e-07
-1.68450868537e-07
-1.68650057158e-07
-1.69127348745e-07
-1.25299612784e-07
-1.25414509634e-07
-1.2566742169e-07
-1.19840161261e-07
-1.19854308164e-07
-1.19901436458e-07
-1.28045572085e-07
-1.27962703632e-07
-1.27786734717e-07
-1.40124769551e-07
-1.39919531019e-07
-1.3948867635e-07
-1.51339413054e-07
-1.50997341748e-07
-1.50279180845e-07
-1.58832250155e-07
-1.58344195109e-07
-1.57324332144e-07
-1.60775350615e-07
-1.60142737771e-07
-1.58836195803e-07
-1.56437434995e-07
-1.55694159172e-07
-1.54166764984e-07
-1.48413444172e-07
-1.47593998443e-07
-1.4592990115e-07
-1.60861399416e-07
-1.60002954709e-07
-1.58167698707e-07
-2.33235482758e-07
-2.32130039994e-07
-2.29702765312e-07
-0.0207804025709
-0.0259478337064
-0.108713821211
-0.722518398877
-1.16295951949
-0.234367898595
-0.0340143967746
-0.00717296513062
-0.00234728185621
-0.00092292328481
-0.000379396447229
-0.000156853907952
-6.48172375434e-05
-2.66802617485e-05
-1.08925756993e-05
-4.39426657317e-06
-1.75702103788e-06
-7.12283533901e-07
-3.13038620656e-07
-1.69890855358e-07
-1.26125836294e-07
-1.2008604309e-07
-1.27689752282e-07
-1.39071923602e-07
-1.49498284993e-07
-1.56155768627e-07
-1.57297441183e-07
-1.52337066065e-07
-1.43909039886e-07
-1.5580348748e-07
-2.26262288545e-07
-0.0163469511947
-0.00909055812827
-0.00486661210769
-0.00247874837161
-0.00116405322386
-0.000420904365177
-8.86688747938e-05
-0.0249440458697
-0.0350092693534
-0.0529835068856
-0.0847932380915
-0.141440812774
-0.236486582215
-0.331095013861
-0.362442785411
-0.352777010708
-0.255303642522
-0.128394597604
-0.0674132180387
-0.0360861393444
-0.0189549604418
-0.00960678546621
-0.00479448168777
-0.00240727227538
-0.00114086835335
-0.000409448272801
-8.61074992561e-05
-0.0292866504012
-0.037254225417
-0.05085558107
-0.0729670846349
-0.107793967531
-0.159170398167
-0.218227067532
-0.28329899434
-0.402730718577
-0.247251858531
-0.123731996715
-0.0624658953762
-0.030830363517
-0.0146633765977
-0.00688135576362
-0.00337822368723
-0.00177349175138
-0.000884376075701
-0.000316867900606
-6.85631153364e-05
-0.11519214675
-0.131893968744
-0.16040934658
-0.206437617949
-0.279607711515
-0.396943763546
-0.587108670551
-0.605026267115
-0.315101428422
-0.156987657106
-0.0759196779239
-0.0358493699668
-0.0165577052245
-0.00757735191471
-0.00360875547483
-0.00188989080404
-0.00107087927414
-0.000567653628264
-0.000210048073877
-4.722187522e-05
-0.754215043081
-0.834803244606
-0.969302054358
-1.17977350192
-1.24538422326
-0.795417959962
-0.455174801789
-0.244106012557
-0.124640990523
-0.0613033981432
-0.0294155349671
-0.0139360741798
-0.00660964472525
-0.00322283029737
-0.00168773733244
-0.000967017960888
-0.00058890117295
-0.000331268419017
-0.000130976476213
-2.87508451709e-05
-1.09683988892
-0.946807727869
-0.75192596341
-0.543673127249
-0.354870034061
-0.211706081545
-0.118320248695
-0.0641444035877
-0.0339637501586
-0.0176825757578
-0.00911746685027
-0.00471740580573
-0.00248142292752
-0.00135216289339
-0.000785280447717
-0.000487785919817
-0.000315158929154
-0.00018624678267
-7.72991940433e-05
-1.59256104136e-05
-0.218565316191
-0.183948367975
-0.142045649535
-0.0998939134027
-0.0651441496327
-0.0404574011735
-0.0245358335752
-0.0147239777118
-0.00872878762264
-0.00510719335638
-0.00295815995813
-0.00171399737252
-0.00100244528167
-0.000601727122917
-0.000379848947076
-0.000251759974698
-0.000169117652076
-0.000102163256667
-4.21624138143e-05
-8.22394514487e-06
-0.0320194242243
-0.0277489397338
-0.0225712101562
-0.0172368539735
-0.0125409510211
-0.00880674819919
-0.00606098325407
-0.00409441551219
-0.00270919733572
-0.00175218030217
-0.0011121003628
-0.000700201595137
-0.000442374945283
-0.000286031453463
-0.000192441175233
-0.000133149948434
-9.06896905782e-05
-5.40418595662e-05
-2.13806035319e-05
-4.03814125552e-06
-0.00688653652921
-0.00626681491738
-0.00544648377784
-0.00451038714422
-0.00357764883688
-0.00273508005659
-0.00203143968998
-0.00146739917494
-0.00103148984491
-0.000705809069411
-0.000473103716957
-0.000314610863259
-0.000210406579787
-0.000143827790356
-0.000101142758493
-7.16692852054e-05
-4.84695990293e-05
-2.76427222662e-05
-1.03006213233e-05
-1.92477728322e-06
-0.00227577619095
-0.00212011721023
-0.00190133713526
-0.00163453798036
-0.00134791781652
-0.00106987736935
-0.000821496632966
-0.000611907960533
-0.000443389546692
-0.000313480033332
-0.000217948952738
-0.000150905604258
-0.000105538225146
-7.53606137123e-05
-5.46988550368e-05
-3.90956241732e-05
-2.58321437356e-05
-1.38758311491e-05
-4.8348781286e-06
-9.05139761824e-07
-0.000899142946102
-0.000847070645887
-0.000771210984807
-0.000675200032077
-0.000568036466485
-0.00046015453508
-0.000360310231846
-0.000273727418731
-0.000202606886696
-0.000146899423252
-0.000105323294919
-7.56673427865e-05
-5.51496029763e-05
-4.08961545985e-05
-3.03540448019e-05
-2.16259848659e-05
-1.3787827148e-05
-6.92328763921e-06
-2.25990444855e-06
-4.26142358796e-07
-0.000371032189042
-0.000352660130957
-0.000325031144975
-0.00028893741008
-0.000247366708913
-0.000204172805605
-0.000162939347555
-0.000126227911847
-9.54480357273e-05
-7.10098309669e-05
-5.25916189197e-05
-3.93001602382e-05
-2.98669672001e-05
-2.29177121606e-05
-1.72640039417e-05
-1.21426762499e-05
-7.39959561411e-06
-3.46842559954e-06
-1.06912860513e-06
-2.03230286327e-07
-0.000154004384933
-0.000147669463809
-0.000137781687815
-0.000124418261044
-0.000108503059011
-9.13928856865e-05
-7.44989458519e-05
-5.90091753261e-05
-4.57391303529e-05
-3.50763244219e-05
-2.69915071622e-05
-2.10928453409e-05
-1.67453845844e-05
-1.32542842651e-05
-1.00630856119e-05
-6.92377505208e-06
-4.00340020023e-06
-1.75465935489e-06
-5.16533969515e-07
-9.89692385535e-08
-6.38729230881e-05
-6.17665247207e-05
-5.83304115625e-05
-5.35067081837e-05
-4.7553437744e-05
-4.09216240698e-05
-3.41453621413e-05
-2.77522376225e-05
-2.21749077141e-05
-1.76658514e-05
-1.42460063308e-05
-1.17139771947e-05
-9.72313311909e-06
-7.90617271853e-06
-6.00478439278e-06
-4.00495477573e-06
-2.18759114677e-06
-9.00257100799e-07
-2.55836987133e-07
-4.94599771387e-08
-2.63900401129e-05
-2.57212730842e-05
-2.45668994122e-05
-2.28767059151e-05
-2.0715436397e-05
-1.82274308535e-05
-1.56100315954e-05
-1.30893588586e-05
-1.08758131756e-05
-9.10107240753e-06
-7.76879735367e-06
-6.75258689618e-06
-5.84872209851e-06
-4.8554603652e-06
-3.65829408475e-06
-2.34591021978e-06
-1.2073062364e-06
-4.69430188842e-07
-1.30062497159e-07
-2.53833402896e-08
-1.08123436346e-05
-1.0615087854e-05
-1.02465110905e-05
-9.68094210711e-06
-8.93393578444e-06
-8.05278681071e-06
-7.11149046866e-06
-6.20520403276e-06
-5.42772528349e-06
-4.83342596407e-06
-4.40374661881e-06
-4.04649149871e-06
-3.63484720474e-06
-3.05815251564e-06
-2.26618383237e-06
-1.38593734947e-06
-6.71845110716e-07
-2.48739526533e-07
-6.76787459908e-08
-1.33318312064e-08
-4.37671627466e-06
-4.32710726549e-06
-4.22098459857e-06
-4.0485149648e-06
-3.81492512391e-06
-3.53823488905e-06
-3.24858549e-06
-2.98639803864e-06
-2.78971774885e-06
-2.67234173868e-06
-2.60384482002e-06
-2.51314413348e-06
-2.31996339966e-06
-1.96209909721e-06
-1.41721952202e-06
-8.21234980481e-07
-3.7577091867e-07
-1.3354437003e-07
-3.58552801833e-08
-7.12402388648e-09
-1.75631582505e-06
-1.74947156089e-06
-1.72656915824e-06
-1.68533472468e-06
-1.62928853317e-06
-1.5674659381e-06
-1.51411921396e-06
-1.48718316125e-06
-1.50023907666e-06
-1.54928832111e-06
-1.60189866643e-06
-1.60421136517e-06
-1.50609241514e-06
-1.2706648463e-06
-8.86530652217e-07
-4.84918217875e-07
-2.10394403981e-07
-7.22940262762e-08
-1.92182024811e-08
-3.848775207e-09
-7.14721751785e-07
-7.18218639677e-07
-7.18987112006e-07
-7.17566034171e-07
-7.16996425943e-07
-7.22940542333e-07
-7.43268177921e-07
-7.86421384416e-07
-8.5577812161e-07
-9.41624658413e-07
-1.01591682452e-06
-1.04004510496e-06
-9.838251135e-07
-8.22051806659e-07
-5.49099838134e-07
-2.83397594003e-07
-1.17370546763e-07
-3.92454950358e-08
-1.03561851298e-08
-2.08900815378e-09
-3.15393645529e-07
-3.20039921891e-07
-3.25662998016e-07
-3.33494445092e-07
-3.46021342704e-07
-3.67025637005e-07
-4.01112197928e-07
-4.52315055593e-07
-5.20236573086e-07
-5.95182484688e-07
-6.55929727917e-07
-6.76757396852e-07
-6.40391932847e-07
-5.25759748526e-07
-3.33583774634e-07
-1.62973482464e-07
-6.4920170887e-08
-2.12486976131e-08
-5.57796898599e-09
-1.13270488443e-09
-1.71605950782e-07
-1.75202033037e-07
-1.80250051129e-07
-1.87885992108e-07
-1.99914985088e-07
-2.18731671053e-07
-2.46933499378e-07
-2.86329431267e-07
-3.35501521788e-07
-3.86946357839e-07
-4.26296520201e-07
-4.37954289281e-07
-4.1225152591e-07
-3.29153780534e-07
-1.9721590758e-07
-9.1791153149e-08
-3.54475612096e-08
-1.141831385e-08
-2.98758576869e-09
-6.10436506515e-10
-1.27205760729e-07
-1.2940080298e-07
-1.32536272042e-07
-1.37432094252e-07
-1.45240420486e-07
-1.57299647893e-07
-1.74906100573e-07
-1.98759560035e-07
-2.27587611596e-07
-2.56517741792e-07
-2.76905839056e-07
-2.80451139813e-07
-2.61057785269e-07
-1.99947540201e-07
-1.12874521644e-07
-5.04651274526e-08
-1.90361293919e-08
-6.0638596958e-09
-1.58401420368e-09
-3.25440232907e-10
-1.20567044916e-07
-1.21353473281e-07
-1.22316410093e-07
-1.23955377398e-07
-1.26902516102e-07
-1.31770088013e-07
-1.39089068917e-07
-1.49127244159e-07
-1.61207469083e-07
-1.72777488586e-07
-1.79446991187e-07
-1.77647923317e-07
-1.61933351575e-07
-1.17014544768e-07
-6.23877430173e-08
-2.70283105349e-08
-1.00266187068e-08
-3.1717075349e-09
-8.28321320191e-10
-1.70972810593e-10
-1.27543577837e-07
-1.26877214681e-07
-1.255852998e-07
-1.2391984535e-07
-1.22174642912e-07
-1.20563167453e-07
-1.19292589492e-07
-1.18624380922e-07
-1.18570893551e-07
-1.18332662412e-07
-1.16399650493e-07
-1.11717740769e-07
-9.78963649538e-08
-6.57109992923e-08
-3.33016034465e-08
-1.40915168983e-08
-5.17003486144e-09
-1.62934099575e-09
-4.25704905977e-10
-8.8113644979e-11
-1.38218890439e-07
-1.35983185201e-07
-1.32340179815e-07
-1.27399978758e-07
-1.21311989965e-07
-1.14188242291e-07
-1.0624567338e-07
-9.79670915722e-08
-8.99608585695e-08
-8.26074588115e-08
-7.61333278136e-08
-7.00682577105e-08
-5.72783298333e-08
-3.54108409663e-08
-1.72064000962e-08
-7.15855706637e-09
-2.60905435367e-09
-8.21002156685e-10
-2.14614487924e-10
-4.44435483216e-11
-1.47850805938e-07
-1.43925455336e-07
-1.37875088295e-07
-1.29779163203e-07
-1.19825399455e-07
-1.08253318557e-07
-9.54910063934e-08
-8.2307125524e-08
-6.97330193733e-08
-5.88530677747e-08
-5.0642330759e-08
-4.37297057435e-08
-3.22426281994e-08
-1.83949452806e-08
-8.64479443739e-09
-3.55365186653e-09
-1.29030649206e-09
-4.0569353035e-10
-1.05982364841e-10
-2.19032691443e-11
-1.53670049457e-07
-1.48040373821e-07
-1.39689581844e-07
-1.28770200152e-07
-1.15644756082e-07
-1.00810342547e-07
-8.497209211e-08
-6.91411314481e-08
-5.45959094804e-08
-4.27376688918e-08
-3.43387985606e-08
-2.68190537321e-08
-1.7497930123e-08
-9.30562752827e-09
-4.25956154489e-09
-1.73539301258e-09
-6.28564063531e-10
-1.97530523419e-10
-5.15420887252e-11
-1.05647970876e-11
-1.54025292678e-07
-1.46878527073e-07
-1.36600678202e-07
-1.23489874682e-07
-1.08143686255e-07
-9.13395896931e-08
-7.40237499031e-08
-5.73631452349e-08
-4.27353021675e-08
-3.14845127568e-08
-2.34202876168e-08
-1.59934106676e-08
-9.28067847587e-09
-4.65830212647e-09
-2.08627782519e-09
-8.43465573092e-10
-3.04690778611e-10
-9.55205162293e-11
-2.4748309764e-11
-4.96397336422e-12
-1.48457363412e-07
-1.40209043752e-07
-1.28649334421e-07
-1.14239316672e-07
-9.77918484667e-08
-8.03027161984e-08
-6.28747691153e-08
-4.67398641887e-08
-3.32364200073e-08
-2.32792441536e-08
-1.57145225381e-08
-9.34090919079e-09
-4.92283743908e-09
-2.35683543053e-09
-1.03398283567e-09
-4.13949520175e-10
-1.48544648596e-10
-4.61691388901e-11
-1.17487034855e-11
-2.25372300513e-12
-1.39640124309e-07
-1.30737928192e-07
-1.18540235518e-07
-1.0364949926e-07
-8.7015187459e-08
-6.97459109598e-08
-5.30022604717e-08
-3.79930107052e-08
-2.58889033946e-08
-1.70746675332e-08
-1.0292533564e-08
-5.45309579946e-09
-2.67413358034e-09
-1.23034386831e-09
-5.27712004446e-10
-2.0795459681e-10
-7.34876663206e-11
-2.2371350213e-11
-5.49306389568e-12
-9.75434232683e-13
-1.50673511548e-07
-1.40053613541e-07
-1.25882450412e-07
-1.0896595418e-07
-9.03679946292e-08
-7.12796543792e-08
-5.29350169144e-08
-3.65466756831e-08
-2.31371550849e-08
-1.32692483353e-08
-6.81133405368e-09
-3.25796464687e-09
-1.50890580042e-09
-6.69006459343e-10
-2.79005735716e-10
-1.07102088111e-10
-3.67394908882e-11
-1.07471334693e-11
-2.48356648675e-12
-3.9393094285e-13
-2.18616335321e-07
-2.02920327228e-07
-1.8213950493e-07
-1.57368830044e-07
-1.30049982228e-07
-1.01848860996e-07
-7.46224115677e-08
-5.01108240884e-08
-2.95725754202e-08
-1.40839237499e-08
-5.4376666952e-09
-2.13006120126e-09
-8.97431523162e-10
-3.77618502997e-10
-1.51307983507e-10
-5.58394308773e-11
-1.82923838251e-11
-5.04604274655e-12
-1.07358203264e-12
-1.48875559517e-13
-2.53565906579e-05
-6.96991034498e-06
-2.4672997207e-05
-1.22812894779e-05
-1.68160089705e-05
-5.27759888308e-06
-1.01497834784e-05
-2.4513380955e-06
-6.04395984657e-06
-1.33303526661e-06
-3.5470978269e-06
-7.91546534411e-07
-1.99164068604e-06
-4.67516554985e-07
-1.06740409416e-06
-2.61630304404e-07
-5.52529224062e-07
-1.38237331132e-07
-2.8024596197e-07
-7.04038733948e-08
-1.41090403192e-07
-3.53255184619e-08
-7.13657630652e-08
-1.77763087505e-08
-3.66154299597e-08
-9.10498224925e-09
-1.91699760993e-08
-4.78113255475e-09
-1.02501097729e-08
-2.57427042854e-09
-5.5806445582e-09
-1.41502621702e-09
-3.0764833148e-09
-7.88603634327e-10
-1.70791552162e-09
-4.4297417392e-10
-9.48863184628e-10
-2.49052711051e-10
-5.24894271761e-10
-1.3944952459e-10
-2.87641759488e-10
-7.7354418431e-11
-1.55432144966e-10
-4.23213943076e-11
-8.24704674552e-11
-2.27027029278e-11
-4.27216658594e-11
-1.18770773861e-11
-2.16260847323e-11
-6.06181395288e-12
-1.06760130379e-11
-3.00989617165e-12
-5.1117815153e-12
-1.43538000563e-12
-2.34331863018e-12
-6.44575322046e-13
-1.00736015464e-12
-2.63493919933e-13
-3.91155125939e-13
-9.35629712507e-14
-1.29705024867e-13
-2.79195944581e-14
-3.64885917166e-14
-7.48679083135e-15
)
;

boundaryField
{
    inletfuel
    {
        type            calculated;
        value           nonuniform 0();
    }
    inletair
    {
        type            calculated;
        value           nonuniform 0();
    }
    outlet
    {
        type            calculated;
        value           uniform 0;
    }
    axis
    {
        type            empty;
    }
    leftside
    {
        type            calculated;
        value           uniform 0;
    }
    burnerwall
    {
        type            calculated;
        value           nonuniform 0();
    }
    front
    {
        type            wedge;
    }
    back
    {
        type            wedge;
    }
    procBoundary1to0
    {
        type            processor;
        value           uniform 0;
    }
}


// ************************************************************************* //
