/*--------------------------------*- C++ -*----------------------------------*\
  =========                 |
  \\      /  F ield         | OpenFOAM: The Open Source CFD Toolbox
   \\    /   O peration     | Website:  https://openfoam.org
    \\  /    A nd           | Version:  7
     \\/     M anipulation  |
\*---------------------------------------------------------------------------*/
FoamFile
{
    version     2.0;
    format      ascii;
    class       volScalarField;
    location    "0.05";
    object      ed::R_O2;
}
// * * * * * * * * * * * * * * * * * * * * * * * * * * * * * * * * * * * * * //

dimensions      [1 -3 -1 0 0 0 0];

internalField   nonuniform List<scalar> 
815
(
-0.137525884083
-0.14129431826
-0.151020577022
-0.184004945728
-0.187228218547
-0.19473529915
-0.828810100433
-0.830327580851
-0.843036130786
-5.55986727259
-5.57565037551
-5.630604696
-9.34545180486
-9.35339271586
-9.33777271013
-1.91498781234
-1.93096548709
-1.90741318172
-0.277975875362
-0.27902406707
-0.276019837388
-0.0584296697894
-0.0583346006534
-0.0578133034581
-0.0190930378937
-0.0190202863344
-0.0188659119651
-0.00748338871479
-0.00745858557011
-0.00740351964834
-0.00306981380107
-0.00305940340227
-0.00303963353183
-0.00126439744584
-0.00126106550968
-0.00125434157742
-0.000521043369461
-0.000519897813882
-0.000517623714952
-0.000213758105577
-0.000213368529869
-0.000212698980819
-8.69154348424e-05
-8.68479835401e-05
-8.66825652851e-05
-3.49614839776e-05
-3.49429663243e-05
-3.491659887e-05
-1.39206462216e-05
-1.39278264874e-05
-1.39353793312e-05
-5.62744458054e-06
-5.63198566246e-06
-5.64071860618e-06
-2.46644003554e-06
-2.46907950155e-06
-2.47519038958e-06
-1.33682804279e-06
-1.33840880599e-06
-1.34219659755e-06
-9.94379177592e-07
-9.95291000321e-07
-9.97298113328e-07
-9.51052907102e-07
-9.51165177087e-07
-9.51539187777e-07
-1.01617114239e-06
-1.01551349739e-06
-1.01411700604e-06
-1.11203179332e-06
-1.11040301795e-06
-1.10698375031e-06
-1.20103133398e-06
-1.19831665214e-06
-1.1926173189e-06
-1.26049457596e-06
-1.25662136546e-06
-1.24852772117e-06
-1.2759150437e-06
-1.27089462085e-06
-1.26052588866e-06
-1.24148929513e-06
-1.23559064959e-06
-1.22346923163e-06
-1.17781081106e-06
-1.17130768027e-06
-1.15810138489e-06
-1.27659792798e-06
-1.26978530085e-06
-1.25522068798e-06
-1.85095949123e-06
-1.84218668465e-06
-1.82292380468e-06
-0.164913515368
-0.20592230868
-0.86275414366
-5.73391437776
-9.2292602097
-1.85994635642
-0.269938646572
-0.0569247343148
-0.0186280559843
-0.00732432987252
-0.00301089459731
-0.00124479442933
-0.000514390347504
-0.000211734866102
-8.64436068483e-05
-3.48729503951e-05
-1.39437392968e-05
-5.65269037082e-06
-2.48427811743e-06
-1.34825579487e-06
-1.00093609693e-06
-9.53004228141e-07
-1.01334735232e-06
-1.10367639568e-06
-1.18642012038e-06
-1.23925398757e-06
-1.24831431419e-06
-1.20894871983e-06
-1.1420638065e-06
-1.23645828031e-06
-1.79562014123e-06
-0.129729593923
-0.0721427745432
-0.0386214900252
-0.0196713757724
-0.00923793986024
-0.00334030191466
-0.000703677216843
-0.197956236788
-0.277833966875
-0.42047772401
-0.672920119107
-1.12247592757
-1.87676025416
-2.62757386294
-2.87635014086
-2.79964244092
-2.02609266259
-1.01894101295
-0.534992078767
-0.28638001959
-0.150426785499
-0.0762395606733
-0.0380490621777
-0.0191041406453
-0.00905394445947
-0.00324938623295
-0.000683350110924
-0.232419196622
-0.295649964184
-0.403590480104
-0.579067628369
-0.855454174206
-1.2631781225
-1.73185253425
-2.2482640987
-3.19607564486
-1.96219361163
-0.981938558323
-0.495730068845
-0.24467012178
-0.116368726431
-0.0546105190024
-0.02680962229
-0.0140744510699
-0.00701841877478
-0.00251466732745
-0.000544117677034
-0.914166210133
-1.04671206283
-1.27301043145
-1.63829132588
-2.21897003547
-3.15015030274
-4.65930120618
-4.80149545994
-2.50064858374
-1.24585586417
-0.602499442891
-0.284501015068
-0.131402140343
-0.0601339525147
-0.0286391252252
-0.0149981952993
-0.00849851031663
-0.00450490576537
-0.00166694394592
-0.000374753348412
-5.9854593131
-6.62500821333
-7.69239232455
-9.36269616896
-9.883383613
-6.31244613845
-3.61227249635
-1.93722814156
-0.989152343701
-0.486504477346
-0.23344202603
-0.110596846023
-0.0524542170565
-0.0255764185492
-0.0133939030084
-0.00767426573234
-0.00467352652597
-0.00262895000826
-0.00103943083148
-0.000228167040111
-8.70453405606
-7.51387708913
-5.96729315033
-4.3145962317
-2.81625269847
-1.68010191397
-0.938990863387
-0.509050729443
-0.269536714442
-0.140329125917
-0.0723563224725
-0.0374373870855
-0.0196926010791
-0.0107307803753
-0.00623199472392
-0.00387107470654
-0.00250110491022
-0.00147805662336
-0.000613447298785
-0.000126385828606
-1.73453687952
-1.45981637773
-1.1272759191
-0.792759253191
-0.516984725629
-0.32107040407
-0.194716659293
-0.116849657574
-0.0692717596225
-0.0405307455999
-0.023475991673
-0.0136023029905
-0.00795541736016
-0.00477531341339
-0.00301448564134
-0.00199797007371
-0.00134211964467
-0.000810768787607
-0.000334601404125
-6.52653238746e-05
-0.254106521318
-0.220215906965
-0.179125385097
-0.136791872677
-0.0995251324842
-0.0698904556605
-0.0481000332695
-0.032493328904
-0.0215002214194
-0.0139053231622
-0.00882564135346
-0.00555680796492
-0.00351069268694
-0.00226994892594
-0.00152721539445
-0.00105667953219
-0.000719714434302
-0.000428876823135
-0.000169676717142
-3.20467357515e-05
-0.0546516336181
-0.0497335157324
-0.0432233583124
-0.0357944845912
-0.0283922625863
-0.0217056269919
-0.0161215288967
-0.0116452968397
-0.0081859153503
-0.00560130894568
-0.00375455657468
-0.00249675545293
-0.00166978905297
-0.00114141900929
-0.000802670102287
-0.000568768277072
-0.000384655299007
-0.000219372963912
-8.17458500672e-05
-1.52750548019e-05
-0.018060586197
-0.0168252747241
-0.0150890335163
-0.0129717123344
-0.0106970913961
-0.00849055918869
-0.00651940678932
-0.00485610865857
-0.00351874457547
-0.00248778117354
-0.00172964541203
-0.00119758862236
-0.000837552576528
-0.000598062702837
-0.000434090746796
-0.000310263326031
-0.000205004191733
-0.000110118756634
-3.83696487998e-05
-7.18319962823e-06
-0.00713560882923
-0.00672236245192
-0.00612033930338
-0.00535839527104
-0.00450794397393
-0.00365179171739
-0.00285942617108
-0.00217230396387
-0.00160789059831
-0.00116579552351
-0.000835846887759
-0.00060049690832
-0.000437667887662
-0.00032455235633
-0.000240890050943
-0.00017162406625
-0.000109420355862
-5.49432908525e-05
-1.79346278656e-05
-3.38187069266e-06
-0.00294451574751
-0.00279871488186
-0.00257945092926
-0.00229301063129
-0.00196310506559
-0.00162031774889
-0.00129308854847
-0.0010017461697
-0.000757476716491
-0.000563534840602
-0.000417367696576
-0.00031188652661
-0.000237024597456
-0.000181875229015
-0.000137007335139
-9.63644192893e-05
-5.87232764553e-05
-2.75254657103e-05
-8.48461698714e-06
-1.612837905e-06
-0.00122218058167
-0.00117190657429
-0.00109343706953
-0.00098738475998
-0.000861081532405
-0.000725294998822
-0.000591224496721
-0.00046829749851
-0.000362986267982
-0.000278366116675
-0.000214204913308
-0.000167393064807
-0.000132891565915
-0.000105186153367
-7.98607639116e-05
-5.49471589667e-05
-3.17710303346e-05
-1.39249969533e-05
-4.09921956175e-06
-7.85421022883e-07
-0.000506896257055
-0.000490179855227
-0.000462910821425
-0.000424629855569
-0.000377384632441
-0.000324754482349
-0.000270977989239
-0.000220242079047
-0.000175980324328
-0.00014019640122
-0.000113056471161
-9.29622586245e-05
-7.71628969934e-05
-6.27434782204e-05
-4.76540384557e-05
-3.17833674638e-05
-1.73607486655e-05
-7.14445077381e-06
-2.0303252916e-06
-3.92514951148e-07
-0.000209431663841
-0.00020412432096
-0.000194963198135
-0.000181549802975
-0.00016439794306
-0.000144653102264
-0.000123881391451
-0.000103877303431
-8.63105792656e-05
-7.22262159852e-05
-6.16532657346e-05
-5.35886077797e-05
-4.64155262818e-05
-3.85329896677e-05
-2.9032264207e-05
-1.86171706617e-05
-9.58119626847e-06
-3.72540341303e-06
-1.03217748313e-06
-2.0144248239e-07
-8.58068842539e-05
-8.42414600954e-05
-8.13164306337e-05
-7.68280686339e-05
-7.08998178094e-05
-6.39070093533e-05
-5.64368706857e-05
-4.92445710388e-05
-4.30744906841e-05
-3.83581244052e-05
-3.4948184147e-05
-3.21130033781e-05
-2.88461894958e-05
-2.42695337669e-05
-1.79844611283e-05
-1.09988148498e-05
-5.33177057629e-06
-1.97399976211e-06
-5.37099311669e-07
-1.0580156679e-07
-3.4733671023e-05
-3.43399733519e-05
-3.34977826387e-05
-3.21290616285e-05
-3.0275289947e-05
-2.80794730401e-05
-2.57808120561e-05
-2.37000894069e-05
-2.21392323502e-05
-2.12077349746e-05
-2.06641426352e-05
-1.99443409368e-05
-1.84112563969e-05
-1.55712411498e-05
-1.12470705332e-05
-6.51733031216e-06
-2.9821223607e-06
-1.05980966654e-06
-2.84547918615e-07
-5.65363360347e-08
-1.39381427196e-05
-1.38838265601e-05
-1.37020728275e-05
-1.33748358854e-05
-1.29300526607e-05
-1.24394278306e-05
-1.20160676103e-05
-1.18023027841e-05
-1.19059146799e-05
-1.22951700518e-05
-1.27126863612e-05
-1.27310399652e-05
-1.19523668419e-05
-1.00840109302e-05
-7.03551751895e-06
-3.84831659073e-06
-1.66969242564e-06
-5.73726229443e-07
-1.52515877371e-07
-3.05439245983e-08
-5.67204009618e-06
-5.69979143897e-06
-5.70589004427e-06
-5.69461235412e-06
-5.69009193662e-06
-5.73726451311e-06
-5.89858486446e-06
-6.24104921077e-06
-6.79146508005e-06
-7.47274418993e-06
-8.06232768023e-06
-8.25380999312e-06
-7.80764749003e-06
-6.52381265417e-06
-4.35766267211e-06
-2.24904658678e-06
-9.31454017854e-07
-3.11452702931e-07
-8.21868050787e-08
-1.65783928919e-08
-2.50296762209e-06
-2.53984052508e-06
-2.58446532231e-06
-2.64661577697e-06
-2.74602938143e-06
-2.91271970416e-06
-3.18323104625e-06
-3.58957751744e-06
-4.12860346655e-06
-4.72337508864e-06
-5.20546591415e-06
-5.37075453593e-06
-5.0821577926e-06
-4.17243545079e-06
-2.64732469724e-06
-1.29335944351e-06
-5.15207227711e-07
-1.68629910244e-07
-4.42668264464e-08
-8.98915907566e-09
-1.36186681201e-06
-1.39040536242e-06
-1.43046649243e-06
-1.49106540844e-06
-1.58652763598e-06
-1.73585707363e-06
-1.9596671097e-06
-2.27231368124e-06
-2.66254396086e-06
-3.07081077531e-06
-3.38309411935e-06
-3.47561030973e-06
-3.27163288207e-06
-2.61216821279e-06
-1.56510772563e-06
-7.28455654015e-07
-2.8131225612e-07
-9.0615870898e-08
-2.37095152462e-08
-4.84443118245e-09
-1.00950638975e-06
-1.02692627046e-06
-1.05180938924e-06
-1.09066269098e-06
-1.15262965836e-06
-1.24833182667e-06
-1.38805683896e-06
-1.57735816939e-06
-1.8061379203e-06
-2.03572776845e-06
-2.19752794436e-06
-2.22566349221e-06
-2.07175760604e-06
-1.58678599374e-06
-8.95773510462e-07
-4.00491835676e-07
-1.51070943227e-07
-4.81228607444e-08
-1.25707550578e-08
-2.58269745583e-09
-9.56821464203e-07
-9.63062568811e-07
-9.70704446498e-07
-9.83711310009e-07
-1.00709983688e-06
-1.04572894392e-06
-1.1038124611e-06
-1.18347553603e-06
-1.27934434087e-06
-1.37116414959e-06
-1.42409339943e-06
-1.40981597599e-06
-1.28510495272e-06
-9.28628781899e-07
-4.9510985082e-07
-2.14496985299e-07
-7.9571362131e-08
-2.51707077144e-08
-6.57356758614e-09
-1.35684220414e-09
-1.01218731023e-06
-1.00689904451e-06
-9.96646393053e-07
-9.83429327263e-07
-9.69579380514e-07
-9.56790692612e-07
-9.46707371203e-07
-9.41404460254e-07
-9.40979983865e-07
-9.39089378783e-07
-9.23748973816e-07
-8.86593284046e-07
-7.76906685575e-07
-5.2148325109e-07
-2.64281910469e-07
-1.11830441236e-07
-4.10294565116e-08
-1.29304690044e-08
-3.37839906203e-09
-6.99270906605e-10
-1.09690671462e-06
-1.07916413197e-06
-1.05025319906e-06
-1.01104770627e-06
-9.62733356734e-07
-9.06199212724e-07
-8.43166893902e-07
-7.77467972838e-07
-7.13930415043e-07
-6.55573749437e-07
-6.04194970889e-07
-5.56062504339e-07
-4.54561488643e-07
-2.81020843844e-07
-1.36550190354e-07
-5.68103917501e-08
-2.07054855546e-08
-6.51548261982e-09
-1.70318306066e-09
-3.52704513983e-10
-1.17334570753e-06
-1.14219407971e-06
-1.09417829683e-06
-1.02992894158e-06
-9.50935757238e-07
-8.59099589265e-07
-7.57817732194e-07
-6.53190300991e-07
-5.53402049014e-07
-4.67058627175e-07
-4.01898123167e-07
-3.47039451019e-07
-2.55877870649e-07
-1.45982498697e-07
-6.8605188732e-08
-2.82018223518e-08
-1.02398872583e-08
-3.21958855339e-09
-8.41077274289e-10
-1.73824597493e-10
-1.21952729146e-06
-1.17485012044e-06
-1.10857813864e-06
-1.02192179912e-06
-9.17758123033e-07
-8.00032045487e-07
-6.74339506668e-07
-5.48704819588e-07
-4.33273769669e-07
-3.3916663508e-07
-2.72513102902e-07
-2.1283632089e-07
-1.38863776022e-07
-7.38495677913e-08
-3.38039297313e-08
-1.37720990377e-08
-4.98829168478e-09
-1.56760452057e-09
-4.09038612803e-10
-8.38423519914e-11
-1.22234650577e-06
-1.1656296912e-06
-1.08406456358e-06
-9.80017075061e-07
-8.58229546048e-07
-7.24872041201e-07
-5.8745333617e-07
-4.55234584652e-07
-3.39147852728e-07
-2.4986145772e-07
-1.85863673653e-07
-1.26923892207e-07
-7.36515718227e-08
-3.69683396028e-08
-1.65567249726e-08
-6.69375255247e-09
-2.41802954632e-09
-7.58051922594e-10
-1.96402872787e-10
-3.93941500841e-11
-1.17815935466e-06
-1.11270059435e-06
-1.02096260728e-06
-9.06604539607e-07
-7.76077241524e-07
-6.37283285379e-07
-4.98974895572e-07
-3.70928103288e-07
-2.63764613941e-07
-1.84744351096e-07
-1.24710632782e-07
-7.41295634736e-08
-3.9067694906e-08
-1.87038732607e-08
-8.20569975381e-09
-3.28510818422e-09
-1.17885205089e-09
-3.66398820711e-10
-9.32378468706e-11
-1.78855718591e-11
-1.10818564306e-06
-1.03753771163e-06
-9.40736681354e-07
-8.22563626034e-07
-6.9055353501e-07
-5.53504356794e-07
-4.20626552687e-07
-3.01512972785e-07
-2.05454637043e-07
-1.35504759209e-07
-8.1681665516e-08
-4.32758313925e-08
-2.12219550508e-08
-9.76402318208e-09
-4.18792857637e-09
-1.65033008768e-09
-5.83198970654e-10
-1.77539294274e-10
-4.35930186669e-11
-7.74105736273e-12
-1.19574673193e-06
-1.1114670984e-06
-9.99004583753e-07
-8.64755073821e-07
-7.17161451527e-07
-5.65676162326e-07
-4.20092907037e-07
-2.90034841305e-07
-1.83616730602e-07
-1.05304908401e-07
-5.40548259017e-08
-2.58552451535e-08
-1.19746939e-08
-5.30924300613e-09
-2.21419274857e-09
-8.49963411122e-10
-2.91565025005e-10
-8.52893756272e-11
-1.97096123899e-11
-3.12624052282e-12
-1.73494176793e-06
-1.610378066e-06
-1.44546121967e-06
-1.24888085702e-06
-1.03207816449e-06
-8.08273739926e-07
-5.92204322071e-07
-3.97680080076e-07
-2.34688300883e-07
-1.11770181922e-07
-4.31533858425e-08
-1.6904190352e-08
-7.12202695697e-09
-2.9967848113e-09
-1.20078190874e-09
-4.4314236987e-10
-1.45168569799e-10
-4.00454536524e-11
-8.51995943938e-12
-1.18147816379e-12
-0.000201230197003
-5.53132891853e-05
-0.000195805191463
-9.74644554715e-05
-0.000133452041861
-4.18830858325e-05
-8.05487991837e-05
-1.94538475039e-05
-4.79649353106e-05
-1.05789833078e-05
-2.81498094174e-05
-6.28172246046e-06
-1.58056835407e-05
-3.71021679259e-06
-8.47093124808e-06
-2.07630112453e-06
-4.38487831854e-06
-1.09705306018e-06
-2.22403519848e-06
-5.58725954295e-07
-1.11969507307e-06
-2.80343723461e-07
-5.66359521854e-07
-1.41072992032e-07
-2.9058047604e-07
-7.22572445343e-08
-1.52133152246e-07
-3.79431233035e-08
-8.13449898187e-08
-2.04294399221e-08
-4.42880598185e-08
-1.12296644394e-08
-2.44150072013e-08
-6.25836757132e-09
-1.35540373513e-08
-3.51544817234e-09
-7.53018921777e-09
-1.97648519807e-09
-4.16556701716e-09
-1.10667304149e-09
-2.2827283332e-09
-6.13885560166e-10
-1.23351130182e-09
-3.35863075161e-10
-6.54486584447e-10
-1.80168913254e-10
-3.3903963483e-10
-9.42566236317e-11
-1.71624858791e-10
-4.81066257049e-11
-8.47249630601e-11
-2.38865708624e-11
-4.05671572822e-11
-1.13911923414e-11
-1.85966037767e-11
-5.11535721771e-12
-7.99442184901e-12
-2.09109079894e-12
-3.10421160768e-12
-7.42516822982e-13
-1.02934057888e-12
-2.21570224832e-13
-2.89573886275e-13
-5.94152587088e-14
)
;

boundaryField
{
    inletfuel
    {
        type            calculated;
        value           nonuniform 0();
    }
    inletair
    {
        type            calculated;
        value           nonuniform 0();
    }
    outlet
    {
        type            calculated;
        value           uniform 0;
    }
    axis
    {
        type            empty;
    }
    leftside
    {
        type            calculated;
        value           uniform 0;
    }
    burnerwall
    {
        type            calculated;
        value           nonuniform 0();
    }
    front
    {
        type            wedge;
    }
    back
    {
        type            wedge;
    }
    procBoundary1to0
    {
        type            processor;
        value           uniform 0;
    }
}


// ************************************************************************* //
