/*--------------------------------*- C++ -*----------------------------------*\
  =========                 |
  \\      /  F ield         | OpenFOAM: The Open Source CFD Toolbox
   \\    /   O peration     | Website:  https://openfoam.org
    \\  /    A nd           | Version:  7
     \\/     M anipulation  |
\*---------------------------------------------------------------------------*/
FoamFile
{
    version     2.0;
    format      ascii;
    class       volScalarField;
    location    "0.05";
    object      ed::R_H2O;
}
// * * * * * * * * * * * * * * * * * * * * * * * * * * * * * * * * * * * * * //

dimensions      [1 -3 -1 0 0 0 0];

internalField   nonuniform List<scalar> 
815
(
0.154855229278
0.15909851586
0.170050359875
0.207191018978
0.210820449574
0.219273481494
0.933246704695
0.934955399604
0.949265326982
6.2604543646
6.27822626287
6.34010526083
10.523052381
10.5319939094
10.5144056598
2.15629136815
2.17428235583
2.14776227437
0.313003026303
0.314183298426
0.31080051213
0.0657922686497
0.0656852200535
0.0650982353034
0.0214989111349
0.0214169923058
0.0212431655494
0.00842635466722
0.00839842613084
0.00833642146897
0.00345663453229
0.0034449123412
0.00342265131129
0.00142372148836
0.00141996970198
0.00141239850127
0.000586698940202
0.000585409035591
0.000582848382275
0.000240693311444
0.000240254646126
0.00023950072862
9.78674645874e-05
9.77915138894e-05
9.76052516306e-05
3.93669064798e-05
3.93460554563e-05
3.9316365495e-05
1.567475735e-05
1.56828423859e-05
1.56913469475e-05
6.33654694591e-06
6.34166023993e-06
6.35149360339e-06
2.7772309173e-06
2.78020297683e-06
2.78708388491e-06
1.50527891132e-06
1.50705886315e-06
1.51132394629e-06
1.11967879038e-06
1.12070550995e-06
1.12296553502e-06
1.07089306836e-06
1.07101948525e-06
1.07144062424e-06
1.14421671447e-06
1.14347620102e-06
1.14190374076e-06
1.25215656287e-06
1.25032254897e-06
1.24647242666e-06
1.35237074704e-06
1.34931399389e-06
1.34289649974e-06
1.41932682611e-06
1.41496556057e-06
1.40585205332e-06
1.43669039432e-06
1.43103735862e-06
1.41936208447e-06
1.39792673012e-06
1.39128480876e-06
1.37763599662e-06
1.32622425523e-06
1.31890167871e-06
1.30403128604e-06
1.4374593274e-06
1.42978825556e-06
1.41338838668e-06
2.08419497399e-06
2.07431672465e-06
2.05262656999e-06
0.185693917939
0.231870142387
0.971467964871
6.45643277663
10.3922197292
2.09431425501
0.303953043347
0.0640976994454
0.0209753378405
0.00824725315733
0.00339029104454
0.00140164833728
0.000579207585048
0.00023841512785
9.73361825476e-05
3.92672169683e-05
1.57007603347e-05
6.36497390472e-06
2.79731673809e-06
1.51814665023e-06
1.12706193323e-06
1.07309027123e-06
1.1410371046e-06
1.24274831928e-06
1.33591840537e-06
1.3954097562e-06
1.40561175538e-06
1.36128578589e-06
1.28597284639e-06
1.39226176779e-06
2.02188242977e-06
0.146076545117
0.0812333326715
0.0434881021328
0.0221501241441
0.0104019930841
0.00376120627984
0.000792346091637
0.222900282657
0.312843236229
0.473461230896
0.757713357198
1.26391674034
2.11324683637
2.9586688768
3.23879292627
3.15241945163
2.28139630511
1.14733561055
0.602405296806
0.322466158935
0.169381745941
0.0858463461395
0.0428435438655
0.0215114129207
0.0101948128128
0.00365883450575
0.00076945761018
0.261705847023
0.332904189601
0.454446061174
0.652034713004
0.963248141737
1.42234852066
1.95007960178
2.53156309304
3.59880636344
2.20944547016
1.10567055504
0.558195964221
0.275500485297
0.131032103028
0.061491874766
0.0301878459773
0.0158479428213
0.00790279485048
0.00283153522805
0.00061268079237
1.02935835688
1.17860603157
1.43341977803
1.84472894383
2.49857774699
3.54709406629
5.24640987673
5.40652172706
2.81575001216
1.40284352128
0.678419120815
0.320350385035
0.147959845568
0.0677113044294
0.0322478807
0.0168880861033
0.00956938959077
0.00507255939364
0.00187699201979
0.000421975223632
6.73967435618
7.45981145794
8.66169437891
10.5424696709
11.1287678363
7.10786409842
4.06744729813
2.18133415411
1.11379333422
0.547807875489
0.262857560997
0.124532920203
0.0590638617817
0.0287992488466
0.0150816403409
0.00864128369323
0.00526242769892
0.00296021842728
0.0011704073077
0.000256917885282
9.80137394497
8.460684817
6.71921911374
4.85826935895
3.17112273253
1.89180799551
1.05731111208
0.57319513303
0.3035004646
0.158011701675
0.0814737893228
0.0421547928912
0.0221740240066
0.0120829432687
0.00701727517163
0.00435886062636
0.00281626383937
0.00166430340603
0.000690746492829
0.00014231143902
1.95310219571
1.64376474571
1.26932156864
0.892653166593
0.582128875262
0.361527805243
0.219252492868
0.131573635285
0.0780005472451
0.0456379389563
0.0264341516311
0.015316300363
0.00895786264183
0.00537704053631
0.00339433458841
0.00224973004841
0.00151123729675
0.000912932044274
0.00037676381794
7.34892690194e-05
0.286125945543
0.247964846698
0.201696595253
0.154028726651
0.112066083505
0.0786972038597
0.0541610165236
0.0365877444161
0.0242094187551
0.0156575034644
0.00993774171626
0.00625700956006
0.00395306763222
0.0025559803794
0.00171965656969
0.00118982948062
0.00081040412488
0.000482918682702
0.000191057320674
3.6084877007e-05
0.0615381701474
0.0560003306497
0.0486698420902
0.0403048717355
0.0319699114232
0.0244407070485
0.0181529685867
0.0131126960146
0.00921740519521
0.00630711801509
0.00422766029164
0.00281136631619
0.00188019563276
0.00128524679965
0.00090381286078
0.000640437562278
0.000433124898036
0.000247015686178
9.20464713905e-05
1.71998320851e-05
0.0203363623879
0.0189453919343
0.0169903706516
0.0146062503148
0.0120450092126
0.00956043655804
0.00734090342228
0.00546801661911
0.00396213412216
0.00280126120687
0.00194759436477
0.00134849422661
0.000943090801674
0.000673423316549
0.000488789601832
0.000349358950204
0.000230836335468
0.000123994587783
4.32045269284e-05
8.08833939006e-06
0.00803475177533
0.0075694330978
0.00689155028819
0.00603359530312
0.00507598044041
0.00411194625247
0.00321973640292
0.0024460313826
0.001810497485
0.00131269494676
0.000941170182678
0.000676164251106
0.000492817490638
0.000365448510928
0.000271244095745
0.000193250051116
0.00012320818301
6.18665784918e-05
2.01945323141e-05
3.80801305146e-06
0.00331554793655
0.00315137501281
0.00290448207424
0.00258194804137
0.0022104717745
0.0018244905545
0.00145602789603
0.00112797408155
0.000852924752218
0.000634544671569
0.000469959315496
0.000351186686849
0.000266891564656
0.000204792941175
0.000154271339081
0.000108507095539
6.61228720694e-05
3.09938913099e-05
9.55374559227e-06
1.81606819133e-06
0.0013761849666
0.0013195760381
0.00123121875735
0.00111180302102
0.000969584591416
0.000816687884508
0.000665723442573
0.000527306673836
0.000408725398335
0.000313442441097
0.00024119642047
0.000188485910148
0.0001496369505
0.000118440437632
8.99238495234e-05
6.18709340188e-05
3.57744305348e-05
1.56796563082e-05
4.61575353127e-06
8.84390261436e-07
0.000570769180143
0.000551946379947
0.000521241232987
0.000478136563752
0.000424938070185
0.000365676106419
0.00030512335138
0.00024799431667
0.000198155232042
0.00015786225262
0.000127302477491
0.000104676235819
8.68860301125e-05
7.06496509389e-05
5.36588228485e-05
3.57883222395e-05
1.95483398123e-05
8.04470787461e-06
2.28616227873e-06
4.41974928287e-07
0.000235821703954
0.000229845594044
0.000219530097547
0.00020442650889
0.000185113379456
0.000162880533117
0.000139491423047
0.00011696666229
9.71863924411e-05
8.13272883927e-05
6.94220630882e-05
6.03411946759e-05
5.22642483803e-05
4.33884500329e-05
3.26905582917e-05
2.09630808815e-05
1.07885025049e-05
4.19483360187e-06
1.16223998029e-06
2.26825822679e-07
9.66192278885e-05
9.48565479494e-05
9.15629417242e-05
8.6509010741e-05
7.98337535939e-05
7.1959796164e-05
6.35483611544e-05
5.54497750716e-05
4.85022159675e-05
4.31915503693e-05
3.93519307658e-05
3.61594948768e-05
3.24810367005e-05
2.73276862826e-05
2.02506449607e-05
1.23847521992e-05
6.003615687e-06
2.22273928865e-06
6.0477805766e-07
1.19133397997e-07
3.91103872976e-05
3.86670806174e-05
3.77187672373e-05
3.61775765933e-05
3.40902150709e-05
3.16177079291e-05
2.90293975461e-05
2.66864874455e-05
2.49289500991e-05
2.38800767133e-05
2.32679874552e-05
2.24574850703e-05
2.07312197965e-05
1.7533340247e-05
1.26642900552e-05
7.33856529264e-06
3.35789327937e-06
1.19335403657e-06
3.20403198798e-07
6.36603599212e-08
1.56944585447e-05
1.5633298121e-05
1.54286419858e-05
1.50601706101e-05
1.45593411939e-05
1.40068937687e-05
1.35301868242e-05
1.32894859454e-05
1.34061537566e-05
1.38444583729e-05
1.43145850276e-05
1.43352513304e-05
1.34584592571e-05
1.13546757765e-05
7.92204817117e-06
4.33323480861e-06
1.88008682962e-06
6.4602025572e-07
1.71734079852e-07
3.43926998052e-08
6.38676184796e-06
6.41801007864e-06
6.42487715628e-06
6.41217838829e-06
6.40708836257e-06
6.46020505545e-06
6.64185304238e-06
7.02747059519e-06
7.64724320166e-06
8.41436884834e-06
9.07824450475e-06
9.29385509808e-06
8.79147260353e-06
7.34586446083e-06
4.90676251025e-06
2.53244418078e-06
1.04882456462e-06
3.50698197967e-07
9.25429902085e-08
1.86674010457e-08
2.81836126762e-06
2.85988044698e-06
2.91012832032e-06
2.98011022206e-06
3.09205072414e-06
3.27974534117e-06
3.58434324418e-06
4.04189257303e-06
4.64884003964e-06
5.31855757333e-06
5.86139564207e-06
6.04751193278e-06
5.72254972544e-06
4.69819519931e-06
2.98090847188e-06
1.45633292597e-06
5.80127398597e-07
1.89878607857e-07
4.98447954324e-08
1.01218639601e-08
1.53347276279e-06
1.56560739545e-06
1.61071654356e-06
1.67895140055e-06
1.78644262107e-06
1.95458874469e-06
2.20660060908e-06
2.55864311251e-06
2.99804548265e-06
3.45775713315e-06
3.80939063955e-06
3.91356459902e-06
3.68388440798e-06
2.94132199332e-06
1.76232363321e-06
8.20246807164e-07
3.1675981733e-07
1.02034184748e-07
2.66971010149e-08
5.45486768896e-09
1.13671215048e-06
1.15632707344e-06
1.18434566128e-06
1.22809478523e-06
1.29787007885e-06
1.40563147456e-06
1.56296293953e-06
1.77611772942e-06
2.0337255319e-06
2.29224551025e-06
2.47443378342e-06
2.50611463203e-06
2.33281539131e-06
1.78673353394e-06
1.00864803211e-06
4.50956963129e-07
1.70107072619e-07
5.41867204402e-08
1.41547692615e-08
2.90813768873e-09
1.07738850912e-06
1.08441604209e-06
1.09302085659e-06
1.10766668741e-06
1.13400235298e-06
1.17749903193e-06
1.24290153001e-06
1.33260278019e-06
1.44055180995e-06
1.54394163817e-06
1.60354039062e-06
1.58746389931e-06
1.4470383043e-06
1.04564332667e-06
5.57497593837e-07
2.41525295834e-07
8.95979808378e-08
2.83424152493e-08
7.40188890633e-09
1.52781501473e-09
1.13973088807e-06
1.13377625919e-06
1.12223169285e-06
1.10734917261e-06
1.09175402343e-06
1.07735386006e-06
1.06599996069e-06
1.06002884118e-06
1.05955087742e-06
1.05742204119e-06
1.04014862431e-06
9.98311024815e-07
8.74803050529e-07
5.87194250383e-07
2.97583513915e-07
1.25921958135e-07
4.6199491373e-08
1.45598100002e-08
3.804103968e-09
7.87384551584e-10
1.23512560506e-06
1.21514731717e-06
1.18259337887e-06
1.13844768503e-06
1.0840453467e-06
1.02038745502e-06
9.49412567282e-07
8.7543506441e-07
8.03891273613e-07
7.38181208249e-07
6.80328298703e-07
6.2613076205e-07
5.11839818476e-07
3.1643168481e-07
1.5375659045e-07
6.39689488164e-08
2.33145399082e-08
7.3364847765e-09
1.91779754858e-09
3.97148062304e-10
1.32119651347e-06
1.28611953504e-06
1.23205338512e-06
1.15970810478e-06
1.07076115669e-06
9.67352907822e-07
8.53308738588e-07
7.35497426515e-07
6.23135068388e-07
5.2591169495e-07
4.52540453926e-07
3.90769156763e-07
2.88120498848e-07
1.64377443977e-07
7.72499831694e-08
3.17554742183e-08
1.15301937504e-08
3.62528208374e-09
9.4705963913e-10
1.95727866638e-10
1.37319734092e-06
1.32289049426e-06
1.24826772048e-06
1.15069199928e-06
1.03340287911e-06
9.00842388033e-07
7.59311598778e-07
6.17845951036e-07
4.87869679149e-07
3.81904303972e-07
3.06851901462e-07
2.39655374622e-07
1.56361706145e-07
8.31551953196e-08
3.80634912762e-08
1.55074920503e-08
5.61685574831e-09
1.76513504399e-09
4.60580701528e-10
9.44071490791e-11
1.37637179845e-06
1.31250821827e-06
1.22066524178e-06
1.10350694974e-06
9.66373232303e-07
8.16211630894e-07
6.61477086073e-07
5.12597729887e-07
3.81883154896e-07
2.81345970476e-07
2.09283961269e-07
1.42917302874e-07
8.29322502986e-08
4.16266417292e-08
1.86430027978e-08
7.53721812556e-09
2.72272032493e-09
8.53572438823e-10
2.21151182551e-10
4.43581234484e-11
1.32661671808e-06
1.25290963811e-06
1.1496119417e-06
1.02084385628e-06
8.7386908999e-07
7.17586001577e-07
5.61849664687e-07
4.17667967476e-07
2.97001033948e-07
2.0802359525e-07
1.4042515532e-07
8.34704726643e-08
4.39905323451e-08
2.10607086912e-08
9.23968258947e-09
3.69905770439e-09
1.32739669949e-09
4.12567959601e-10
1.04986550356e-10
2.01392948642e-11
1.24782576737e-06
1.16827563982e-06
1.05927691687e-06
9.26213125295e-07
7.77568722469e-07
6.23250267754e-07
4.73628813159e-07
3.3950598349e-07
2.31343540438e-07
1.52579426742e-07
9.197419908e-08
4.8728927192e-08
2.38960886311e-08
1.09943670504e-08
4.71564058081e-09
1.85828468449e-09
6.56686636974e-10
1.99910644487e-10
4.90860825625e-11
8.71649159541e-12
1.34642024348e-06
1.25152071194e-06
1.12488703416e-06
9.73721028001e-07
8.07529446156e-07
6.36955816705e-07
4.73027923951e-07
3.26581516988e-07
2.06753885687e-07
1.18574156737e-07
6.08661599554e-08
2.91132098004e-08
1.34835997004e-08
5.97824946547e-09
2.49319848428e-09
9.57065499233e-10
3.28304515893e-10
9.60365090966e-11
2.21931788767e-11
3.52017146567e-12
1.95355810325e-06
1.81329839322e-06
1.6276007246e-06
1.40624968706e-06
1.16212814672e-06
9.10122600922e-07
6.66826733639e-07
4.47790904164e-07
2.64260876303e-07
1.25854105672e-07
4.85910525377e-08
1.90342515532e-08
8.01945848013e-09
3.3744033143e-09
1.35208989224e-09
4.98981800748e-10
1.63460953624e-10
4.5091496399e-11
9.59354147201e-12
1.33035372331e-12
0.000226586787661
6.22831995302e-05
0.00022047818867
0.000109745744949
0.000150268050831
4.71606847155e-05
9.06985826621e-05
2.19051855994e-05
5.40088951572e-05
1.19120185744e-05
3.16969072443e-05
7.07326899487e-06
1.77973242268e-05
4.17773334757e-06
9.53833534224e-06
2.33793142893e-06
4.9374075426e-06
1.23529039131e-06
2.50428116045e-06
6.2912982769e-07
1.26078547626e-06
3.15669241923e-07
6.3772528492e-07
1.58849300782e-07
3.27195906e-07
8.13622267836e-08
1.71303128345e-07
4.27242558583e-08
9.15950995917e-08
2.30037103506e-08
4.98687043767e-08
1.26446906564e-08
2.74914905161e-08
7.04697120565e-09
1.5261952873e-08
3.95842234626e-09
8.47905240239e-09
2.22553790912e-09
4.69046128892e-09
1.24612256608e-09
2.57037009269e-09
6.91239978597e-10
1.38894344679e-09
3.78184469468e-10
7.36957051903e-10
2.02871616182e-10
3.81761300689e-10
1.06133701018e-10
1.93250943523e-10
5.41684396578e-11
9.5400976098e-11
2.6896467034e-11
4.56789387975e-11
1.2826572347e-11
2.09399224069e-11
5.75993253976e-12
9.00178200365e-12
2.35458471887e-12
3.49536673362e-12
8.36079794233e-13
1.15904560375e-12
2.4948981929e-13
3.26062477992e-13
6.69020495401e-14
)
;

boundaryField
{
    inletfuel
    {
        type            calculated;
        value           nonuniform 0();
    }
    inletair
    {
        type            calculated;
        value           nonuniform 0();
    }
    outlet
    {
        type            calculated;
        value           uniform 0;
    }
    axis
    {
        type            empty;
    }
    leftside
    {
        type            calculated;
        value           uniform 0;
    }
    burnerwall
    {
        type            calculated;
        value           nonuniform 0();
    }
    front
    {
        type            wedge;
    }
    back
    {
        type            wedge;
    }
    procBoundary1to0
    {
        type            processor;
        value           uniform 0;
    }
}


// ************************************************************************* //
