/*--------------------------------*- C++ -*----------------------------------*\
  =========                 |
  \\      /  F ield         | OpenFOAM: The Open Source CFD Toolbox
   \\    /   O peration     | Website:  https://openfoam.org
    \\  /    A nd           | Version:  7
     \\/     M anipulation  |
\*---------------------------------------------------------------------------*/
FoamFile
{
    version     2.0;
    format      ascii;
    class       volScalarField;
    location    "0.05";
    object      epsilon;
}
// * * * * * * * * * * * * * * * * * * * * * * * * * * * * * * * * * * * * * //

dimensions      [0 2 -3 0 0 0 0];

internalField   nonuniform List<scalar> 
815
(
1799.39435986
1789.89651432
1771.31904304
1941.48570915
1935.48390084
1926.44909323
2067.26850279
2062.2156932
2052.06554793
1115.37588719
1119.35218405
1113.5279227
288.524249407
291.577000076
290.250298838
67.593944715
68.298927579
68.199862435
25.0109526204
25.1486210702
25.2119703175
16.0477223618
16.1049390548
16.1971248798
13.34790146
13.3975201987
13.4892211019
11.9874820898
12.0339119374
12.1209253708
11.037663425
11.0835130453
11.1686102845
10.2754640621
10.3174202575
10.3968358435
9.58408597012
9.62583549678
9.70515615819
8.95072806262
8.99025743987
9.06590499613
8.34592531926
8.38312824125
8.45513094463
7.75869946418
7.79359199866
7.86149727468
7.18612286252
7.21758919852
7.27953338647
6.61869777811
6.64675293559
6.70271598727
6.05752170293
6.08186703915
6.13118683949
5.50628935589
5.52654032687
5.56840490996
4.96935903556
4.98554182381
5.01981811208
4.45569200842
4.46786710793
4.49428079083
3.97476114556
3.98301482795
4.00162623183
3.53586275376
3.54032495548
3.55170025351
3.14673152008
3.14787299596
3.15280328667
2.8119717016
2.81043049474
2.81000447146
2.5325132921
2.52901023129
2.52446370457
2.30914679131
2.30433701692
2.29684712994
2.18948133342
2.1836576793
2.17391850672
2.76831786336
2.76190249753
2.75130276223
8.47791535695
8.47214977748
8.46204788744
1748.37586085
1919.5901562
2043.64011547
1103.07401986
287.008373142
67.7184777032
25.2318696405
16.3048493094
13.6059132485
12.2363574843
11.2821004077
10.5062042881
9.81340175666
9.17065842063
8.55594309692
7.95735813084
7.36890241601
6.78458799531
6.20459372763
5.63232186886
5.07377614576
4.53802914208
4.03529615683
3.57579306485
3.16832225356
2.81834300903
2.52722629796
2.29561292538
2.16987602563
2.74583476996
8.45541302976
64.4913415041
46.86554747
35.7872947848
28.3574579657
19.5297230516
8.73544069775
5.5398319141
1698.8028951
1614.09668767
1524.08510866
1418.984596
1246.2155014
937.156638573
649.49220047
474.122354557
362.98482875
272.655458349
190.740272201
126.248473404
82.4468773797
54.8153274558
38.7087895737
31.4070261946
29.0854319588
23.2536321227
10.6062637222
7.68083636475
1906.25786221
1881.5705727
1836.94025741
1738.71269656
1540.65541684
1220.44441458
868.448670357
577.430919774
369.409451905
232.785472763
144.122848764
88.6751105628
55.3408507535
36.2195404926
26.5339809292
23.7388110922
25.188624336
22.0677000591
10.6497412108
10.9023935538
2024.66913422
1962.46318335
1831.76474703
1601.66726413
1271.7203555
896.469367313
567.342951897
340.545079109
203.164041452
122.269808855
74.6975438934
46.9185703386
30.9799927662
22.3297083903
18.6585467127
18.6243784542
20.4533887689
18.1286538334
10.6414338579
16.389505178
1073.85083465
984.239662356
844.737898235
667.01789586
480.638512272
315.363365313
193.859869878
118.61985327
75.018403342
49.1481159518
33.3465875952
23.7428060344
18.1827332842
15.425915435
14.8071179982
15.56569796
16.5963213109
15.1110318729
12.5327363428
24.8779974408
277.027440018
248.015663232
207.691152544
161.410785421
116.913006857
81.4174789136
56.3556112609
39.8260087533
28.9781128073
21.8078546237
17.1130357239
14.233985051
12.7507077608
12.3629015249
12.7827439317
13.6369997144
14.4309571457
14.5276741618
16.8693643663
35.9263293581
66.0179968708
60.7969476666
53.4395387946
44.6990623341
36.0942899622
28.6179543547
22.6914825637
18.2366022472
14.99388869
12.7370502554
11.305223244
10.5811512126
10.4523542969
10.8145991402
11.5441525189
12.569664369
13.8821212185
16.0382176019
22.8051386959
46.941425499
25.1387345928
24.450403184
23.104662494
21.0850923391
18.6350918391
16.0880986079
13.7776903465
11.8879475155
10.4840191054
9.5575115818
9.07327972482
8.98238459482
9.23953759231
9.81362365237
10.7245754395
12.1264576956
14.4024480863
18.7930696181
29.2522066994
55.3030099325
16.49309947
16.5908020647
16.2746315271
15.4062503035
14.0641023131
12.4882013527
10.9605437029
9.6866819744
8.75923130177
8.18649713122
7.94070025176
7.98965167216
8.32187109188
8.97782779129
10.0957353368
12.005330751
15.4062281299
21.9641320216
35.2275672674
60.0912764662
13.8283458382
14.0629239634
13.9707489876
13.3920544941
12.3560763198
11.0564399689
9.74875179005
8.63870341466
7.82475461428
7.3174988026
7.0916747109
7.13007011095
7.45680569414
8.17733930353
9.53750092456
12.042634636
16.6765681307
25.3249920155
40.4595237361
62.1901938953
12.4603895299
12.7346214642
12.7345531502
12.291173889
11.4012156116
10.2223109918
8.99150736296
7.91663486394
7.10539140509
6.57449969494
6.30421177661
6.2912989073
6.5919364419
7.37116536258
8.98674227057
12.1407390834
18.1223097667
28.8756473603
45.1257535791
63.022125371
11.5058789513
11.8017346246
11.8584183128
11.501174546
10.7027335946
9.59267789437
8.39291209475
7.31342214957
6.47195050273
5.89307339119
5.56289800164
5.48946443712
5.755678013
6.58656000673
8.46799386915
12.350702145
19.8852005237
32.8655139185
49.6975769888
63.7986397795
10.7266596695
11.0358119166
11.1312163329
10.8353906837
10.1045992087
9.0462105632
7.86746370844
6.77770571562
5.90314328537
5.27644771938
4.88902144118
4.75695958362
4.98412274713
5.85471330842
8.00491703725
12.7147571494
22.0747768585
37.4601523252
54.4791418698
65.1920071557
10.0339899706
10.3519089683
10.474615178
10.2259936492
9.55174011284
8.54159911556
7.38812739198
6.29654209676
5.39868785685
4.73472966742
4.30099674271
4.11902823516
4.30906118885
5.21471559958
7.65569898166
13.3528522473
24.8645321147
42.7612045424
59.6318733398
67.4497134649
9.3875289078
9.70767211107
9.84747071024
9.63496082655
9.010544459
8.05044722091
6.9326819698
5.85485710854
4.95058432227
4.26596098741
3.80202674216
3.58393671853
3.74531606934
4.69461427098
7.47978092322
14.3713070187
28.3989907376
48.7728511141
65.1997258398
70.5725440058
8.76727189438
9.08317170996
9.23030949916
9.04385799224
8.46345952664
7.55576480283
6.4849579625
5.43822043937
4.54677306296
3.86041994902
3.38463633955
3.14798540901
3.29972044965
4.32100092333
7.54501619982
15.9209413635
32.8107332596
55.4807511737
71.2334540297
74.4967781139
8.16047383869
8.46499222152
8.610000235
8.44035721918
7.89863834767
7.04539936962
6.0321391764
5.03328649097
4.17391231771
3.50510056234
3.03593048433
2.8013385771
2.96770217131
4.10803570184
7.92202998032
18.1490406008
38.1961730339
62.8741227114
77.7592223685
79.1291793656
7.56005285852
7.8458329088
7.97991102022
7.81897907715
7.31144897737
6.51450654502
5.56789140773
4.63167926692
3.82116045598
3.18792091133
2.74481809726
2.53235137901
2.74247441517
4.07557160672
8.70879686126
21.2462927301
44.6482405523
70.9415264446
84.8047191832
84.4307698372
6.96136717737
7.22209361162
7.33812507727
7.17999059333
6.70375428923
5.96501156789
5.09167920701
4.23002507882
3.48507554907
2.90372576126
2.5020587366
2.3302043444
2.61968172172
4.25584399555
10.0403333957
25.4345017945
52.2457124826
79.7162630181
92.4076858998
90.3926298112
6.36432153595
6.59467443344
6.68753076502
6.52845248442
6.08183569154
5.40317880413
4.61084281849
3.83453189982
3.16665368649
2.64921276939
2.30136622965
2.18791564173
2.60386237527
4.70946060451
12.1149848071
30.9400661573
61.0427590534
89.2686211433
100.634923642
97.0585875168
5.7724979066
5.96863478645
6.03515816986
5.8734636476
5.45777911546
4.84309518519
4.13712740697
3.45315578483
2.86993692241
2.42421405775
2.13953995259
2.10429088377
2.71634944574
5.54775176529
15.2100875572
37.9991622814
71.1218188187
99.7093892048
109.592364841
104.490307397
5.19292616843
5.35270843874
5.39231553988
5.22934589677
4.84740054331
4.30029295984
3.68418947852
3.09581675875
2.60050818968
2.23032848093
2.01654083543
2.08696459294
3.00892850479
6.96811154814
19.6889737188
46.8485372152
82.6146265793
111.204839112
119.432943142
112.774369454
4.63527547057
4.75879956194
4.77331407071
4.61226304954
4.26755586837
3.79058590902
3.26521274196
2.77191736207
2.36375017601
2.07008340659
1.93674753056
2.16016603842
3.5907052761
9.29765474585
26.0150897066
57.7554537879
95.7279968714
123.982532028
130.337074281
121.981251383
4.11085392323
4.20029946989
4.19348460244
4.03865609768
3.73442489408
3.32827296665
2.89139908798
2.4890910954
2.16421692065
1.94749896993
1.91303849584
2.38123717805
4.67808093452
13.0507773204
34.7384314446
71.0281290273
110.745517502
138.311696445
142.485388701
132.104188698
3.63108174392
3.69036888283
3.66730529024
3.5231997189
3.26153543778
2.92450281067
2.5708861936
2.25265821291
2.00586094532
1.87041346448
1.97670883001
2.87631206582
6.67266757529
18.9597610969
46.4414247969
86.9933115134
127.963187243
154.422342832
155.97674417
143.017059973
3.20565950671
3.23998930975
3.20628067796
3.07681621677
2.85806061444
2.58606657589
2.30810508987
2.0655864515
1.89309868932
1.85532213314
2.19621781717
3.89779633543
10.229679471
27.8779025673
61.5872374441
105.882192062
147.554808556
172.388844517
170.704920474
154.219410723
2.84080075732
2.85609779476
2.81721695247
2.70523409977
2.52786557248
2.3148637495
2.10358202618
1.92877065554
1.83266903804
1.93559281432
2.70888051555
5.89460563295
16.2234783557
40.497066071
80.2866127321
127.56981059
169.257379927
191.806657513
186.102848534
164.443555965
2.53828469101
2.54045781681
2.50118605543
2.40813996764
2.26903865681
2.10772461822
1.95393394203
1.84112969649
1.83458949673
2.16792902989
3.7423255064
9.47304240259
25.3684427604
56.8124651674
101.866077992
151.088972577
191.934167557
211.526648294
200.828684742
171.376553032
2.29862956657
2.29286044093
2.25673530074
2.18256685474
2.07730509818
1.95971456309
1.85466768349
1.80095595751
1.90927898168
2.61559045317
5.5296269771
14.9965885795
37.3864710307
75.3653315783
124.216045547
174.083115224
213.125443399
228.990105315
212.179338222
171.791109574
2.1674251007
2.15706012416
2.12521481772
2.06741982262
1.98953052265
1.90627777813
1.8397953512
1.83874104487
2.07631097333
3.27196403498
7.95651527143
21.7603809016
50.2264480986
92.9652206237
143.578618772
192.350592219
228.194255062
239.310742765
215.788439212
163.011558212
2.73900345035
2.72114093751
2.68654275596
2.63380553375
2.568241494
2.5019651306
2.45455047281
2.48055232577
2.79957736732
4.39536309893
10.6891859526
28.184697177
60.8168018175
105.485707295
154.8706744
199.624584877
229.701857884
234.689450226
205.908891175
145.867477324
8.44048439646
8.40036698695
8.34077296441
8.26447089146
8.1785753629
8.09533227411
8.0342592879
8.05222352131
8.38525372595
10.1192340853
17.0918656929
36.0627922915
69.1470529095
110.808760261
153.414435236
188.834871572
209.056364807
207.662864898
179.504926858
128.91883784
10.2655723426
8.34830389308
16.6329645619
46.9368778589
24.8280218097
61.8993083757
34.7822657667
79.9392858437
45.2713329095
102.485593205
54.9917673208
128.199453646
62.9589933754
154.784739913
69.0825662245
181.546442551
74.0186381919
208.371484115
78.60902925
236.341499259
83.5587590333
266.095913904
89.309556607
298.352823542
96.1231891694
333.402357145
104.041793381
371.476932917
113.039595832
412.69643155
123.065870646
457.16059034
134.122110071
504.917581855
146.215945599
555.940355183
159.403105166
610.228020403
173.721278703
667.656984186
189.228243749
727.935092676
205.902651594
790.578887346
223.626051508
854.524650133
242.10372022
918.291238293
261.308072329
979.052946334
279.322443989
1032.71484596
293.721280461
1072.564627
299.532747407
1090.11243481
292.245559649
1078.87197168
269.898579561
1040.41216431
237.486865386
985.06877338
207.748155783
901.402998617
)
;

boundaryField
{
    inletfuel
    {
        type            turbulentMixingLengthDissipationRateInlet;
        mixingLength    0.005;
        phi             phi;
        k               k;
        value           nonuniform 0();
    }
    inletair
    {
        type            turbulentMixingLengthDissipationRateInlet;
        mixingLength    0.005;
        phi             phi;
        k               k;
        value           nonuniform 0();
    }
    outlet
    {
        type            inletOutlet;
        inletValue      uniform 200;
        value           nonuniform List<scalar> 
26
(
8.47791535695
8.47214977748
8.46204788744
8.45541302976
8.44048439646
8.40036698695
8.34077296441
8.26447089146
8.1785753629
8.09533227411
8.0342592879
8.05222352131
8.38525372595
10.1192340853
17.0918656929
36.0627922915
69.1470529095
110.808760261
153.414435236
188.834871572
209.056364807
207.662864898
179.504926858
128.91883784
207.748155783
901.402998617
)
;
    }
    axis
    {
        type            empty;
    }
    leftside
    {
        type            epsilonWallFunction;
        value           nonuniform List<scalar> 
32
(
8.34830389308
46.9368778589
61.8993083757
79.9392858437
102.485593205
128.199453646
154.784739913
181.546442551
208.371484115
236.341499259
266.095913904
298.352823542
333.402357145
371.476932917
412.69643155
457.16059034
504.917581855
555.940355183
610.228020403
667.656984186
727.935092676
790.578887346
854.524650133
918.291238293
979.052946334
1032.71484596
1072.564627
1090.11243481
1078.87197168
1040.41216431
985.06877338
901.402998617
)
;
    }
    burnerwall
    {
        type            epsilonWallFunction;
        value           nonuniform 0();
    }
    front
    {
        type            wedge;
    }
    back
    {
        type            wedge;
    }
    procBoundary1to0
    {
        type            processor;
        value           nonuniform List<scalar> 
27
(
2219.27364473
2200.72083294
2162.69261936
2111.0459085
53.8299681026
40.3400103484
29.5456808598
21.0662387645
12.6736539715
5.63115407943
3.94273002657
1995.0030681
1789.08774172
1591.09010895
1430.06605842
1234.06087415
793.304074383
398.984825814
237.740494325
191.334008959
175.731790878
155.696746341
123.85879757
90.50740165
90.50740165
7.49538550907
7.50326692669
)
;
    }
}


// ************************************************************************* //
