/*--------------------------------*- C++ -*----------------------------------*\
  =========                 |
  \\      /  F ield         | OpenFOAM: The Open Source CFD Toolbox
   \\    /   O peration     | Website:  https://openfoam.org
    \\  /    A nd           | Version:  7
     \\/     M anipulation  |
\*---------------------------------------------------------------------------*/
FoamFile
{
    version     2.0;
    format      ascii;
    class       volScalarField;
    location    "0.05";
    object      H2;
}
// * * * * * * * * * * * * * * * * * * * * * * * * * * * * * * * * * * * * * //

dimensions      [0 0 0 0 0 0 0];

internalField   nonuniform List<scalar> 
815
(
0.0797658899951
0.0790097764081
0.0773635036011
0.0741893557398
0.0736390249282
0.0724376649694
0.0595863148189
0.0592282281535
0.0583794717223
0.0278813766242
0.0277837875335
0.0273556132451
0.00645361908564
0.00647232995218
0.00638398246462
0.00121089088366
0.0012165588275
0.00120222546943
0.000246071199861
0.000246356879922
0.000243427651677
6.55162511209e-05
6.5252098554e-05
6.443782278e-05
2.36080821568e-05
2.34691241524e-05
2.31708673088e-05
9.73082847937e-06
9.67038567052e-06
9.54985198482e-06
4.10197594789e-06
4.07663136294e-06
4.02842350868e-06
1.71624635083e-06
1.70683186941e-06
1.68841230116e-06
7.14085653783e-07
7.1026042463e-07
7.03141777083e-07
2.94328628303e-07
2.9300754025e-07
2.90436274873e-07
1.20147750199e-07
1.19688549034e-07
1.18779761704e-07
4.84159308737e-08
4.826494179e-08
4.79570425491e-08
1.93199716685e-08
1.9277679345e-08
1.91814036474e-08
7.82742040333e-09
7.81284859507e-09
7.78277902945e-09
3.43942244073e-09
3.43424630831e-09
3.42490498486e-09
1.86994477728e-09
1.8676647476e-09
1.86386933083e-09
1.39794644303e-09
1.39609333565e-09
1.39270058009e-09
1.34759392735e-09
1.34533766602e-09
1.34065025873e-09
1.45673637922e-09
1.45362896309e-09
1.44698608583e-09
1.61825296583e-09
1.61417207543e-09
1.60532969763e-09
1.78009689276e-09
1.77497928614e-09
1.76382566561e-09
1.90820241547e-09
1.90205329644e-09
1.88862729402e-09
1.97641135586e-09
1.96929788558e-09
1.95380034351e-09
1.96507969575e-09
1.95724825198e-09
1.9402213961e-09
1.85206181054e-09
1.84404505644e-09
1.82656972145e-09
1.53932321756e-09
1.53211047235e-09
1.51644470193e-09
9.28905514166e-10
9.242755103e-10
9.14250735694e-10
0.075098618333
0.0707770360889
0.0571753360928
0.0266833800261
0.00622340178697
0.00117394287374
0.000238108932256
6.31697689194e-05
2.27449701528e-05
9.38204666142e-06
3.96150479648e-06
1.66292539102e-06
6.93304879386e-07
2.86873011513e-07
1.1751147576e-07
4.75212365952e-08
1.90424492494e-08
7.73904148679e-09
3.41164992933e-09
1.85886145451e-09
1.38839305775e-09
1.33457435577e-09
1.43820466861e-09
1.59348250535e-09
1.74872737484e-09
1.87028572288e-09
1.93248673781e-09
1.91667356938e-09
1.80226956981e-09
1.49460813094e-09
9.00275961415e-10
0.000209215660053
0.000119048272025
6.47628026724e-05
3.16229093535e-05
1.26778572777e-05
3.6688594636e-06
6.90943064622e-07
0.0700785793226
0.0604990619806
0.0487083097299
0.0363580770615
0.0253725662757
0.0172130000629
0.0119939756723
0.00851696948942
0.00551610001797
0.0029061023755
0.00149496305989
0.000783050643548
0.000418073248225
0.000224643473985
0.000120831395619
6.4509436281e-05
3.23081996409e-05
1.33180363952e-05
3.71986903327e-06
6.27193003465e-07
0.0670723031615
0.0598911550777
0.0508084349963
0.0408978467385
0.0313722276978
0.0230873936051
0.0161236830024
0.0101530808081
0.00531325209749
0.00260236916109
0.00126519769091
0.0006195250126
0.000308266273069
0.000157568902407
8.33216861427e-05
4.53081706195e-05
2.3871076803e-05
1.04477122359e-05
2.90528161158e-06
4.52311857922e-07
0.0544393790176
0.0488747334069
0.0415404349721
0.033099079672
0.0243992516274
0.0162970529626
0.00964503473891
0.00531186453112
0.00272499063074
0.0013196201109
0.000626951733449
0.000304052149237
0.00015362932755
8.08307407048e-05
4.41958776721e-05
2.5005732014e-05
1.38635498041e-05
6.42197575287e-06
1.84640860675e-06
2.78640662387e-07
0.0251059480922
0.0217177953996
0.017346509559
0.0126745063026
0.00858489288478
0.00534923626411
0.00302884418039
0.00162933965804
0.000850249647926
0.000435894275361
0.0002250455046
0.000119451854795
6.52075031564e-05
3.63437099187e-05
2.08088569294e-05
1.2233189318e-05
7.08035269388e-06
3.46733879124e-06
1.05064546593e-06
1.56957204069e-07
0.00582387565405
0.00497270289295
0.00391627695762
0.00283247906338
0.00187977307676
0.00116965009073
0.000696796088879
0.000407484347925
0.000235203025393
0.000135306571789
7.8260885937e-05
4.56708356286e-05
2.67283066406e-05
1.56939277954e-05
9.40949627091e-06
5.75153391931e-06
3.45716512372e-06
1.7693127088e-06
5.62105636688e-07
8.40979996049e-08
0.00110184680237
0.000949569559553
0.000761763944881
0.000565514974701
0.000394014409818
0.000263473925733
0.000172556087175
0.000112097716721
7.22493854702e-05
4.61188470064e-05
2.90769477638e-05
1.81229747767e-05
1.11715587914e-05
6.8845374201e-06
4.32795398961e-06
2.75378622809e-06
1.69868509414e-06
8.85769492032e-07
2.892560134e-07
4.36598906298e-08
0.000224755523324
0.000197428983854
0.000164137524929
0.000129219724999
9.76068695024e-05
7.16174105794e-05
5.17401653512e-05
3.68380913538e-05
2.57410710861e-05
1.75483190458e-05
1.1657307843e-05
7.59322123225e-06
4.88910051854e-06
3.16323512365e-06
2.08118041974e-06
1.36578175849e-06
8.48951898013e-07
4.3964036589e-07
1.44046258519e-07
2.20455843951e-08
6.01832171726e-05
5.43185120529e-05
4.71348991635e-05
3.93482729433e-05
3.17770113636e-05
2.4942814888e-05
1.91300113005e-05
1.43068526312e-05
1.04041069445e-05
7.33432021005e-06
5.02925684531e-06
3.39084114077e-06
2.27467616448e-06
1.53796063209e-06
1.04895886346e-06
7.01648293944e-07
4.33391825853e-07
2.18035526265e-07
7.00135554243e-08
1.09273393771e-08
2.17961563361e-05
1.99728006317e-05
1.77241341662e-05
1.52269514136e-05
1.26809414167e-05
1.02522398273e-05
8.06058451325e-06
6.15606974134e-06
4.56339011677e-06
3.28460829492e-06
2.31015030655e-06
1.60656404104e-06
1.11890251404e-06
7.86038653802e-07
5.51168544239e-07
3.71229878883e-07
2.24932384038e-07
1.0837534475e-07
3.35491260397e-08
5.35586514941e-09
9.01793093628e-06
8.32447069567e-06
7.46402638713e-06
6.497080629e-06
5.4918279311e-06
4.50950312838e-06
3.59843029829e-06
2.78902371273e-06
2.10064120615e-06
1.54210667359e-06
1.11281706744e-06
7.9955682924e-07
5.78298302957e-07
4.20587095927e-07
3.00638524777e-07
2.01524655597e-07
1.18290912909e-07
5.40402519237e-08
1.60379514499e-08
2.62028968659e-09
3.81830306454e-06
3.54749422432e-06
3.2097986698e-06
2.82704607734e-06
2.42366153091e-06
2.02196855514e-06
1.64073873069e-06
1.29447646455e-06
9.94472383058e-07
7.47994185979e-07
5.56777891611e-07
4.1549108442e-07
3.1273988041e-07
2.34593189302e-07
1.69385279144e-07
1.11672963717e-07
6.27658354584e-08
2.70555877068e-08
7.7248105281e-09
1.2898333471e-09
1.60804443465e-06
1.50468102963e-06
1.37534123285e-06
1.22770770149e-06
1.06996525604e-06
9.09632366649e-07
7.53528934513e-07
6.08065050323e-07
4.79360102935e-07
3.72172335304e-07
2.8820573752e-07
2.25028169965e-07
1.76689930886e-07
1.36063968097e-07
9.82464279253e-08
6.29363879996e-08
3.35406891111e-08
1.36261510447e-08
3.77583866411e-09
6.43122741015e-10
6.72474007288e-07
6.33842159512e-07
5.85565341761e-07
5.30231823718e-07
4.70399586682e-07
4.08370213946e-07
3.46458888469e-07
2.87372980706e-07
2.34199436031e-07
1.89561667082e-07
1.54373850274e-07
1.27101201695e-07
1.04199675501e-07
8.18308268992e-08
5.84117798325e-08
3.5914822782e-08
1.8041341711e-08
6.92900206256e-09
1.88118525949e-09
3.26544927608e-10
2.79189398713e-07
2.65013690968e-07
2.47404368411e-07
2.2725048142e-07
2.05327693398e-07
1.82297770581e-07
1.58928323068e-07
1.3634780288e-07
1.16007084933e-07
9.91249334713e-08
8.58913154984e-08
7.50122885085e-08
6.40611311298e-08
5.08227939329e-08
3.54104452107e-08
2.06869070535e-08
9.76698163155e-09
3.56991997089e-09
9.58022639508e-10
1.69250094575e-10
1.14734431431e-07
1.09648493621e-07
1.03413649271e-07
9.63623493758e-08
8.87478851091e-08
8.07797078673e-08
7.27454943457e-08
6.51410622405e-08
5.8612473843e-08
5.36078005129e-08
4.98841017632e-08
4.62456624817e-08
4.08437334967e-08
3.2367046092e-08
2.1745475172e-08
1.19716855928e-08
5.31838867144e-09
1.86652550483e-09
4.98113936338e-10
8.93739931181e-11
4.6548557845e-08
4.47917124239e-08
4.26957926235e-08
4.04049153984e-08
3.80269593504e-08
3.56625274066e-08
3.34618573481e-08
3.1674891545e-08
3.05831990985e-08
3.02716818867e-08
3.03141120397e-08
2.96265477283e-08
2.67578611446e-08
2.09204459986e-08
1.34083844008e-08
6.92644634344e-09
2.9083187547e-09
9.8906944673e-10
2.63357925366e-10
4.78751690751e-11
1.87201655142e-08
1.81535832278e-08
1.7517599538e-08
1.68876633711e-08
1.63285261788e-08
1.59141652825e-08
1.57507262317e-08
1.59872042335e-08
1.67495485431e-08
1.79743237538e-08
1.92019055796e-08
1.95083299437e-08
1.77689998813e-08
1.35455482225e-08
8.21773723129e-09
3.98411379394e-09
1.59293303201e-09
5.29210730473e-10
1.40824561746e-10
2.58744498792e-11
7.6384479827e-09
7.47744998387e-09
7.32713599606e-09
7.23326030332e-09
7.24279894595e-09
7.41626515875e-09
7.83617943279e-09
8.60028169765e-09
9.762534465e-09
1.12141075918e-08
1.25441813407e-08
1.3012775726e-08
1.17838369778e-08
8.66803164181e-09
4.95662504765e-09
2.265355505e-09
8.70724178611e-10
2.84497748715e-10
7.57210835391e-11
1.40304600917e-11
3.38237808215e-09
3.3471831651e-09
3.33942766426e-09
3.38976696138e-09
3.5336592204e-09
3.81792744355e-09
4.30282542076e-09
5.051702062e-09
6.08346703518e-09
7.28785390645e-09
8.33402940406e-09
8.66563378544e-09
7.69764275382e-09
5.41618491406e-09
2.91757012817e-09
1.26737270658e-09
4.73062749016e-10
1.52848170404e-10
4.07114265503e-11
7.59176474741e-12
1.84886986462e-09
1.84381469188e-09
1.8640098747e-09
1.93126529762e-09
2.07122015139e-09
2.31650089988e-09
2.70660957849e-09
3.27846080513e-09
4.03229979861e-09
4.874133007e-09
5.55807061528e-09
5.6924034065e-09
4.89814317211e-09
3.27312960197e-09
1.66548333595e-09
6.95114830153e-10
2.54406287855e-10
8.16520312429e-11
2.17731219854e-11
4.07929251704e-12
1.38015231861e-09
1.37430958571e-09
1.38699344156e-09
1.43421480399e-09
1.53323386905e-09
1.70367111468e-09
1.96716812448e-09
2.34091344841e-09
2.81601116396e-09
3.32105437211e-09
3.68725094495e-09
3.65774732222e-09
3.01099382598e-09
1.90033779522e-09
9.18864142216e-10
3.72819520529e-10
1.34917450746e-10
4.31694131064e-11
1.15273785699e-11
2.16629054058e-12
1.32235058261e-09
1.30621574109e-09
1.30137576987e-09
1.31973899142e-09
1.37170103012e-09
1.46621984502e-09
1.61120704994e-09
1.81082554336e-09
2.05399183223e-09
2.29305572745e-09
2.42267572021e-09
2.28771253949e-09
1.77818281195e-09
1.05609363326e-09
4.89484119968e-10
1.9524249981e-10
7.03356008431e-11
2.2498860056e-11
6.01648063107e-12
1.13252190635e-12
1.41997814909e-09
1.39042174144e-09
1.36503861796e-09
1.35269641393e-09
1.35852452391e-09
1.38370270107e-09
1.42713166459e-09
1.48635729716e-09
1.55329150213e-09
1.60218508168e-09
1.57553471266e-09
1.38927729195e-09
1.00576086747e-09
5.61620014435e-10
2.52091453407e-10
9.97822533154e-11
3.59561660664e-11
1.15184168463e-11
3.08291682182e-12
5.80085241779e-13
1.56838391721e-09
1.52386762567e-09
1.47621334731e-09
1.43206410681e-09
1.39295652309e-09
1.35541866824e-09
1.31407506007e-09
1.26534496829e-09
1.20729993291e-09
1.1321227747e-09
1.01501372337e-09
8.18310242311e-10
5.44678783818e-10
2.86737260741e-10
1.25952950673e-10
4.98118963583e-11
1.80064471924e-11
5.78035274332e-12
1.54679501456e-12
2.903096146e-13
1.71630235172e-09
1.65575634089e-09
1.58435460334e-09
1.50725643472e-09
1.42419363967e-09
1.33019168316e-09
1.21982036936e-09
1.09232424852e-09
9.52841633191e-10
8.06187566841e-10
6.47528196391e-10
4.67506877612e-10
2.83557582043e-10
1.4159529451e-10
6.13993767607e-11
2.43518031657e-11
8.83752958667e-12
2.84011013028e-12
7.58132480022e-13
1.41651078604e-13
1.83049985342e-09
1.75358553812e-09
1.65790846124e-09
1.54790750323e-09
1.42336141732e-09
1.28062827375e-09
1.11739152564e-09
9.37691865574e-10
7.5256896909e-10
5.73885616616e-10
4.07706834362e-10
2.59717964697e-10
1.43345504222e-10
6.84767658861e-11
2.94722730147e-11
1.17291824102e-11
4.26870719635e-12
1.37119821777e-12
3.64563969549e-13
6.75855176786e-14
1.88594930914e-09
1.79383117464e-09
1.67556198087e-09
1.53566260843e-09
1.37557521428e-09
1.19507894807e-09
9.96624471126e-10
7.89045884243e-10
5.86780485303e-10
4.04117937875e-10
2.52456191669e-10
1.41558889731e-10
7.16295114004e-11
3.30023103929e-11
1.41170142966e-11
5.62528619832e-12
2.0469284384e-12
6.54617615069e-13
1.72216955081e-13
3.13713434373e-14
1.86504306879e-09
1.76119824474e-09
1.6253951503e-09
1.46286732473e-09
1.27774077468e-09
1.0741349117e-09
8.59306819385e-10
6.45430049063e-10
4.47552921624e-10
2.79521440221e-10
1.54179940013e-10
7.70498617191e-11
3.62459391563e-11
1.61915848284e-11
6.86003606419e-12
2.72015907365e-12
9.82804781559e-13
3.10307996891e-13
7.98158164341e-14
1.4003823761e-14
1.74885727324e-09
1.64026348917e-09
1.49679196453e-09
1.32453927161e-09
1.13033442309e-09
9.22157220373e-10
7.10720741733e-10
5.09418393824e-10
3.31777762309e-10
1.89507189011e-10
9.37181785312e-11
4.26963300783e-11
1.89630665531e-11
8.2255602474e-12
3.42717317197e-12
1.3388143003e-12
4.74686768601e-13
1.4577185144e-13
3.58806593796e-14
5.84631526572e-15
1.44666835614e-09
1.34911921691e-09
1.21966473577e-09
1.0642648391e-09
8.90834367667e-10
7.08905313578e-10
5.29908052622e-10
3.65907451544e-10
2.27258625522e-10
1.21764835976e-10
5.58477006747e-11
2.3923838691e-11
1.01969276235e-11
4.29804962979e-12
1.74651079399e-12
6.63517620127e-13
2.26969726995e-13
6.622849043e-14
1.5075952872e-14
2.15972861126e-15
8.69706013744e-10
8.07835844921e-10
7.25614244577e-10
6.27028396115e-10
5.17884552125e-10
4.05171398474e-10
2.96785781242e-10
2.00322285342e-10
1.21667059278e-10
6.42481422762e-11
2.92840268259e-11
1.24148040752e-11
5.2229792678e-12
2.16455425861e-12
8.58124217412e-13
3.14550198911e-13
1.02214893499e-13
2.76748754124e-14
5.62633170232e-15
6.7760522344e-16
1.35382162681e-07
4.81991827481e-08
9.77438172105e-08
2.02537866653e-08
5.52412868943e-08
7.92731539167e-09
2.97369843174e-08
3.32862690773e-09
1.67072623507e-08
1.63445557243e-09
9.55152031838e-09
8.86800384803e-10
5.30478888381e-09
4.86817101557e-10
2.81574228936e-09
2.56691631202e-10
1.43728882868e-09
1.29036062755e-10
7.15097339486e-10
6.28636392206e-11
3.52304976985e-10
3.02789451994e-11
1.74220793681e-10
1.46607189626e-11
8.74538561126e-11
7.23996633634e-12
4.48445743237e-11
3.6725072051e-12
2.35231638307e-11
1.9137419677e-12
1.25776522229e-11
1.02002682253e-12
6.81815766403e-12
5.52247657571e-13
3.72566817872e-12
3.01927656714e-13
2.03967510884e-12
1.65523617214e-13
1.11298794889e-12
9.05364957897e-14
6.02469181612e-13
4.91501674631e-14
3.21868315209e-13
2.63657681592e-14
1.69056077746e-13
1.3895197341e-14
8.67142826804e-14
7.15718501274e-15
4.34243465789e-14
3.60613100136e-15
2.12558796927e-14
1.77342616894e-15
1.00913300179e-14
8.4131259699e-16
4.59266970986e-15
3.78019499909e-16
1.95190493377e-15
1.55660818366e-16
7.4128140242e-16
5.6014153469e-17
2.38154280698e-16
1.701095592e-17
6.62778474919e-17
4.69701731652e-18
)
;

boundaryField
{
    inletfuel
    {
        type            fixedValue;
        value           nonuniform 0();
    }
    inletair
    {
        type            fixedValue;
        value           nonuniform 0();
    }
    outlet
    {
        type            zeroGradient;
    }
    axis
    {
        type            empty;
    }
    leftside
    {
        type            zeroGradient;
    }
    burnerwall
    {
        type            zeroGradient;
    }
    front
    {
        type            wedge;
    }
    back
    {
        type            wedge;
    }
    procBoundary1to0
    {
        type            processor;
        value           nonuniform List<scalar> 
27
(
0.0882540933409
0.0872001730194
0.0849261299352
0.0818136269552
0.00013722433103
8.18588199569e-05
4.46257059171e-05
2.17695535531e-05
8.71317711746e-06
2.65325035044e-06
5.50789257904e-07
0.0749721528564
0.0621697951012
0.046825173532
0.0312175139852
0.0178706274666
0.0089350796859
0.00472441735997
0.00315970119792
0.00230560627213
0.00157087684567
0.000997079082457
0.000605422937544
0.000359286690062
0.000359286690062
1.28343510449e-07
5.34562919204e-08
)
;
    }
}


// ************************************************************************* //
