/*--------------------------------*- C++ -*----------------------------------*\
  =========                 |
  \\      /  F ield         | OpenFOAM: The Open Source CFD Toolbox
   \\    /   O peration     | Website:  https://openfoam.org
    \\  /    A nd           | Version:  7
     \\/     M anipulation  |
\*---------------------------------------------------------------------------*/
FoamFile
{
    version     2.0;
    format      ascii;
    class       volScalarField;
    location    "0.05";
    object      H2O;
}
// * * * * * * * * * * * * * * * * * * * * * * * * * * * * * * * * * * * * * //

dimensions      [0 0 0 0 0 0 0];

internalField   nonuniform List<scalar> 
815
(
0.232429779163
0.232577845589
0.232897972725
0.233378042359
0.233485051462
0.233716487891
0.23125153461
0.231306245116
0.231411056668
0.201662002454
0.201650827356
0.20139383147
0.112216943123
0.112404787433
0.112081157739
0.0556182018909
0.0557036733082
0.0555916791306
0.0352215051306
0.0352275956322
0.0351811976422
0.0274451651743
0.0274369937929
0.0274153027775
0.02388730612
0.0238804147047
0.0238668263781
0.0219416808303
0.0219350455141
0.0219221604682
0.020690022054
0.020682573081
0.0206678342393
0.0197530036516
0.0197448650756
0.0197278321752
0.0189624800564
0.0189530548068
0.0189334332011
0.0182323781342
0.0182223316473
0.0182008439603
0.0175272061523
0.0175164495946
0.0174932754711
0.0168299171299
0.0168185968634
0.0167940296649
0.016134256129
0.0161225994423
0.0160969789479
0.0154422945333
0.0154300102381
0.0154033340211
0.0147551795984
0.0147424595148
0.0147150545714
0.0140764804937
0.0140635380988
0.0140358213055
0.0134110142534
0.0133979739579
0.0133703331572
0.0127626996554
0.0127500681206
0.012723151564
0.0121377129725
0.012125782986
0.0121001547351
0.0115435180658
0.0115323038753
0.0115083370614
0.0109870792245
0.0109767627275
0.0109548330202
0.0104762157312
0.0104669218709
0.0104472785539
0.0100173114622
0.0100092494168
0.00999220259967
0.00961551112419
0.00960882887002
0.00959459614288
0.00927426779429
0.00926899893838
0.00925755939493
0.00899740505344
0.00899321587377
0.00898412617795
0.00878354092377
0.00878027443969
0.00877314312281
0.233330545387
0.234031740981
0.231545058052
0.20091876539
0.11136152143
0.0553337223593
0.0350949747514
0.0273814707426
0.0238469997755
0.0219038589756
0.0206470560229
0.0197039216413
0.0189059611436
0.0181707182456
0.0174607792695
0.0167595604474
0.0160610229468
0.0153659974544
0.0146768165735
0.0139972434776
0.0133319383575
0.012685771835
0.012064539781
0.011475016041
0.0109243589432
0.0104200562301
0.00996859764033
0.009574831679
0.00924160684189
0.00897142088922
0.00876318674969
0.136106598944
0.118405784326
0.101282130731
0.0816436231579
0.056459962888
0.0294533612523
0.0144800362391
0.23426842226
0.235893359188
0.237496013499
0.238305034168
0.237067363058
0.231900181849
0.224876990108
0.221144274528
0.220156959024
0.214013451926
0.193812270719
0.167498973175
0.142020836656
0.121155353293
0.105900201927
0.0948473962822
0.0826463997356
0.0614605600215
0.0320464806938
0.0155637495086
0.234721543849
0.235958133788
0.237289288028
0.238248318799
0.23817106748
0.236300804818
0.232841242824
0.227663037199
0.216661610616
0.19095122556
0.159091327375
0.129570804409
0.106728613218
0.0915355438781
0.0828780987888
0.0785798298477
0.0733047495337
0.0577227855929
0.0303667623635
0.0159961322843
0.231816290253
0.232129728431
0.232087151032
0.231068598068
0.228017739865
0.221164143492
0.207835605644
0.183774943706
0.155287583796
0.127088415336
0.103044711604
0.0851530107623
0.0732188830593
0.0663305675412
0.0633790719785
0.0626570702497
0.0600017608383
0.0480300337447
0.0264189808742
0.0164056671728
0.199678311524
0.196179555065
0.189937995239
0.179623864676
0.163142217126
0.142665097622
0.121638679614
0.102308461655
0.0865294138443
0.0738006431214
0.0639376339473
0.0569542988328
0.0526090285619
0.0505014606974
0.0500137146557
0.0497558173626
0.0469700508542
0.0376838454907
0.0228891709484
0.0171363083099
0.109411086094
0.104788839681
0.0982087317693
0.0898656106564
0.0803791465833
0.071502844749
0.0638210862458
0.0573594209253
0.0520057064947
0.0476610538055
0.0443577411305
0.0421658477536
0.0410033561627
0.0406294088859
0.0405152464304
0.0395998540344
0.0364695014314
0.0296791312794
0.0206923281071
0.0182392908995
0.0546422925431
0.0530727064609
0.0509331324321
0.0482968762299
0.0455154552424
0.0428990998888
0.0405526148062
0.0385154592387
0.0368076355818
0.0354595129122
0.0345256537808
0.0340240582499
0.0338609360538
0.0337961287779
0.0333921018554
0.0320257854374
0.0291642913079
0.0245691366599
0.0197358559808
0.0195501992667
0.0348733810155
0.0344022797661
0.0337748791505
0.0330159427375
0.0321924080186
0.031372061469
0.0306122459364
0.0299529070769
0.0294299851906
0.0290707590834
0.0288903345819
0.0288552356217
0.028850722216
0.0286697551762
0.0280304186256
0.0266576091277
0.0244536370392
0.0216851626132
0.0196337734569
0.0208624470755
0.0273003177779
0.0271350272962
0.0269113756875
0.0266329095762
0.0263185128583
0.025994044242
0.025689176003
0.0254311747418
0.0252446562053
0.0251421584204
0.025114050492
0.0251090164567
0.0250253905447
0.0247211860027
0.0240527538345
0.0229547462978
0.0215414889571
0.0202298282205
0.0200031139804
0.0220365587808
0.0238016920984
0.0237094947844
0.023582379241
0.0234200757775
0.0232292770796
0.0230214467722
0.0228129966353
0.0226226137459
0.0224677848652
0.0223554686911
0.0222716880277
0.0221728860919
0.0219886270698
0.0216417857624
0.0210915453992
0.0203917043756
0.019751829543
0.0195863667268
0.0205554989764
0.0230232219828
0.0218632228102
0.0217796581334
0.0216625026814
0.0215097982202
0.0213229279417
0.0211065939075
0.0208704659388
0.0206289403792
0.02039791991
0.0201866661333
0.0199890303801
0.0197803500583
0.0195258539091
0.0192046992017
0.0188473626199
0.0185767896503
0.018631249788
0.0193590561257
0.0211203021704
0.0238383065379
0.020601515414
0.0205068684665
0.0203727914057
0.0201959242961
0.0199745636004
0.0197095062805
0.0194065045671
0.0190778902408
0.0187408324473
0.0184107607095
0.0180942883073
0.0177889058916
0.0174942555081
0.0172363614847
0.0170988206441
0.0172454546955
0.0179090417391
0.0193347890075
0.0216351770584
0.0245297782655
0.0196512317241
0.01954043003
0.0193825022627
0.0191730782731
0.018908543337
0.0185872631574
0.0182124929111
0.0177955170333
0.0173556885442
0.0169155087931
0.0164949700715
0.0161127216689
0.0157988121128
0.0156187553658
0.0157000966734
0.0162349589568
0.0174320107001
0.019411055506
0.0220985681742
0.0251507925616
0.018845657842
0.0187186768692
0.0185373776591
0.01829662717
0.0179917284003
0.0176196312609
0.0171820831046
0.0166898516457
0.0161644476202
0.0156347091243
0.0151323469047
0.0146940356231
0.0143754659582
0.01427672287
0.0145666450485
0.0154626208868
0.0171277011523
0.0195518534875
0.0225377363031
0.0257456187194
0.0181040312284
0.017962750106
0.0177610242758
0.0174934379574
0.0171549312105
0.0167419438914
0.0162556618296
0.0157068354005
0.0151187094683
0.0145250126878
0.0139664831577
0.0134936954779
0.0131829607425
0.0131661578553
0.0136554666442
0.0148884269354
0.0169664879028
0.0197537328635
0.0229819555625
0.0263485377458
0.0173885643735
0.0172351833773
0.0170165082055
0.0167272858965
0.0163627301164
0.0159196072255
0.0153994476963
0.0148135454478
0.0141864970892
0.0135553881868
0.0129671332232
0.0124820332517
0.0121932672576
0.0122631955889
0.0129470595521
0.0144996611689
0.016940881042
0.0200255716582
0.0234619187701
0.0269856820179
0.01668269677
0.0165193965331
0.0162872173819
0.0159814618502
0.0155981738284
0.0151351891822
0.0145952038872
0.0139906117382
0.0133471318331
0.0127038325915
0.0121105009276
0.0116360067854
0.0113861785481
0.0115504315281
0.0124313594611
0.0142910849609
0.0170511768964
0.0203823603603
0.0240013666797
0.0276738773634
0.0159805821311
0.0158096167816
0.0155673309663
0.01524995997
0.0148548377812
0.0143814595975
0.0138343448855
0.0132274336142
0.0125866761658
0.0119532764969
0.0113796535727
0.0109372475486
0.0107424712667
0.0110141118308
0.0121040462252
0.014261812817
0.0172990502995
0.0208363479117
0.0246154803307
0.0284226858924
0.0152826546502
0.0151062230608
0.01485723767
0.0145330760147
0.0141326717324
0.0136576106271
0.0131140869087
0.0125186183405
0.0118989680664
0.0112954857188
0.0107607470275
0.0103681598222
0.0102444880193
0.0106427619559
0.0119625526208
0.014410829878
0.0176852312176
0.0213951863125
0.0253125094679
0.0292364652818
0.0145916171651
0.0144121013493
0.0141599783716
0.0138338258857
0.013434196603
0.0129653519821
0.0124364361795
0.0118655188687
0.0112811960189
0.0107228586745
0.0102418265782
0.00991316009962
0.00987702670381
0.0104287037624
0.0120062414507
0.014732976921
0.0182074740641
0.0220615954275
0.0260950988254
0.0301154746414
0.0139114218666
0.0137313490649
0.0134796911967
0.0131564865091
0.0127644166636
0.0123100403074
0.0118051564344
0.0112694743201
0.0107315944532
0.0102293446292
0.00981246659635
0.00955906966104
0.00962922739227
0.0103704058517
0.0122360434516
0.0152218230762
0.0188622526914
0.0228350063536
0.0269620656234
0.031056143985
0.0132467366454
0.0130689446125
0.0128218471464
0.0125069260548
0.0121289028596
0.0116966183653
0.0112240602233
0.010732064591
0.0102486225898
0.00980961456119
0.00946385121548
0.00929607577156
0.00949722667978
0.0104751521095
0.0126531010504
0.0158701668159
0.0196455462267
0.0237124633151
0.0279088517032
0.0320514069064
0.0126027924797
0.0124303375838
0.0121919919752
0.0118906495699
0.0115328855255
0.0111295348242
0.010696194754
0.0102541312525
0.00983023514811
0.0094586191746
0.00918908344948
0.00911967082063
0.00948793866376
0.0107592115513
0.013259083549
0.0166726075779
0.0205538884819
0.0246890096818
0.0289268307168
0.0330891517031
0.0119853969359
0.0118213714393
0.0115959057572
0.0113131676205
0.0109812929413
0.0106126359586
0.0102237528129
0.00983567427532
0.00947400055099
0.0091720297162
0.00898438846257
0.0090338056972
0.00962327215291
0.0112455720983
0.0140542210389
0.0176244956537
0.0215820663726
0.025755392007
0.0300020219642
0.0341528179341
0.011401105661
0.0112483742849
0.0110395939619
0.0107799057932
0.0104786450657
0.0101490714457
0.00980806999376
0.00947598818578
0.0091774538794
0.00894713160282
0.00885149428504
0.00905601687772
0.00994140200699
0.0119560702106
0.0150337918776
0.0187171399058
0.022716785395
0.0268919148799
0.0311093501319
0.0352167308889
0.0108569142186
0.010717959354
0.0105290626703
0.0102960173854
0.0100288797531
0.00974121605143
0.0094496921764
0.00917389757183
0.00893861450614
0.00878406030847
0.00880080708699
0.00922114838126
0.0104865212036
0.0128945467567
0.016178610877
0.0199272562717
0.0239280617138
0.0280633510666
0.0322131006551
0.0362490419097
0.0103599809224
0.010236725491
0.0100700521122
0.00986611378572
0.00963513936058
0.00939050873438
0.0091483299055
0.00892788083289
0.00875644883321
0.00868728447902
0.00885472863787
0.00957698546431
0.0112824217468
0.0140290311047
0.0174428399004
0.0212040955275
0.0251590585819
0.0292082055264
0.0332496394977
0.0372039941115
0.0099166025399
0.00981024664526
0.00966714885575
0.00949346296352
0.00929913101557
0.00909696166144
0.00890249313933
0.008735784975
0.00863064014025
0.00866549123681
0.00904337100703
0.0101544268704
0.0122918325368
0.0152764974685
0.0187387649043
0.022452978698
0.0263075336011
0.030226411506
0.0341459924151
0.0380508699351
0.00953126889891
0.0094422161301
0.00932294440277
0.00917927682046
0.00902050894651
0.00885864012016
0.00870890345475
0.00859375435447
0.00855902813538
0.00872390521383
0.00937689003432
0.0109104965059
0.0133872591038
0.0164885697272
0.0199194437869
0.0235291767101
0.0272409461762
0.0310099887988
0.0348255514124
0.038765777692
0.00920634175809
0.00913411954865
0.00903773187688
0.00892244159597
0.0087965968444
0.00867120108444
0.00856129772255
0.00849279676778
0.00852782742418
0.00883781567139
0.00978893200984
0.0116876079957
0.0143649448719
0.017474568592
0.0208095391998
0.024274626397
0.0278264194646
0.0314594286564
0.0352299650532
0.0393508162811
0.00894342408064
0.00888617660603
0.00881006387335
0.00871964611261
0.00862211767151
0.00852713595722
0.0084487777547
0.00841451340827
0.00849956587631
0.00892554837834
0.0101181183258
0.0122597806888
0.0150103535953
0.0180565073431
0.0212641018947
0.0245806259692
0.027994999762
0.0315455968277
0.0353627518026
0.0398410265927
0.00874130313914
0.00869662140792
0.00863736832981
0.00856734601208
0.00849250993844
0.00842085693636
0.0083642425647
0.00834688310277
0.00843958477902
0.0088711896392
0.010129418252
0.0123920312527
0.0151707314224
0.018153875378
0.0212653049765
0.0244899079027
0.027843413769
0.0313995281597
0.035347740095
0.04025264563
0.017681845592
0.0199932615613
0.0195376574784
0.0222003673077
0.0211449467634
0.0237216022149
0.0222189156861
0.0245060290246
0.0228592032444
0.0248773400856
0.0233819552033
0.0251733335006
0.0239691149728
0.0255579876056
0.0246395766568
0.0260560554146
0.025342100282
0.0266299667813
0.0260322912729
0.0272411514293
0.026693751257
0.0278688549278
0.0273345643162
0.0285110618496
0.0279713132989
0.0291743854402
0.0286228463453
0.0298684568284
0.0293055046453
0.0306022498029
0.0300317078705
0.0313820350538
0.0308091061763
0.0322116152684
0.031640773025
0.0330913841046
0.032527522639
0.0340200893408
0.0334663361121
0.0349935603454
0.034451916839
0.036005689865
0.035476713202
0.0370478196633
0.0365298367098
0.0381098392566
0.0375985962091
0.0391793680444
0.0386643048446
0.0402434234254
0.0397064075485
0.0412970210526
0.0407242538213
0.042346481678
0.0417219492025
0.043408270594
0.0427188612192
0.0444930343359
0.0437230051283
0.0455662910645
0.044676172721
0.0464935616693
0.0453786262116
0.0470753722538
)
;

boundaryField
{
    inletfuel
    {
        type            fixedValue;
        value           nonuniform 0();
    }
    inletair
    {
        type            fixedValue;
        value           nonuniform 0();
    }
    outlet
    {
        type            zeroGradient;
    }
    axis
    {
        type            empty;
    }
    leftside
    {
        type            zeroGradient;
    }
    burnerwall
    {
        type            zeroGradient;
    }
    front
    {
        type            wedge;
    }
    back
    {
        type            wedge;
    }
    procBoundary1to0
    {
        type            processor;
        value           nonuniform List<scalar> 
27
(
0.230336085068
0.230548026991
0.230999441998
0.23160340767
0.123115513334
0.107197227665
0.0883989524105
0.0671950069377
0.0438757688022
0.0229663395961
0.0122922843479
0.232891879104
0.235011777527
0.236848122627
0.237133531454
0.233438040216
0.220005925626
0.200172959266
0.187641633424
0.185744417173
0.187359319835
0.183925532006
0.172208877616
0.154884478865
0.154884478865
0.0156732727452
0.0178068814818
)
;
    }
}


// ************************************************************************* //
