/*--------------------------------*- C++ -*----------------------------------*\
  =========                 |
  \\      /  F ield         | OpenFOAM: The Open Source CFD Toolbox
   \\    /   O peration     | Website:  https://openfoam.org
    \\  /    A nd           | Version:  7
     \\/     M anipulation  |
\*---------------------------------------------------------------------------*/
FoamFile
{
    version     2.0;
    format      ascii;
    class       volScalarField;
    location    "0.05";
    object      HE;
}
// * * * * * * * * * * * * * * * * * * * * * * * * * * * * * * * * * * * * * //

dimensions      [0 0 0 0 0 0 0];

internalField   nonuniform List<scalar> 
815
(
0.00019497686253
0.000196189960303
0.000198873823772
0.000208022956932
0.000208981812193
0.000211089121873
0.000206226779683
0.00020685827478
0.000208209261518
0.00018787179541
0.000188263383754
0.000188980579968
0.000168705362054
0.000169007437108
0.000169525432198
0.000158797095613
0.000159085053275
0.000159649746475
0.000152614750893
0.000152891064739
0.000153471597837
0.000146661253302
0.000146906867286
0.000147439014262
0.000139998501099
0.000140202277496
0.000140649253279
0.000132589902752
0.000132746588677
0.000133094386468
0.000124624475639
0.000124732882675
0.000124979321728
0.000116303614252
0.000116371101187
0.000116524964414
0.000107846538065
0.000107871799968
0.000107937743245
9.93594325047e-05
9.93539268476e-05
9.93476321915e-05
9.09906880957e-05
9.09567009705e-05
9.0886777311e-05
8.28238369479e-05
8.27660980751e-05
8.26423523798e-05
7.49152997715e-05
7.483943418e-05
7.46723562893e-05
6.73291585089e-05
6.72347397641e-05
6.70305707848e-05
6.00734337693e-05
5.99654478237e-05
5.97338981028e-05
5.31585161439e-05
5.30418403806e-05
5.2792915702e-05
4.65953808658e-05
4.64735778924e-05
4.62161124749e-05
4.0381804036e-05
4.02616614799e-05
4.0005985099e-05
3.45375327507e-05
3.44231819626e-05
3.41777144018e-05
2.90964388373e-05
2.89889959579e-05
2.87594056154e-05
2.40914540271e-05
2.39932224423e-05
2.37843311116e-05
1.95673921427e-05
1.94798205552e-05
1.92945696795e-05
1.55598761249e-05
1.54848566133e-05
1.53260905634e-05
1.20964199156e-05
1.20350593711e-05
1.19043094645e-05
9.19178392672e-06
9.14402769591e-06
9.04042168511e-06
6.86501770753e-06
6.82761488235e-06
6.74651328604e-06
5.08773059558e-06
5.05898386901e-06
4.99628797328e-06
0.000202626619893
0.000214024167489
0.000210067893687
0.000189921114447
0.000170212763465
0.000160420647409
0.000154271407128
0.000148173845299
0.000141267538576
0.00013357795184
0.000125323045303
0.000116740101756
0.000108030875686
9.93392659943e-05
9.07891662087e-05
8.2469059818e-05
7.44381763725e-05
6.67454544061e-05
5.94116686827e-05
5.24473190643e-05
4.58592834573e-05
3.96516288948e-05
3.38372302267e-05
2.84407830145e-05
2.34945610238e-05
1.90382456232e-05
1.5106570762e-05
1.17230313693e-05
8.89619715741e-06
6.63335837187e-06
4.90890608191e-06
0.000414131820044
0.000420489132378
0.000424296592063
0.000403786388842
0.000326884318625
0.000188524511668
6.33517201892e-05
0.000211130370413
0.000228481692748
0.00025215879876
0.00028103907802
0.000312747497219
0.000343266523542
0.000367322847072
0.000380845197751
0.00038331804223
0.000377242602433
0.00036716927521
0.000359221358988
0.000359287856054
0.000369825445034
0.000390071313563
0.000413746522077
0.000418413672271
0.000358123713492
0.000204351384442
6.40068649745e-05
0.000220639928061
0.000233890490475
0.00025142625427
0.0002715445948
0.000291328939774
0.000306931609924
0.0003153313798
0.000316210602644
0.00031176847005
0.000305489570727
0.000301598869297
0.000303777449134
0.000314337766416
0.0003336061199
0.000359982006026
0.000388753872085
0.00040127379821
0.000349076205543
0.000191559515004
5.67099535964e-05
0.000214187543951
0.000221926321269
0.00023146490651
0.000241248174734
0.000249202454161
0.000253490312687
0.000254031714321
0.000252886676729
0.000252974064888
0.000256378953274
0.000264243387787
0.000276583404675
0.000292794371864
0.000312495435613
0.000334407592099
0.000354164733892
0.000355853357831
0.000299720730678
0.000157773421698
4.5927021193e-05
0.000191966585696
0.000195339005902
0.000199259613896
0.00020322996787
0.000206917770207
0.000210478119026
0.000214899241831
0.000221382582577
0.000230308322254
0.000240953290672
0.00025277191918
0.00026534004607
0.000278396775425
0.000291438732763
0.000302441204468
0.000306020620086
0.000290388940353
0.000232495755684
0.00011984217545
3.5178066267e-05
0.000171820004602
0.000174506804327
0.000178188007798
0.000182952215857
0.000188937462058
0.000196449918466
0.000205365273999
0.000215199144594
0.000225273287855
0.000235016445528
0.000244039144658
0.000251998304397
0.00025841132198
0.000262129537306
0.000260618359353
0.000249270344339
0.000221879144269
0.000168513510277
8.61074081211e-05
2.56673953188e-05
0.000162239281136
0.000165607478681
0.000170346208701
0.000176488301763
0.000184011742752
0.00019265760978
0.000201838933329
0.000210771536759
0.000218695148903
0.000225079756205
0.000229561193962
0.000231768880537
0.000231046369024
0.000226092782369
0.000214867969505
0.000194796183769
0.000163527239462
0.00011770014991
5.93086120333e-05
1.78254899697e-05
0.000156090143405
0.000159720824441
0.000164788055805
0.000171228323179
0.000178808965039
0.000187022025486
0.000195070251111
0.000202018527886
0.000207067358983
0.000209725238067
0.000209702484822
0.000206681003555
0.000200062873266
0.000188916855534
0.000172109991012
0.000148634936333
0.000118035141722
8.02614810181e-05
3.93073640914e-05
1.17842235643e-05
0.000149810286804
0.000153205609331
0.000157926905666
0.000163868478105
0.000170719447311
0.000177862022983
0.000184374671161
0.000189220657326
0.000191567578724
0.000190972658359
0.000187265371336
0.000180295959855
0.000169724481923
0.000155047699133
0.000135832434135
0.000112061463564
8.43069436e-05
5.39039267848e-05
2.52182629758e-05
7.47164593601e-06
0.000142631730557
0.000145514422767
0.000149538548331
0.000154599824187
0.000160375723758
0.000166220308111
0.000171166499215
0.000174129953756
0.000174264237336
0.000171179464795
0.000164833022271
0.000155250606832
0.000142352535145
0.000126014032537
0.000106319623919
8.38053878956e-05
5.96534060631e-05
3.57330578967e-05
1.5779399055e-05
4.58550934877e-06
0.000134639935034
0.00013691004267
0.000140101866659
0.000144129571601
0.000148699845771
0.000153204263197
0.000156704322054
0.000158120364186
0.000156600722699
0.000151784477313
0.000143726791549
0.000132622050021
0.000118620113857
0.00010188643918
8.28294768479e-05
6.23339236355e-05
4.18674866549e-05
2.34126015033e-05
9.72080649921e-06
2.75588131373e-06
0.000126081684468
0.000127727604564
0.00013006630784
0.000133036494002
0.0001363946649
0.000139607250902
0.000141814551513
0.000141987326856
0.000139285817263
0.000133362089875
0.000124336221723
0.000112533240316
9.82820707437e-05
8.1952244506e-05
6.41664044814e-05
4.60264328113e-05
2.90892575504e-05
1.51820752726e-05
5.94544393488e-06
1.64060510318e-06
0.000117215195846
0.000118267779881
0.00011978709665
0.000121735419472
0.000123924408295
0.000125913362344
0.000126955825806
0.000126115964058
0.000122594364587
0.000116050442966
0.000106635047157
9.47573504134e-05
8.0870162656e-05
6.54766909741e-05
4.93364044615e-05
3.36600330409e-05
1.99840289856e-05
9.76138397912e-06
3.6341331451e-06
9.76917800418e-07
0.000108244182886
0.000108750145606
0.000109509645933
0.000110502957271
0.000111594049024
0.000112438516366
0.000112420922263
0.000110731681868
0.000106643995068
9.9831277788e-05
9.04498386023e-05
7.89494621348e-05
6.58583351041e-05
5.17605410981e-05
3.74852578962e-05
2.4276181053e-05
1.35584132404e-05
6.23796983215e-06
2.22923882223e-06
5.86047276371e-07
9.93241496633e-05
9.93400378173e-05
9.94129285697e-05
9.9536900666e-05
9.96214951037e-05
9.94128903475e-05
9.84308131945e-05
9.60126888879e-05
9.15339899277e-05
8.4699435196e-05
7.56582630702e-05
6.48642861713e-05
5.28762803152e-05
4.02967539803e-05
2.80069678852e-05
1.72150347868e-05
9.07610522e-06
3.96924701459e-06
1.37572199186e-06
3.55234402351e-07
9.05744070465e-05
9.01607777478e-05
8.96291063077e-05
8.89835990857e-05
8.81716187759e-05
8.70196551351e-05
8.51762507555e-05
8.21330664171e-05
7.73893432005e-05
7.07019206129e-05
6.22115024476e-05
5.2345271797e-05
4.16457427353e-05
3.07519568753e-05
2.04934743927e-05
1.19622440047e-05
5.98844657454e-06
2.51552406386e-06
8.52843921451e-07
2.17223716103e-07
8.2084142162e-05
8.13043262423e-05
8.02564274691e-05
7.89523740827e-05
7.73705319785e-05
7.54062868915e-05
7.28244737333e-05
6.92663553242e-05
6.43650011373e-05
5.79459536878e-05
5.01320030951e-05
4.13362638963e-05
3.20736021336e-05
2.29182978182e-05
1.46294060295e-05
8.12535830035e-06
3.89022140879e-06
1.58527398823e-06
5.29220811318e-07
1.33502055097e-07
7.39147752663e-05
7.28349850382e-05
7.13639035683e-05
6.95206427912e-05
6.73094279928e-05
6.46837479149e-05
6.15093120919e-05
5.75634291964e-05
5.26034439083e-05
4.65386594887e-05
3.95100271589e-05
3.18726826074e-05
2.40781574022e-05
1.6621102874e-05
1.01547212403e-05
5.38532413721e-06
2.48587877821e-06
9.91033531839e-07
3.27454497687e-07
8.21144731586e-08
6.61108955052e-05
6.4797102786e-05
6.29980712715e-05
6.07396471464e-05
5.80481040924e-05
5.49259419514e-05
5.13192817506e-05
4.71268237103e-05
4.22326046815e-05
3.66154134829e-05
3.04224335859e-05
2.39548054092e-05
1.75801148986e-05
1.16990076947e-05
6.8390497975e-06
3.47953147818e-06
1.56157990817e-06
6.1322232323e-07
2.01366332652e-07
5.03595935207e-08
5.86961091064e-05
5.72142365843e-05
5.51823871152e-05
5.26328151533e-05
4.96100488616e-05
4.6160159851e-05
4.23015517745e-05
3.80264688274e-05
3.33199666634e-05
2.82225823989e-05
2.28798175153e-05
1.75348148049e-05
1.24663148123e-05
7.9780953452e-06
4.46516156737e-06
2.1928606225e-06
9.64297653284e-07
3.75015985258e-07
1.2278303822e-07
3.07053803634e-08
5.16809337441e-05
5.00945965706e-05
4.79207865625e-05
4.52002923776e-05
4.19971937266e-05
3.83904959507e-05
3.44549339476e-05
3.02557316728e-05
2.58511840512e-05
2.13249273224e-05
1.68128735656e-05
1.25000947143e-05
8.58016565047e-06
5.26722910396e-06
2.82739366977e-06
1.35009548054e-06
5.85712108751e-07
2.26536502478e-07
7.41383982604e-08
1.85800587231e-08
4.5069717369e-05
4.34399579939e-05
4.12118693787e-05
3.84348856363e-05
3.51902019992e-05
3.15838360596e-05
2.77313930397e-05
2.37483081379e-05
1.97397611546e-05
1.58117206189e-05
1.20826815529e-05
8.68262972917e-06
5.73144124078e-06
3.36733254606e-06
1.74009092179e-06
8.14088485141e-07
3.50378209394e-07
1.35203865622e-07
4.430907153e-08
1.11448744654e-08
3.88669121633e-05
3.72504249093e-05
3.50475665413e-05
3.23164798764e-05
2.91525894802e-05
2.56820772745e-05
2.20470394841e-05
1.83917252913e-05
1.48445612851e-05
1.15160315237e-05
8.50135845656e-06
5.88095150777e-06
3.71724610332e-06
2.08748989248e-06
1.04460549597e-06
4.82326313243e-07
2.0683001282e-07
7.98092618203e-08
2.62219439452e-08
6.62618538966e-09
3.30822950775e-05
3.15293051306e-05
2.94208272863e-05
2.68226746743e-05
2.38408792423e-05
2.06142507466e-05
1.72983316309e-05
1.40479614095e-05
1.09959482787e-05
8.24392067379e-06
5.86101451764e-06
3.88649216121e-06
2.34255059604e-06
1.25883558765e-06
6.1471722446e-07
2.81867108294e-07
1.20775893988e-07
4.66635340715e-08
1.53754402542e-08
3.90303450469e-09
2.77354648618e-05
2.62874491727e-05
2.43299370469e-05
2.19337306444e-05
1.92113706319e-05
1.63062564518e-05
1.33761844196e-05
1.05725812589e-05
8.01925126244e-06
5.80066872744e-06
3.95999706976e-06
2.50629621777e-06
1.43647698365e-06
7.42280067802e-07
3.56773867168e-07
1.63221054151e-07
6.99993228205e-08
2.70909526861e-08
8.9482987143e-09
2.2801613491e-09
2.28544252314e-05
2.15433172631e-05
1.97791124871e-05
1.76346276836e-05
1.52238662777e-05
1.26875374651e-05
1.01764061697e-05
7.82894528508e-06
5.75192170134e-06
4.00900823155e-06
2.62054304195e-06
1.57683090816e-06
8.60021430909e-07
4.31149322244e-07
2.0562893416e-07
9.41291393542e-08
4.04198048058e-08
1.56572773733e-08
5.17635051925e-09
1.32235704339e-09
1.84734998469e-05
1.73210163589e-05
1.57773750648e-05
1.3914626971e-05
1.1842761019e-05
9.69387915902e-06
7.60485959231e-06
5.69566955528e-06
4.05250870391e-06
2.71830592599e-06
1.69653741875e-06
9.68815982917e-07
5.06112704356e-07
2.49051057966e-07
1.18602054661e-07
5.43882086071e-08
2.33723185585e-08
9.05300303781e-09
2.99297941787e-09
7.63775794411e-10
1.46237580373e-05
1.36410863138e-05
1.23307523392e-05
1.0760725634e-05
9.03249639875e-06
7.26488356285e-06
5.57683651909e-06
4.06757836223e-06
2.80259153265e-06
1.80701209974e-06
1.07459296458e-06
5.84098791894e-07
2.95861002399e-07
1.44526567026e-07
6.89883689451e-08
3.16997847474e-08
1.36196491231e-08
5.26356853028e-09
1.73098616932e-09
4.36608859945e-10
1.13241027924e-05
1.0512498572e-05
9.43454849055e-06
8.15123502806e-06
6.75224079913e-06
5.34008616565e-06
4.01420950561e-06
2.85334941162e-06
1.90436630772e-06
1.17950686977e-06
6.68561463126e-07
3.48983539334e-07
1.73876443511e-07
8.49942432114e-08
4.07122529242e-08
1.87162156599e-08
8.01627133229e-09
3.07560880647e-09
9.9679919427e-10
2.43592579612e-10
8.57795794144e-06
7.92925690569e-06
7.07013205537e-06
6.05290428394e-06
4.95334732801e-06
3.85650376619e-06
2.84249047043e-06
1.9715757768e-06
1.27574594897e-06
7.59200823291e-07
4.11693358688e-07
2.08818657695e-07
1.03469357522e-07
5.07783849502e-08
2.43775037637e-08
1.11773921281e-08
4.74817304997e-09
1.79294629406e-09
5.63923369846e-10
1.29300942989e-10
6.38443902e-06
5.87771748902e-06
5.20879024638e-06
4.42107652061e-06
3.57655589755e-06
2.74360692814e-06
1.98488041307e-06
1.34494126455e-06
8.44455761499e-07
4.83258702787e-07
2.51983832815e-07
1.25383423354e-07
6.21061399253e-08
3.05808450603e-08
1.46686146612e-08
6.67615406763e-09
2.79224100826e-09
1.02510358557e-09
3.06465011003e-10
6.34426790225e-11
4.71713438301e-06
4.3272724659e-06
3.81380295838e-06
3.21189300889e-06
2.57125417004e-06
1.94595711435e-06
1.38428730254e-06
9.18742494469e-07
5.62155931546e-07
3.10792221466e-07
1.55509685243e-07
7.54655190982e-08
3.72280365624e-08
1.83539182742e-08
8.78128925953e-09
3.95714823819e-09
1.62200654876e-09
5.74774136903e-10
1.61638061248e-10
2.99598946748e-11
2.31978588325e-05
1.26104366807e-05
2.11634995228e-05
1.01897618674e-05
1.68845407799e-05
7.74720916175e-06
1.31231149471e-05
5.94085752303e-06
1.02009904708e-05
4.59107703554e-06
7.70788715027e-06
3.46022639966e-06
5.52497437933e-06
2.48278013511e-06
3.73424893755e-06
1.67925306776e-06
2.3949190008e-06
1.07464207435e-06
1.47526993157e-06
6.58413496416e-07
8.85645861522e-07
3.92110004929e-07
5.2527917801e-07
2.30265919879e-07
3.11402502176e-07
1.34956940973e-07
1.8589167629e-07
7.95682815825e-08
1.1207371011e-07
4.7357679554e-08
6.81695284023e-08
2.8457593564e-08
4.17055182573e-08
1.72253291427e-08
2.55711045424e-08
1.04726163509e-08
1.56563968882e-08
6.3743506868e-09
9.54654557774e-09
3.87461752623e-09
5.78629203338e-09
2.34721031632e-09
3.48094122225e-09
1.41510948109e-09
2.07706273001e-09
8.47721706024e-10
1.22751965645e-09
5.04063080742e-10
7.19473871363e-10
2.97538256235e-10
4.18965198029e-10
1.73953732789e-10
2.41023927698e-10
9.99527992367e-11
1.35481052064e-10
5.55706928948e-11
7.26662821404e-11
2.91451027944e-11
3.59812837344e-11
1.40048522936e-11
1.61358153432e-11
6.19277684827e-12
7.24470894028e-12
2.90805957702e-12
)
;

boundaryField
{
    inletfuel
    {
        type            fixedValue;
        value           nonuniform 0();
    }
    inletair
    {
        type            fixedValue;
        value           nonuniform 0();
    }
    outlet
    {
        type            zeroGradient;
    }
    axis
    {
        type            empty;
    }
    leftside
    {
        type            zeroGradient;
    }
    burnerwall
    {
        type            zeroGradient;
    }
    front
    {
        type            wedge;
    }
    back
    {
        type            wedge;
    }
    procBoundary1to0
    {
        type            processor;
        value           nonuniform List<scalar> 
27
(
0.000172790618794
0.000174195192692
0.000177255609655
0.000181527817938
0.00042743756465
0.00041802833887
0.000398053097707
0.000352478122608
0.000266585518916
0.000150038800574
5.17629939772e-05
0.000191146970226
0.000210649823311
0.000237249587224
0.000270293066582
0.000308694642265
0.000349982720849
0.000388282568563
0.000417197941701
0.000433044024012
0.000435769783964
0.000429218557091
0.000419465500687
0.000413327441527
0.000413327441527
2.06408779375e-05
1.21981678601e-05
)
;
    }
}


// ************************************************************************* //
