/*--------------------------------*- C++ -*----------------------------------*\
  =========                 |
  \\      /  F ield         | OpenFOAM: The Open Source CFD Toolbox
   \\    /   O peration     | Website:  https://openfoam.org
    \\  /    A nd           | Version:  7
     \\/     M anipulation  |
\*---------------------------------------------------------------------------*/
FoamFile
{
    version     2.0;
    format      ascii;
    class       volScalarField;
    location    "0.05";
    object      k;
}
// * * * * * * * * * * * * * * * * * * * * * * * * * * * * * * * * * * * * * //

dimensions      [0 2 -2 0 0 0 0];

internalField   nonuniform List<scalar> 
815
(
6.21284221442
6.19352122216
6.15739747335
6.94576544809
6.92948806076
6.90330188531
7.16873765183
7.15258676693
7.11855314694
4.05877880754
4.06676428834
4.04510823384
1.23880435844
1.24792421661
1.24307355874
0.452051974544
0.454445785517
0.454561643922
0.315285924641
0.315943499437
0.31671085275
0.29759324844
0.298072352689
0.298931423461
0.295460753514
0.295929956534
0.296749026776
0.29123590051
0.291689547216
0.292474721736
0.283501786755
0.283981787776
0.284803953395
0.273653671716
0.274104040746
0.274906420245
0.262224233979
0.2627126177
0.26359646266
0.250313585737
0.250800435231
0.25169771718
0.238040322992
0.238522475985
0.239429967273
0.225525547014
0.226001227389
0.226907309883
0.212877481509
0.213323350588
0.214188034451
0.200003716781
0.200417461178
0.201236009361
0.186981003204
0.187354531161
0.188109601061
0.173935717721
0.174258592575
0.174928611339
0.161016303202
0.161285405455
0.161860783964
0.148480062893
0.148692641125
0.149159478324
0.136614979606
0.136767376742
0.13711588151
0.125716150689
0.125804652903
0.126034017746
0.116044049042
0.11607218646
0.11618627331
0.107772219602
0.107747828998
0.107758345728
0.10094824511
0.100882128062
0.100806172589
0.0954651878948
0.0953681022605
0.0952242287647
0.0911320637617
0.091011011094
0.0908145155123
0.0893637227875
0.0892396930341
0.0890470217442
0.114996101113
0.114898006866
0.114752347642
6.11285796082
6.8785453614
7.082098101
4.00625552536
1.23132930345
0.453614467827
0.317565743205
0.300002338185
0.297787213042
0.293505213967
0.285878169533
0.276004160504
0.264782687365
0.252925378687
0.240687864956
0.228173550084
0.215428005605
0.202427174818
0.189228456867
0.175948393363
0.162763579998
0.149929288907
0.137741589236
0.12651037999
0.116517965848
0.10795956005
0.100898100441
0.0952308709423
0.0907580082159
0.0889730967574
0.114676322695
0.58650629109
0.484750629964
0.421970438609
0.374056354229
0.284893224142
0.154285825533
0.126098869352
6.01695177064
5.82949812254
5.56791984357
5.18507745846
4.5844387994
3.66475898544
2.79842455945
2.24856414036
1.88407037988
1.55162922339
1.20314462291
0.892340489136
0.661130205685
0.50783270967
0.420741017122
0.394646724262
0.400266909526
0.342435437359
0.186117990999
0.159544876564
6.82721845789
6.7185226537
6.52123588873
6.15556097908
5.52936111747
4.60173221499
3.560469222
2.63148726448
1.89116572861
1.33865335414
0.933081702384
0.653874927605
0.476937646775
0.376003674606
0.333200342319
0.341251101567
0.378510614802
0.343003137637
0.195251211752
0.20462873423
6.99837508554
6.76843773624
6.33858703684
5.63507751263
4.65341949062
3.51896421671
2.46199864652
1.66302749938
1.12403967133
0.770791797182
0.543665529186
0.404484067763
0.326021590457
0.289600588316
0.286129420426
0.30923824733
0.33971529252
0.30584075977
0.203764497567
0.275472335983
3.9023933519
3.60727256179
3.15795567077
2.58878010722
1.982325694
1.42332462306
0.986505908873
0.694028585916
0.509669185346
0.391534094486
0.316907794086
0.274084995937
0.254977224576
0.253931285518
0.267603149811
0.288381411821
0.302341101627
0.277143945424
0.239014070355
0.384834776195
1.1963306154
1.09734559798
0.959853969579
0.800075743766
0.641742544277
0.509085271766
0.40839725848
0.336162689246
0.28558036945
0.252051075727
0.232751341719
0.225682292168
0.228958260561
0.240473254252
0.256860907909
0.273227330662
0.283399953525
0.281916219005
0.311289509925
0.530564620954
0.449315492968
0.432825355294
0.407152034124
0.373407585253
0.335978066834
0.298937345037
0.266021134472
0.239525890162
0.220490962449
0.209218368372
0.20550500985
0.208778341145
0.218056135434
0.232012881427
0.248686777815
0.267124037969
0.287687052994
0.319735903172
0.412637145294
0.684947834056
0.31883968484
0.317626155377
0.311050113816
0.297544299287
0.2779413633
0.255142056472
0.233027180486
0.214755719916
0.202075349379
0.195526254073
0.194959061237
0.199880591807
0.209780095477
0.224230366263
0.243555528819
0.27019744535
0.309964677741
0.38052292645
0.529028901644
0.815717953845
0.301971531904
0.302919470414
0.298764691507
0.287440683671
0.26943785977
0.247624937805
0.225958980845
0.207838069586
0.195090457457
0.188160913653
0.186814883949
0.190753680164
0.200059892584
0.215673706972
0.240077042502
0.278628096237
0.34183915926
0.452229575703
0.645616818651
0.908444266446
0.299713113099
0.300949902595
0.297274415517
0.286344846265
0.268321863664
0.24587506485
0.223014354612
0.203369987577
0.188957600169
0.180257391788
0.177087497738
0.179472991418
0.188270081836
0.205810916348
0.236755657742
0.289705255591
0.379576211885
0.530267519112
0.755500072252
0.969173345899
0.295429789518
0.296924268665
0.293777472725
0.283428600712
0.265668386396
0.242836669709
0.21887363974
0.197612087957
0.181330156817
0.170660058951
0.16555116234
0.166357414483
0.174698647036
0.194318472443
0.23236407793
0.301327220543
0.420936539293
0.612985756944
0.858307368964
1.01229841011
0.28791783545
0.289819957834
0.287377503764
0.277859741032
0.260711548982
0.237913096004
0.21325321216
0.190696258913
0.172777222675
0.160316177452
0.153397490008
0.152651782624
0.160392521691
0.18189942744
0.227345798837
0.314251289969
0.467743480803
0.702573033575
0.958409896326
1.05128106937
0.278163369504
0.280529364648
0.278852952058
0.270283250462
0.253989290548
0.231610328735
0.206721508228
0.183322446327
0.164153572979
0.15021851601
0.141713105698
0.139465609658
0.146378258684
0.169351263732
0.222250748715
0.32928479515
0.521509648555
0.800411295136
1.05903356156
1.09432425743
0.267144681684
0.269985319677
0.269054810903
0.261456239619
0.246158024958
0.224501549002
0.199814953091
0.176042869054
0.156059521733
0.141028770378
0.131237097843
0.127638513624
0.133625185697
0.157798965693
0.218601032984
0.34903095543
0.585033710048
0.907286318023
1.16213054256
1.14505894415
0.255426187277
0.2586624372
0.258382152027
0.251692838177
0.237442355077
0.216731986832
0.192634090037
0.168962487785
0.14863950529
0.132949132269
0.122254619206
0.117581320139
0.122736212642
0.148207618103
0.218091190714
0.375915524883
0.660659865908
1.0229092693
1.2685750966
1.20422823161
0.243293230278
0.246822295024
0.247055574932
0.241160378608
0.227938716129
0.208316943129
0.185123823187
0.161988048348
0.14179444679
0.12589805796
0.11473108125
0.10938058385
0.114123246849
0.141535119493
0.222623044026
0.413198689419
0.750451571527
1.14710438491
1.37956173962
1.27146491717
0.230830910084
0.23452507424
0.235114500756
0.229873987292
0.21762327726
0.19917608031
0.177142881618
0.15492715005
0.135301888783
0.119644005779
0.108441187785
0.102919476423
0.107862257668
0.138400630632
0.234111410358
0.463873881145
0.855787153568
1.28002546795
1.49590462847
1.34583845133
0.218063771399
0.221783982844
0.222567815265
0.217838899875
0.206487690662
0.18926748391
0.168593880733
0.147620109964
0.128934144883
0.113926070818
0.103156922859
0.0979868118666
0.103925616233
0.139508964414
0.254959158759
0.531441529725
0.97785167822
1.42188506915
1.61829839702
1.42694517234
0.204989974642
0.208607533285
0.209440322671
0.205101271431
0.194587836014
0.178630198072
0.159451669182
0.139974042134
0.122600040123
0.108623141849
0.098675444857
0.0943683663857
0.10231161186
0.14581108546
0.288180255204
0.619539486121
1.11753130285
1.57342265854
1.74741813134
1.51460649803
0.191659581812
0.195054555526
0.195814374348
0.191768430556
0.182038455464
0.167367245378
0.149841766811
0.132099492911
0.11630670901
0.103658729129
0.0948675381463
0.0919438236765
0.10323357275
0.1588910717
0.337819142009
0.731354505905
1.27528994249
1.73571102262
1.88415110707
1.60915056279
0.178187438384
0.181256421953
0.181845123915
0.178022221595
0.169071770105
0.155750893139
0.139994209441
0.124158113239
0.110146467053
0.0990476172942
0.091695945346
0.0907533571743
0.107339063573
0.18145739211
0.409050680072
0.86976583413
1.45195044744
1.91015117688
2.02965331062
1.71101503674
0.16476450001
0.167425978056
0.16778377315
0.164163501751
0.156014908607
0.144107352495
0.13020816848
0.116384719646
0.104275134312
0.0948716283577
0.0892238696186
0.0910846209449
0.116056154865
0.218016967881
0.507986489013
1.03724396459
1.64891507609
2.09857372396
2.18534664055
1.82071426118
0.151651375001
0.153856718737
0.153962163122
0.150556797671
0.143249415807
0.132806374531
0.120811254291
0.109038564256
0.0988746006469
0.0912600581737
0.0876483530114
0.0936762662835
0.13222285816
0.275513042325
0.641576606737
1.23640755827
1.86835376032
2.30312919238
2.35247189518
1.93828787821
0.139159911179
0.140894564358
0.14076089827
0.137606911673
0.13118283411
0.122227809405
0.112127795099
0.102373005445
0.094134133938
0.0884007051881
0.0874053978045
0.100138461717
0.161154022888
0.363894354035
0.817000180779
1.47013450061
2.11292589716
2.52577571918
2.531513404
2.06227291243
0.127620267167
0.128901906185
0.128570686939
0.125715651408
0.120204004166
0.112720116532
0.104445955047
0.0966131563183
0.0902476863159
0.0865951408282
0.0894279652028
0.1138264869
0.212030704894
0.495677941062
1.04052933451
1.74094374436
2.38444114225
2.76680422202
2.72080542188
2.18892952959
0.117332183249
0.118207562753
0.117738337639
0.115228387095
0.110631891789
0.10455655188
0.0979852044623
0.0919394027778
0.087430251121
0.0863813409415
0.0956308057801
0.141114898746
0.298391007043
0.682876922355
1.31510127692
2.04889970572
2.68161484968
3.02287683826
2.91433848671
2.30891096173
0.108509563669
0.109048954485
0.108510066887
0.106380489999
0.102669628675
0.0978971987714
0.0928674222492
0.088475077487
0.0859551703483
0.0887484215129
0.109699001141
0.192542712148
0.435605332736
0.931337492292
1.63686212137
2.38736322796
2.99523747491
3.28204127997
3.09857305724
2.40671890415
0.101229726109
0.101515402669
0.100974259782
0.0992414178919
0.0963556856164
0.0927476894524
0.0890836579588
0.0862623140729
0.0861633734848
0.0953029502042
0.137467335068
0.28060728446
0.631706757499
1.23267631855
1.98902692767
2.73594001937
3.30201306762
3.52024829222
3.24761852177
2.44942155569
0.095394887137
0.0955085069574
0.0950208535782
0.0936786366028
0.0915311328113
0.0889289531081
0.0864578113435
0.0851954907499
0.0882953474182
0.107721520994
0.184246625562
0.409459106257
0.872697374714
1.55443089392
2.33263954548
3.05266223371
3.55769806404
3.6905677952
3.31231282608
2.38749278974
0.0907998368903
0.0908096216706
0.0904093001978
0.0894257661427
0.0879055351675
0.0861319896175
0.0846540395684
0.0848540566709
0.09166474185
0.124605789211
0.244856269697
0.55748601045
1.11154237286
1.83573909384
2.60033887899
3.26307278285
3.68025981478
3.70582872982
3.21035135254
2.16226240725
0.0889418625127
0.0888743728271
0.0885394668231
0.0878229339245
0.0867635684317
0.0855826514892
0.0847671321478
0.0858465732014
0.0950205643195
0.138516081354
0.295195951721
0.671686052984
1.26962848814
1.98242494366
2.68201922964
3.23878948927
3.52619629959
3.42152780006
2.82964317146
1.75326922745
0.114567305839
0.114328868551
0.11388435839
0.113183154172
0.112271541219
0.111318547237
0.110697230185
0.111662136778
0.119594667401
0.15903310701
0.310669671437
0.68184019133
1.24113075072
1.85567385709
2.40620247306
2.78667134964
2.90373802613
2.69232891683
2.12242610601
1.2776170115
0.150911030719
0.149716307508
0.17672010135
0.197034470171
0.21545156753
0.236991627566
0.268768689588
0.281052620177
0.332036874469
0.331682517914
0.395207567238
0.385083232233
0.448646621146
0.436659159127
0.487430202333
0.485668344862
0.51401008872
0.532425059543
0.534266433298
0.57907883365
0.554281509748
0.626726410074
0.57767287674
0.676413510421
0.606387673125
0.72841286737
0.640652940458
0.782876247432
0.679977041408
0.839781067145
0.723611660874
0.899080446569
0.771105118832
0.960667604973
0.822303217803
1.0243561464
0.877080270485
1.09001269716
0.935631715028
1.15737770006
0.998094978649
1.22603163027
1.06413038552
1.29539177302
1.13309733107
1.364318628
1.20286191663
1.43134825372
1.27166458751
1.49377682362
1.33479035399
1.54783185322
1.37894279947
1.58735529749
1.3841457699
1.60457959832
1.32551814352
1.59348569511
1.1903932709
1.55532993948
1.01164230342
1.4996304569
0.874812919412
1.41349654067
)
;

boundaryField
{
    inletfuel
    {
        type            turbulentIntensityKineticEnergyInlet;
        intensity       0.05;
        value           nonuniform 0();
    }
    inletair
    {
        type            turbulentIntensityKineticEnergyInlet;
        intensity       0.05;
        value           nonuniform 0();
    }
    outlet
    {
        type            inletOutlet;
        inletValue      uniform 1;
        value           nonuniform List<scalar> 
26
(
0.114996101113
0.114898006866
0.114752347642
0.114676322695
0.114567305839
0.114328868551
0.11388435839
0.113183154172
0.112271541219
0.111318547237
0.110697230185
0.111662136778
0.119594667401
0.15903310701
0.310669671437
0.68184019133
1.24113075072
1.85567385709
2.40620247306
2.78667134964
2.90373802613
2.69232891683
2.12242610601
1.2776170115
0.874812919412
1.41349654067
)
;
    }
    axis
    {
        type            empty;
    }
    leftside
    {
        type            kqRWallFunction;
        value           nonuniform List<scalar> 
32
(
0.149716307508
0.197034470171
0.236991627566
0.281052620177
0.331682517914
0.385083232233
0.436659159127
0.485668344862
0.532425059543
0.57907883365
0.626726410074
0.676413510421
0.72841286737
0.782876247432
0.839781067145
0.899080446569
0.960667604973
1.0243561464
1.09001269716
1.15737770006
1.22603163027
1.29539177302
1.364318628
1.43134825372
1.49377682362
1.54783185322
1.58735529749
1.60457959832
1.59348569511
1.55532993948
1.4996304569
1.41349654067
)
;
    }
    burnerwall
    {
        type            kqRWallFunction;
        value           nonuniform 0();
    }
    front
    {
        type            wedge;
    }
    back
    {
        type            wedge;
    }
    procBoundary1to0
    {
        type            processor;
        value           nonuniform List<scalar> 
27
(
6.48809727127
6.4607480481
6.40620432472
6.33323275097
0.51248749652
0.429472859843
0.35517185019
0.284354258025
0.194351977692
0.108038492235
0.0996772754708
6.16869666512
5.84669448386
5.45376545944
4.97894536571
4.27801333848
2.9927821387
1.79768782418
1.26328730647
1.12249145034
1.09711002017
1.03661557827
0.898174607829
0.730139920127
0.730139920127
0.132973691006
0.134760532816
)
;
    }
}


// ************************************************************************* //
