/*--------------------------------*- C++ -*----------------------------------*\
  =========                 |
  \\      /  F ield         | OpenFOAM: The Open Source CFD Toolbox
   \\    /   O peration     | Website:  https://openfoam.org
    \\  /    A nd           | Version:  7
     \\/     M anipulation  |
\*---------------------------------------------------------------------------*/
FoamFile
{
    version     2.0;
    format      ascii;
    class       volScalarField;
    location    "0.05";
    object      N2;
}
// * * * * * * * * * * * * * * * * * * * * * * * * * * * * * * * * * * * * * //

dimensions      [0 0 0 0 0 0 0];

internalField   nonuniform List<scalar> 
815
(
0.686363801693
0.686928601905
0.688158471771
0.690510154046
0.690921251576
0.691818845329
0.701855104697
0.702123895873
0.702763217092
0.728682105238
0.728757204687
0.729106057869
0.752782805388
0.752751798485
0.752846219589
0.761666454053
0.761654187667
0.761673550724
0.764167142689
0.764165790635
0.764170715333
0.764986175094
0.764986525369
0.764987810434
0.765339619677
0.765339855691
0.765340238382
0.765535509629
0.765535767349
0.765536171784
0.765667215214
0.765667622266
0.765668352374
0.765770597066
0.765771139996
0.765772246078
0.765860955832
0.76586169926
0.765863213428
0.765946024664
0.765946886936
0.765948717709
0.766028720027
0.766029706956
0.766031825162
0.766110382631
0.766111472629
0.766113834778
0.766191423273
0.766192584839
0.766195140581
0.766271481639
0.766272744004
0.766275483411
0.766350410037
0.766351745977
0.766354620602
0.766427838902
0.766429219156
0.76643217105
0.766503287543
0.766504693666
0.766507669571
0.766576390371
0.766577761536
0.766580680535
0.766646531023
0.766647831645
0.766650624262
0.766712948855
0.766714175316
0.766716795179
0.766774935307
0.766776065753
0.766778467562
0.766831680706
0.76683270016
0.766834853852
0.766882528507
0.766883413094
0.766885282782
0.7669269531
0.766927686106
0.766929246904
0.766964610785
0.766965188384
0.766966442255
0.766995114297
0.766995573268
0.766996568952
0.767018643351
0.767019000978
0.767019781584
0.689851099051
0.69305993375
0.70367150799
0.72966011471
0.753029515209
0.761715650859
0.764180397382
0.764990034267
0.765340873813
0.765536774721
0.765669396059
0.765773806465
0.765865336454
0.765951288026
0.766034798724
0.766117152365
0.766198730681
0.766279319441
0.766358632273
0.766436279819
0.76651180313
0.766584734174
0.766654505239
0.766720437803
0.766781805379
0.766837838573
0.766887871787
0.76693141437
0.766968190849
0.766997960743
0.767020871457
0.755073037003
0.756636276955
0.758142496129
0.75991833532
0.762289038045
0.764922278456
0.766416578775
0.693604276569
0.7007791433
0.709640164629
0.718987742891
0.727456460918
0.734094197163
0.738644542449
0.741589504806
0.743948036411
0.746460175338
0.749263280652
0.752052356915
0.754493260229
0.756394178919
0.757731643081
0.758678108835
0.759763675798
0.761764753876
0.764646414718
0.766294857651
0.695829681816
0.701205951589
0.708023444638
0.715500568796
0.722768068444
0.729240837929
0.734845237522
0.739844559922
0.744484010483
0.748756755978
0.752501491432
0.755507287345
0.757670813543
0.759041343372
0.759782832747
0.760126566861
0.76059141674
0.762088891047
0.764795876438
0.766237742693
0.705738146651
0.70996197276
0.715567865177
0.722102775695
0.729009638815
0.735787347231
0.742013119728
0.747384690272
0.751796964975
0.755275383505
0.757845283437
0.75959721364
0.760698998508
0.761302451008
0.761538619316
0.761580739397
0.761832366293
0.763014238568
0.76517619294
0.766181513433
0.730971248073
0.73386012919
0.737735251333
0.742188298855
0.746722843193
0.750944778406
0.754510902797
0.757223344862
0.759153135212
0.760540016885
0.761523634248
0.762178032346
0.762565244004
0.762741055632
0.762773345659
0.762800119181
0.763088323633
0.764025020235
0.765518473264
0.766091577066
0.753499450717
0.754541810234
0.755906839404
0.757441430631
0.758971008027
0.76025980562
0.761262540726
0.762019418757
0.762592239355
0.763024308175
0.763335512033
0.763533888393
0.763635365936
0.763667761529
0.763685183109
0.763791344378
0.764121704369
0.764815815063
0.765728039252
0.765962815722
0.761826175034
0.762069938276
0.762386905864
0.762750208241
0.763104680564
0.763412236175
0.763666401215
0.763872415679
0.764037263103
0.764163953168
0.764251155538
0.764299570696
0.764319761138
0.764336180114
0.764391827286
0.764546422942
0.764849654564
0.765322688496
0.765812789393
0.765813064228
0.764205575137
0.764258900246
0.76432731885
0.7644058381
0.764485820972
0.764561108018
0.764628246992
0.764686426167
0.764734457355
0.764770699798
0.764793786588
0.764806660666
0.7648201688
0.764854134362
0.764935329367
0.765089183462
0.765323098493
0.765608152969
0.765811613969
0.765664718494
0.764995627316
0.765006848694
0.765021508331
0.765039329154
0.765059136185
0.765079980558
0.765101160598
0.765122206417
0.765141945022
0.765159065488
0.765173487652
0.765188883155
0.765214004762
0.765261680195
0.765344734271
0.765467929554
0.76561796395
0.765750875657
0.765763853772
0.765532789971
0.7653424366
0.765345437765
0.76534959442
0.765355370482
0.765363146007
0.765373552571
0.765387247489
0.765404493922
0.7654245903
0.765446382574
0.765469691612
0.765496904428
0.765533202586
0.765584635989
0.765653677988
0.765733318667
0.765800862601
0.765812634415
0.765699185987
0.765422338405
0.765538152682
0.765540883094
0.765544914907
0.765550892295
0.765559684568
0.765572518024
0.765590656261
0.765614767313
0.765644291867
0.765677736402
0.765713892908
0.765752938
0.765796182704
0.7658438245
0.765891096753
0.765924018774
0.765917024476
0.765833294444
0.765634994528
0.765331294409
0.765671685681
0.765676384715
0.7656832699
0.765693058669
0.765706797088
0.765725927028
0.765751952906
0.765785703051
0.765826552013
0.765872445547
0.765920845134
0.765969544811
0.766016192406
0.766056068738
0.766078868295
0.766066318929
0.765993382039
0.765834133815
0.765577249813
0.76525413276
0.765777257138
0.765784485075
0.765794978606
0.765809472378
0.765829046193
0.765855162948
0.765889356177
0.765932450176
0.765983663396
0.76604038705
0.766098842285
0.766154677279
0.766202350014
0.766232942361
0.76623140397
0.766176302071
0.766045031913
0.765825162839
0.765525597778
0.76518483755
0.765869987251
0.76587973215
0.765893773592
0.765912845656
0.765937981766
0.765970551319
0.766011974367
0.766062950556
0.766122499674
0.766187561494
0.766253382209
0.766313890898
0.766360902362
0.766381780433
0.76635689214
0.766261842872
0.766078828671
0.765809609458
0.765476741707
0.765118434933
0.765956981311
0.765969005363
0.765986246485
0.766009403573
0.766039409534
0.766077460725
0.766124752223
0.766181752529
0.766247256396
0.766317870431
0.766388180013
0.76645089474
0.766495762671
0.766506720165
0.766459236075
0.766326486378
0.766097327773
0.765787444417
0.765427305592
0.76505108945
0.766041412615
0.766055425421
0.766075433764
0.766102072189
0.766136133179
0.766178581378
0.766230303417
0.766291447045
0.766360551294
0.766433982859
0.766505947435
0.76656840712
0.766609478007
0.766609771747
0.766539926655
0.766371031694
0.766100925293
0.765757478631
0.765373824517
0.764979883715
0.766124557238
0.76614025611
0.766162578222
0.76619206786
0.766229344769
0.766275097772
0.76632984626
0.766393353141
0.7664638724
0.766537600003
0.766608674848
0.766668391853
0.76670368928
0.766692302903
0.766599564767
0.766395648663
0.766089347631
0.76571795537
0.765313638608
0.7649029418
0.766206772231
0.766223835917
0.766248004158
0.766279702474
0.766319351597
0.766367335272
0.76642377175
0.766488007365
0.766558083142
0.766629942267
0.766697579863
0.766752265448
0.76677999412
0.76675536968
0.766638243974
0.766400178639
0.766062290771
0.765667479851
0.765245054693
0.76481919914
0.766287886572
0.766305993989
0.766331526692
0.766364777428
0.766405952246
0.766455112381
0.766512028796
0.766575553832
0.76664333277
0.766711328427
0.766773615023
0.766821450077
0.766839892618
0.766799874213
0.766655983361
0.76638459462
0.766019629514
0.765605196037
0.765167157207
0.764728172124
0.766367572058
0.766386380818
0.766412774658
0.766446911908
0.766488793812
0.766538121197
0.76659421629
0.766655576476
0.76671957455
0.766782187027
0.766837676949
0.766877276609
0.766884737232
0.766826417145
0.766652701112
0.766349417128
0.765961611572
0.765530809399
0.765079657416
0.764629834712
0.766445420048
0.766464574693
0.766491324045
0.766525666475
0.766567352196
0.766615779102
0.766669880388
0.766727827295
0.766786837751
0.766842969165
0.766890679289
0.766920976919
0.766915544042
0.766835038047
0.766628237897
0.766295365464
0.765888647371
0.765444396125
0.764982693834
0.764524588619
0.76652097447
0.766540093046
0.766566648275
0.766600480831
0.766641104343
0.766687629212
0.766738674314
0.766792175508
0.766845295486
0.766894227467
0.766933535839
0.766953571557
0.766932686521
0.766824898535
0.766582480277
0.766223275421
0.765801209554
0.76534629905
0.764876781561
0.764413226375
0.766593732128
0.766612418263
0.766638232306
0.766670860254
0.766709602727
0.766753324127
0.76680041233
0.766848674319
0.766895303028
0.766936624512
0.766967088635
0.766975617499
0.766935437881
0.766794229535
0.766515295817
0.766133792312
0.765699708603
0.765237083144
0.76476288995
0.764297104858
0.766663129473
0.766680993918
0.766705542307
0.766736320501
0.766772450559
0.766812610527
0.766855044623
0.766897528577
0.766937333423
0.766970828889
0.766991919556
0.766986805511
0.766921455792
0.766740548386
0.766426726577
0.766027476458
0.765584747251
0.765117792213
0.764642586806
0.764178078707
0.766728517484
0.766745207375
0.766768017199
0.766796385442
0.766829296952
0.766865316817
0.766902627004
0.766939040117
0.766971890692
0.766997362829
0.767008030908
0.766985337921
0.766886599755
0.766661509901
0.766317364777
0.765905333786
0.76545782848
0.764990636818
0.764518681016
0.764059022505
0.766789192346
0.766804407286
0.766825087555
0.766850599391
0.76687984452
0.766911345327
0.766943290805
0.76697355187
0.766999415902
0.767016423908
0.767014449932
0.766967476289
0.766826048935
0.766556771927
0.766189409017
0.765769995412
0.765322319318
0.764859564393
0.764395171848
0.763943501742
0.766844425041
0.766857935146
0.76687620233
0.766898552626
0.766923866271
0.766950680253
0.766977233986
0.767001415677
0.767020213061
0.767027694518
0.767008833742
0.76692800919
0.766737243294
0.766429980448
0.766048026776
0.765627159027
0.765184589022
0.76473146106
0.764279182831
0.763836638311
0.766893574328
0.766905236414
0.766920925865
0.766939968118
0.766961273332
0.766983437509
0.767004755349
0.767023015868
0.767034465142
0.76703034448
0.766987939447
0.766863581898
0.766624429167
0.766290474922
0.765903060082
0.765487433104
0.765056086051
0.764617528772
0.764178882478
0.763741870741
0.766936191488
0.766945955273
0.766959031072
0.766974780317
0.766992183193
0.767009922095
0.767026319573
0.767038888448
0.767042520063
0.767023890362
0.766950719541
0.766779074315
0.766501924578
0.766154891301
0.765770970161
0.765367023146
0.764951647803
0.764529854226
0.764102845353
0.763661873073
0.766972056299
0.766979971369
0.766990533711
0.767003166082
0.767016952141
0.76703068193
0.767042694201
0.76705010937
0.767045990033
0.76701116263
0.766904655368
0.76669216484
0.766392562318
0.766044587306
0.765671389379
0.765283623502
0.764886147362
0.764479574769
0.76405760189
0.763596409671
0.767001027546
0.76700729738
0.767015632332
0.767025532307
0.767036207533
0.767046595219
0.767055138132
0.767058777663
0.767049107605
0.767001337064
0.766867836508
0.766628166089
0.766320367711
0.765979491451
0.765620544214
0.765249401236
0.764867301801
0.764469950206
0.764042757106
0.763541557143
0.767023266798
0.767028156545
0.767034639965
0.767042300334
0.76705048414
0.767058311403
0.767064470054
0.767066262254
0.767055773465
0.767007403054
0.766866577379
0.766613384884
0.766302442357
0.765968617001
0.765620430208
0.765259572836
0.764884283932
0.764486313288
0.764044450204
0.763495496495
0.766028186606
0.765764339942
0.765819779662
0.765516888085
0.765637548143
0.765345814705
0.765515305616
0.765257319437
0.765442279447
0.765215347201
0.765382962128
0.765182054171
0.765316854544
0.765139005827
0.765241722274
0.765083361366
0.76516317733
0.765019269706
0.765086086042
0.764951009343
0.765012219579
0.764880883281
0.764940644204
0.764809111575
0.764869496519
0.76473495584
0.764796669521
0.764657342277
0.764720339484
0.764575270502
0.764639121256
0.764488041724
0.76455216228
0.764395232478
0.764459121128
0.76429680016
0.764359908459
0.764192885951
0.764254863403
0.76408395739
0.764144579708
0.763970698617
0.764029903338
0.763854079202
0.763912053624
0.76373523122
0.763792451625
0.763615540786
0.763673189357
0.763496461328
0.763556567783
0.763378550986
0.763442660093
0.763261102498
0.76333100694
0.763142273067
0.763219440532
0.763020870997
0.763107063122
0.76290075534
0.76300038852
0.762796977068
0.762921771565
0.762731861788
)
;

boundaryField
{
    inletfuel
    {
        type            fixedValue;
        value           nonuniform 0();
    }
    inletair
    {
        type            fixedValue;
        value           nonuniform 0();
    }
    outlet
    {
        type            zeroGradient;
    }
    axis
    {
        type            empty;
    }
    leftside
    {
        type            zeroGradient;
    }
    burnerwall
    {
        type            zeroGradient;
    }
    front
    {
        type            wedge;
    }
    back
    {
        type            wedge;
    }
    procBoundary1to0
    {
        type            processor;
        value           nonuniform List<scalar> 
27
(
0.680060763976
0.680848411656
0.682549000653
0.684877734827
0.756262087236
0.757680463531
0.759367788878
0.761316959951
0.763529576586
0.765579427376
0.766648743426
0.6899998087
0.699607903765
0.711177604388
0.723068231505
0.733551989608
0.741476262872
0.746324970427
0.748529253596
0.74929591417
0.749690920991
0.750410255875
0.751705526475
0.753365528283
0.753365528283
0.766250089825
0.766007646246
)
;
    }
}


// ************************************************************************* //
