/*--------------------------------*- C++ -*----------------------------------*\
  =========                 |
  \\      /  F ield         | OpenFOAM: The Open Source CFD Toolbox
   \\    /   O peration     | Website:  https://openfoam.org
    \\  /    A nd           | Version:  7
     \\/     M anipulation  |
\*---------------------------------------------------------------------------*/
FoamFile
{
    version     2.0;
    format      ascii;
    class       volScalarField;
    location    "0.05";
    object      nut;
}
// * * * * * * * * * * * * * * * * * * * * * * * * * * * * * * * * * * * * * //

dimensions      [0 2 -1 0 0 0 0];

internalField   nonuniform List<scalar> 
815
(
0.00193062000849
0.00192881176874
0.00192637172927
0.0022363951323
0.002232827888
0.00222637698439
0.00223733489415
0.00223272220576
0.00222246404659
0.00132926639691
0.00132976151844
0.00132251830071
0.000478702437484
0.00048069064604
0.000479141172558
0.000272089296897
0.000272140253684
0.000272674537268
0.000357702060401
0.00035722938885
0.000358064787035
0.000496678379451
0.000496508645093
0.000496532544734
0.000588612010779
0.00058829607336
0.000587535676113
0.000636801908852
0.000636322695045
0.000635160387629
0.00065535552226
0.000654856361091
0.000653635150864
0.000655909051233
0.000655393702596
0.000654200825389
0.000645709921531
0.000645306348419
0.000644346001185
0.000630018046461
0.000629690226998
0.0006289120256
0.000611039206346
0.000610794358879
0.000610209808024
0.000589990569061
0.000589829430527
0.00058943268606
0.000567554169342
0.00056744940158
0.000567191061564
0.000543933856184
0.000543881248795
0.000543754776217
0.000519448506276
0.000519438325574
0.000519421453689
0.000494494000392
0.000494512837346
0.000494576411088
0.000469549991059
0.000469591563741
0.000469718653554
0.000445311213872
0.000445370260384
0.000445537248528
0.00042259866121
0.000422664351852
0.00042284530053
0.000402280758054
0.000402339610116
0.00040251471819
0.00038514881581
0.000385195884273
0.000385349924824
0.000371745070559
0.000371780594041
0.000371909549355
0.000362149861177
0.000362176604615
0.0003622827285
0.000355206603611
0.000355224404061
0.000355308294707
0.000341384401265
0.000341386097142
0.000341436377767
0.000259626524487
0.000259507732005
0.000259383844313
0.000140384663481
0.000140240636622
0.000140052281882
0.00192351827529
0.00221833538386
0.002208828346
0.00130952907429
0.000475440717373
0.000273469639544
0.000359716511002
0.000496792463931
0.00058657952883
0.000633609958378
0.000651950367182
0.000652571233853
0.000642986865716
0.000627807948184
0.00060937272388
0.000588849355423
0.00056681851219
0.000543571474344
0.000519400131808
0.000494681484172
0.000469921888383
0.000445808342597
0.000423152854243
0.000402830598961
0.000385654985539
0.000372195290352
0.000362547034774
0.000355548917335
0.000341646912644
0.000259469026683
0.000139976522098
0.000480049971545
0.000451258690749
0.000447793405223
0.000444067802824
0.000374033641198
0.000245250412721
0.000258326111488
0.00191801755478
0.00189485200969
0.00183070867155
0.00170520000664
0.00151782506105
0.00128979639921
0.00108516499634
0.000959759981834
0.000880132948726
0.000794701831864
0.000683023710846
0.000567645987609
0.000477136122658
0.000423430207721
0.000411587923298
0.000446305971171
0.000495754160294
0.00045384663061
0.000293938720861
0.000298263233143
0.0022006372546
0.00215908414879
0.0020835661699
0.00196132678722
0.00178602240513
0.0015615906151
0.00131375029546
0.00107930706295
0.000871352104056
0.000692823956386
0.0005436870862
0.000433940455685
0.000369930285191
0.000351304531353
0.000376574557644
0.000441500976949
0.000511910675415
0.000479823619602
0.000322174327455
0.000345663792079
0.0021771225584
0.00210096040528
0.00197404809323
0.00178430872354
0.00153248169504
0.0012431878488
0.000961551312778
0.000730914809821
0.000559704688053
0.000437318091973
0.000356122802702
0.00031383442399
0.000308783382945
0.000338032406684
0.000394902356783
0.000462111873758
0.000507817228471
0.000464373770258
0.000351155435637
0.000416708780169
0.00127632312081
0.00118987013524
0.00106250893152
0.00090426422389
0.000735824023894
0.000578148220399
0.000451808060105
0.000365459995365
0.000311638744931
0.000280720938654
0.000271054705969
0.000284761314227
0.00032180005961
0.000376204499713
0.000435265668968
0.000480848690549
0.0004957070065
0.000457466375679
0.000410245231674
0.000535766694202
0.000464967025332
0.00043696862172
0.000399240732437
0.000356921053748
0.000317030716929
0.000286487662906
0.000266361211071
0.000255372861756
0.000253296455714
0.000262184296825
0.000284904847692
0.000322040855979
0.000370016296007
0.000420974374865
0.000464530727735
0.00049268796807
0.000500895259841
0.000492364285487
0.000516978833325
0.000705190148379
0.000275221878292
0.000277323148345
0.000279185607449
0.000280743925485
0.000281465947551
0.000281037497074
0.000280680292301
0.000283141487391
0.000291816479193
0.000309295263094
0.000336208116778
0.000370749414406
0.000409416186679
0.000447977579245
0.000482154077772
0.000510910431731
0.000536571142421
0.000573679353173
0.00067196465828
0.000899500126704
0.000363951772625
0.00037135476433
0.000376880449984
0.000377894238039
0.000373093204424
0.000364168094132
0.000354714752124
0.000349160502758
0.00035054306726
0.000360004423055
0.000377020581753
0.000400306015661
0.000428667768457
0.000461107263147
0.000497804004995
0.000541839959993
0.000600386064815
0.000693436093447
0.000861078357218
0.0010828636686
0.00049759067798
0.000497770901481
0.000493616747441
0.000482660806499
0.000464566332038
0.000441907503587
0.000419246673961
0.000401344825348
0.000391064657976
0.000389227235696
0.000395554797214
0.000409883574281
0.000432854152161
0.000466300246165
0.00051381386271
0.000581993581521
0.000682636975364
0.000838004570567
0.00106490171753
0.00123602614288
0.000584633593147
0.000579635925622
0.00056929567899
0.000551028476751
0.000524413726421
0.000492103180738
0.000459154803513
0.000430891244621
0.000410677123816
0.000399637298943
0.000397987567398
0.000406580843281
0.000427811353168
0.000466194669733
0.000528942725402
0.000627240000954
0.000777559804569
0.000999270907915
0.00126966972376
0.00135932568145
0.000630404726053
0.000623085809134
0.000609952168843
0.000588215537297
0.000557148680815
0.000519184784953
0.000479509179222
0.000443944733843
0.000416480409129
0.000398697564304
0.00039126967004
0.00039590092261
0.000416685685469
0.0004610356733
0.000540727182085
0.000673091513582
0.000879958543659
0.00117114736918
0.00146927714901
0.00146341187093
0.000648425142393
0.000640550305251
0.000626788874723
0.000604159443366
0.000571568562877
0.000531054807489
0.00048766433849
0.000447513574052
0.000415126348638
0.000392514186437
0.000380695654324
0.000382046560365
0.000402266854757
0.000452112506409
0.000549333192049
0.000719622940293
0.000990211626054
0.00135171469358
0.00166345046686
0.00155908135592
0.000649199063511
0.000641792851506
0.000628710015969
0.000606786906458
0.000574584924574
0.000533693192324
0.000488853907599
0.000446263214479
0.000410827838617
0.000384899905717
0.000369692465279
0.000367999566568
0.000386907308111
0.000440873260828
0.000555356858378
0.000767498958406
0.00110884510295
0.00153921535673
0.00185281346479
0.00165325638736
0.000640120759982
0.000633727226136
0.000621993658345
0.000601637658134
0.00057093676421
0.000531058064657
0.000486367005122
0.00044297301823
0.000406008227784
0.000378061767497
0.000360401534632
0.000355968211603
0.000372937874934
0.000429754255787
0.000561774575547
0.000821100578611
0.00123886504794
0.00173253215037
0.00203832713962
0.00174951667902
0.000625492437986
0.000620289087718
0.000610158736242
0.000591744557523
0.00056312895427
0.000525132052225
0.000481734248384
0.000438840599767
0.000401656268941
0.000372903658543
0.000353800055542
0.00034718331093
0.000361992415416
0.000421098457004
0.000572308081745
0.000884966367345
0.00138323335575
0.0019308057954
0.00222141194535
0.00184937228607
0.000607628427072
0.000603634088833
0.000595135097036
0.000578762906651
0.000552498092915
0.000516908015724
0.000475619843621
0.000434261819472
0.000397976727137
0.0003695268672
0.000350019846028
0.000342050534293
0.000355233241821
0.000417240620053
0.000591183856696
0.000965142938064
0.00154479877385
0.00213454864586
0.0024045886268
0.00195305188877
0.000587645020291
0.000584782692143
0.000577827459481
0.000563457728094
0.000539636072053
0.000506770418505
0.000468186154714
0.000429186371151
0.000394736155032
0.00036755633905
0.000348609500186
0.000340307910027
0.000352826508927
0.00041964730481
0.000622660319848
0.00106705959895
0.00172565583051
0.00234535070257
0.00258999193973
0.00206011617514
0.000566088999084
0.000564239922723
0.000558687797891
0.000546214630422
0.000524840559979
0.000494894927131
0.000459446944728
0.000423443119633
0.000391546299019
0.000366421720479
0.000348919867216
0.000341235179345
0.000354441969802
0.00042979188509
0.000671777701371
0.00119638325986
0.00192745448307
0.0025649031337
0.0027793273232
0.00217048272319
0.000543266857928
0.000542299709129
0.000537994698493
0.000527297047204
0.000508341771815
0.000481438679037
0.000449406775135
0.000416864176822
0.000388160677259
0.000365705618361
0.000350237943969
0.000343954801052
0.000359619997007
0.000449612001724
0.000744428203673
0.00135817976765
0.00215135087292
0.00279502938524
0.00297391184122
0.00228406847307
0.000519459231965
0.000519231874352
0.000516019192938
0.000506974936881
0.000490381536984
0.000466588581589
0.000438256092614
0.000409574071489
0.000384460276053
0.000365037456558
0.000351958967252
0.00034774192825
0.000368354855445
0.000482470017429
0.000847789717215
0.0015558837836
0.00239787325535
0.00303737578099
0.00317486488709
0.00240105387888
0.000495031567621
0.000495398068524
0.000493125173275
0.000485620103482
0.000471377396514
0.000450796563093
0.000426347537171
0.000401769113221
0.000380462012894
0.000364216493765
0.000353689667933
0.000352259029954
0.000381744223964
0.00053416425049
0.000990068021724
0.00179173251388
0.00266773842844
0.0032933806865
0.00338303066148
0.00252158815108
0.000470497858524
0.000471318634369
0.00046985854021
0.000463818807462
0.00045192441477
0.000434627043164
0.000414168449095
0.000393785020896
0.000376310034744
0.000363200459026
0.000355301955352
0.000357781218746
0.000402871917843
0.00061391466196
0.00117957009357
0.00206684689734
0.00296198014404
0.00356424283245
0.00359881104187
0.00264554826883
0.000446539277269
0.00044769065461
0.0004469413198
0.000442312465125
0.000432761894297
0.000418768501373
0.00040229609171
0.000386031264565
0.000372229183823
0.000362089680649
0.000356990795029
0.000365607015288
0.000438203488955
0.00073477338866
0.00142401387909
0.00238217033182
0.0032818729097
0.00385051312553
0.00382140817821
0.00277195378027
0.000423973537295
0.00042535420551
0.000425237460588
0.000421974426986
0.00041473701595
0.000403983500976
0.000391346121584
0.00037894189718
0.000368498720204
0.000361140946341
0.000359414262901
0.000379002161007
0.000499639863246
0.000913180785193
0.00172932496049
0.00273858530631
0.00362814708246
0.00415119533112
0.00404792670727
0.00289746498314
0.000403687946634
0.000405220501014
0.000405676053902
0.000403723423109
0.00039871105508
0.000391014915842
0.000381894064291
0.000372923496706
0.000365438113442
0.000360821107296
0.000364121652871
0.000405408799223
0.000606373948344
0.00116629612578
0.00209819395215
0.00313563946638
0.00399880912238
0.00446158562055
0.00427147262549
0.00301521457496
0.000386508831565
0.000388140944323
0.000389113923207
0.000388382738237
0.000385417785653
0.000380456766994
0.000374375945969
0.000368300653759
0.00036340651276
0.000361962073142
0.000374768196869
0.000459800144516
0.000783342958131
0.00150545329213
0.00252737790538
0.00356829692521
0.00438613451177
0.00477061376238
0.00447792126459
0.00311112772625
0.000373024853631
0.000374724809723
0.000376151050239
0.00037649709458
0.000375294773989
0.000372612659229
0.000368985958573
0.000365261436472
0.000362829405671
0.000366226513991
0.000399814008187
0.000566033225613
0.00105265222151
0.00192767192252
0.00300347188888
0.00402097709503
0.0047704287881
0.00505436859845
0.0046431527298
0.00317012501015
0.000363344259059
0.000365085348781
0.000366874787451
0.00036808380085
0.000368260642474
0.000367311765587
0.00036553478857
0.000363747766334
0.000364207592443
0.000377059717968
0.000454464513055
0.000748084936932
0.00141572775324
0.00240711578287
0.00349537881234
0.00445885023621
0.00511267034617
0.00527259015587
0.00472657751498
0.00315078070262
0.000356306477642
0.000358054387636
0.000360080615153
0.000361872913219
0.000362977660477
0.000363191811954
0.000362731172165
0.000362720945644
0.000367492734454
0.000399280149693
0.000552517145448
0.00100616938931
0.00183339218213
0.00288545119891
0.00394239448103
0.00481774009559
0.00534497138478
0.00535318395919
0.00465373995167
0.00298624862002
0.000342348593221
0.000344067769184
0.000346151238203
0.000348128174378
0.000349562106366
0.000350255757505
0.000350564847852
0.000352425365075
0.000364212418357
0.00042708117464
0.000678175453551
0.00128541677614
0.00221392084071
0.00326245040699
0.00423850438808
0.00498198600638
0.00534188780105
0.00516477019566
0.0042985251017
0.00258131441242
0.000259933568743
0.000261242945299
0.000262616831656
0.000263557079741
0.000263804051999
0.000263470946565
0.000263466573409
0.000267386849633
0.000290258700263
0.00039286934721
0.000733700258084
0.00144066099361
0.00238546060422
0.00335306828024
0.00418020032417
0.00472926800375
0.00487181706409
0.00448940812116
0.00349969949764
0.00189662407022
0.000139957616834
0.000140041276579
0.000139947249818
0.000139505406952
0.000138708865146
0.000137766266849
0.000137268274502
0.000139360134268
0.000153514687144
0.000224941690455
0.000508218832491
0.00116024138807
0.00200495166174
0.00279686633998
0.00339657040697
0.00370110850376
0.00362989430097
0.0031415205121
0.00225855824064
0.00113953455514
0.000199664710249
0.000241647593557
0.000168983675124
7.44410914951e-05
0.000168267292804
8.16625091766e-05
0.000186914067326
8.89318900304e-05
0.000219175427428
9.66106165012e-05
0.000255620297238
0.000104103553
0.000287735559111
0.000110866290321
0.000309527270943
0.000116932264878
0.000321251160497
0.000122439402258
0.000326802864792
0.000127696179879
0.000330911081067
0.000132849613731
0.000336285800399
0.000138018373174
0.000344282593998
0.00014322837394
0.000355042487351
0.000148489892113
0.000368129323264
0.000153795615406
0.000382927004623
0.000159136876589
0.000398996700526
0.000164500911113
0.000416209272741
0.000169869834849
0.000434334588442
0.000175232024132
0.000453523046477
0.000180567395397
0.000473805712086
0.000185845993166
0.000494960177422
0.000191029116159
0.000516719137918
0.000196042183987
0.000537864147746
0.000200794907344
0.000556973892098
0.000205119885132
0.000574067281275
0.000208789978152
0.000582639064188
0.00021143035108
0.00057565444047
0.000212565974354
0.000541085556889
0.000211820962493
0.000472522874162
0.000209258039579
0.000387843821835
0.000205468126817
0.000331539828586
0.000199486270425
)
;

boundaryField
{
    inletfuel
    {
        type            calculated;
        value           nonuniform 0();
    }
    inletair
    {
        type            calculated;
        value           nonuniform 0();
    }
    outlet
    {
        type            calculated;
        value           nonuniform List<scalar> 
26
(
0.000140384663481
0.000140240636622
0.000140052281882
0.000139976522098
0.000139957616834
0.000140041276579
0.000139947249818
0.000139505406952
0.000138708865146
0.000137766266849
0.000137268274502
0.000139360134268
0.000153514687144
0.000224941690455
0.000508218832491
0.00116024138807
0.00200495166174
0.00279686633998
0.00339657040697
0.00370110850376
0.00362989430097
0.0031415205121
0.00225855824064
0.00113953455514
0.000331539828586
0.000199486270425
)
;
    }
    axis
    {
        type            empty;
    }
    leftside
    {
        type            nutkWallFunction;
        Cmu             0.09;
        kappa           0.41;
        E               9.8;
        value           nonuniform List<scalar> 
32
(
0
1.4315711957e-07
1.31973215876e-06
2.49710485873e-06
3.72881615301e-06
4.91592172622e-06
5.97431929645e-06
6.91376034876e-06
7.75926394953e-06
8.56079496006e-06
9.34179250751e-06
1.01207842694e-05
1.09017427321e-05
1.16863082177e-05
1.24734804146e-05
1.32621407014e-05
1.40506083237e-05
1.48365317382e-05
1.56185586561e-05
1.63941692512e-05
1.71594586286e-05
1.79093265253e-05
1.86334771493e-05
1.93194759432e-05
1.99437876388e-05
2.04744183253e-05
2.08582938789e-05
2.10281399799e-05
2.09306691865e-05
2.05749647301e-05
2.0044612547e-05
1.9198204586e-05
)
;
    }
    burnerwall
    {
        type            nutkWallFunction;
        Cmu             0.09;
        kappa           0.41;
        E               9.8;
        value           nonuniform 0();
    }
    front
    {
        type            wedge;
    }
    back
    {
        type            wedge;
    }
    procBoundary1to0
    {
        type            processor;
        value           nonuniform List<scalar> 
27
(
0.00170712907222
0.00170703790525
0.00170784826907
0.00170999850002
0.000439121736483
0.000411507687217
0.000384260357341
0.000345441872489
0.000268236944025
0.000186552953014
0.000226797251156
0.00171666586579
0.0017196167651
0.00168244411597
0.00156013123505
0.00133472008203
0.0010161387918
0.000728978440712
0.000604148376534
0.000592674745413
0.000616442449774
0.000621152782015
0.000586188367543
0.000530115619187
0.000530115619187
0.000212314659873
0.000217829929869
)
;
    }
}


// ************************************************************************* //
