/*--------------------------------*- C++ -*----------------------------------*\
  =========                 |
  \\      /  F ield         | OpenFOAM: The Open Source CFD Toolbox
   \\    /   O peration     | Website:  https://openfoam.org
    \\  /    A nd           | Version:  7
     \\/     M anipulation  |
\*---------------------------------------------------------------------------*/
FoamFile
{
    version     2.0;
    format      ascii;
    class       volScalarField;
    location    "0.05";
    object      O2;
}
// * * * * * * * * * * * * * * * * * * * * * * * * * * * * * * * * * * * * * //

dimensions      [0 0 0 0 0 0 0];

internalField   nonuniform List<scalar> 
815
(
0.00124555228619
0.00128758613708
0.00138117807883
0.00171442489774
0.00174569022184
0.0018159126878
0.00710081909456
0.00713477258254
0.00723804525598
0.0415866438888
0.0416199170395
0.0419555168367
0.128377927041
0.128202076693
0.128519114775
0.181345656077
0.181266495144
0.18137289493
0.20021266623
0.200207365788
0.200251187775
0.207356482227
0.207364321872
0.207385009952
0.21060946762
0.210616058202
0.21062911512
0.212380488809
0.212386770162
0.212399023509
0.21351403628
0.213520995139
0.213534805641
0.214358379421
0.214365916996
0.21438170837
0.215068003488
0.215076663873
0.215094712486
0.215721943441
0.215731134483
0.215750800263
0.216352962985
0.21636276706
0.21638389381
0.216976827987
0.216987116145
0.217009445248
0.217599385978
0.217609957007
0.217633188933
0.218218886841
0.218230003205
0.218254144215
0.218834333492
0.218845825626
0.218870587504
0.219442520219
0.219454199037
0.219479212865
0.220039101424
0.220050857402
0.220075779766
0.220620526822
0.220631907336
0.220656160575
0.221181217015
0.221191960733
0.221215041842
0.221714435022
0.221724530198
0.221746106748
0.222213892234
0.222223176522
0.222242913323
0.222672534263
0.222680896246
0.222698571136
0.223084598178
0.223091850663
0.223107186574
0.223445437391
0.223451448008
0.223464250704
0.223751927784
0.223756666806
0.223766956101
0.224000614092
0.224004381711
0.22401255684
0.224192727066
0.224195664674
0.224202078091
0.00151711060924
0.00191726501284
0.00739802997149
0.0425478187597
0.129215348811
0.181616263261
0.200332247527
0.207417151376
0.210648113902
0.212416406305
0.213554263368
0.214403868867
0.215119978222
0.215778367589
0.216413515329
0.217040770607
0.217665789154
0.218287929912
0.218905136073
0.219514027525
0.22011039784
0.220689841028
0.221247116312
0.221776103779
0.222270339368
0.222723065081
0.223128422069
0.223482029003
0.22378130431
0.224023983515
0.224211031987
0.108197016574
0.124418401315
0.140086313744
0.158002632224
0.180911436891
0.205432166921
0.219039342323
0.00183759147722
0.00259995383905
0.00390335334432
0.00606810680151
0.00979086225185
0.0164493544013
0.0241171689235
0.0283684059795
0.0299955865046
0.0362430277583
0.0550623162938
0.0793063979077
0.102708542012
0.121855998868
0.135857252282
0.145996238925
0.157139202595
0.176403244353
0.203099033335
0.218076758782
0.00215583124529
0.00271086905477
0.00362740608419
0.00508172107149
0.00739730743809
0.0110640320379
0.0158745052717
0.0220231114685
0.0332293583337
0.0573841597304
0.0868403846328
0.113998605784
0.1349779692
0.148931937728
0.156895764772
0.160859541248
0.165678688851
0.179828799443
0.204642896402
0.217708962757
0.00779199653477
0.00881163908117
0.0105730839127
0.0134882983899
0.0183241672389
0.0264979660018
0.0402522081756
0.0632756148137
0.0899374865335
0.116060202095
0.138218809838
0.154669140044
0.165635694734
0.171973655274
0.174703705235
0.175383019888
0.177796155962
0.188649584981
0.208245206356
0.217366613732
0.0440525257256
0.0480471813395
0.054780984255
0.0653101001981
0.0813431290263
0.100830409588
0.120606674168
0.138617471242
0.153236892973
0.164982492427
0.174060914381
0.18048287692
0.184482123156
0.186429701228
0.186889689624
0.187125809647
0.18964415622
0.19805517118
0.211471462966
0.216736779601
0.13109376753
0.135522140388
0.141789963861
0.149677527433
0.158581134851
0.166871249622
0.174014211666
0.179998476826
0.184941577837
0.188944315002
0.191984446806
0.194002594714
0.195076138273
0.19542500612
0.195529542605
0.196353779709
0.19918345789
0.205334770834
0.213492963127
0.215772141886
0.18226744634
0.183742178224
0.185747851551
0.188210912253
0.190801838041
0.193232532401
0.195406588958
0.197289255829
0.198864156781
0.200105335316
0.20096455254
0.201426479199
0.201577084881
0.201634713788
0.201996874935
0.203230241651
0.205820828204
0.209989588925
0.214391756758
0.214618867356
0.200540198181
0.20098167018
0.201568876419
0.202277771114
0.203045355175
0.203808191077
0.204512696655
0.205121810136
0.205602749024
0.205931267561
0.206094519038
0.206123829488
0.206124157011
0.206284030371
0.206860060836
0.208103206692
0.210104380375
0.212625983297
0.214515161164
0.213461028162
0.207494061402
0.207650599888
0.207862054177
0.208124544519
0.208419854498
0.208723170362
0.209006158717
0.209243091331
0.209411427087
0.209500469113
0.209520167228
0.209518413587
0.209588605535
0.209860548142
0.210465630501
0.211464561036
0.212755806758
0.21396517416
0.214207743971
0.212423168675
0.210691443414
0.210779580227
0.210900763657
0.211054726964
0.211234520248
0.211428528109
0.211620528792
0.211792606309
0.211928797208
0.212023684662
0.212091477188
0.212173352309
0.212334698906
0.212646778178
0.213147905821
0.21379080034
0.214387429517
0.214565157425
0.213729502088
0.211549848747
0.212454966642
0.212534224259
0.212645016518
0.212788682832
0.212963195816
0.213163174302
0.213378575048
0.21359538292
0.21379908686
0.213982270881
0.214152237104
0.214333290335
0.214558764974
0.214849169272
0.215178410512
0.215436656127
0.215409739958
0.214784182789
0.213234966458
0.210827640551
0.213596898917
0.213685471719
0.213810662588
0.213975153495
0.214179820985
0.214422937472
0.214698087237
0.214993124905
0.21529233525
0.215582683659
0.215859973559
0.216128600566
0.216390957275
0.216625382939
0.216757975271
0.21664208827
0.216068424198
0.214815868046
0.21278161996
0.210214447079
0.214452687897
0.214555312434
0.214701356693
0.214894486222
0.215137416096
0.2154307509
0.215770441557
0.216145308762
0.216537574335
0.216927681541
0.217299264391
0.217637618673
0.217917791021
0.218082689518
0.218019064706
0.217555016002
0.216502939818
0.214754006645
0.212372196139
0.209663392327
0.21517543825
0.215292206993
0.215458753538
0.215679493985
0.215958225385
0.216296970534
0.216693175147
0.217136178743
0.217606174511
0.218077708542
0.218523666674
0.218912996916
0.219197669145
0.219289654325
0.219038919142
0.218251224145
0.216779893722
0.214632292155
0.21198329087
0.209135359974
0.215839384122
0.215968639479
0.216153068907
0.216397394319
0.216705832433
0.217081000195
0.217520996206
0.218015263034
0.218542384138
0.219072318321
0.219569592675
0.219990470484
0.220268336245
0.220286774403
0.219857254903
0.218767850965
0.216927098452
0.214454849903
0.211589362165
0.2086000174
0.21647933387
0.216619120775
0.216818325511
0.217081561953
0.217412876338
0.217814710962
0.21828499989
0.2188128093
0.219375503661
0.219939873425
0.220464657955
0.220897168111
0.221155568149
0.22109624834
0.220492498573
0.219117332921
0.2169521999
0.21421443232
0.211163403371
0.208034216954
0.217110615301
0.217258998238
0.217469905273
0.217747477511
0.218095072843
0.218514271097
0.219002091917
0.219546737091
0.220124600183
0.22070059118
0.221230661907
0.221654235471
0.221878031812
0.221734326351
0.220954432958
0.219305134091
0.216855582343
0.213898098007
0.210684465228
0.207423047287
0.217738712143
0.217893694162
0.218113283455
0.218400800025
0.218758484865
0.219186505468
0.219680358302
0.220226979604
0.220802620499
0.221370224602
0.221883237335
0.222278594813
0.222453438687
0.222213883841
0.221247546862
0.219332619236
0.216636171458
0.213495180675
0.210139137381
0.206758032827
0.218363340243
0.21852297837
0.218748230239
0.219041399677
0.219403320675
0.219832343634
0.220322557177
0.220858692403
0.221415456797
0.221956559227
0.222435202972
0.222786422282
0.222898027464
0.222545656155
0.221374620012
0.219201093705
0.216293576818
0.212999004144
0.209520131883
0.20603531222
0.218982111286
0.219144300248
0.219372061244
0.219666626002
0.220027396003
0.220450362843
0.220927041676
0.221440873135
0.221965903381
0.222466724428
0.222897608321
0.223192019811
0.223225762052
0.222736895581
0.221336589358
0.218915411823
0.215829949593
0.212407220005
0.208825120934
0.205254659933
0.219591475303
0.219753979802
0.219981062108
0.220272644792
0.220626231876
0.221035787778
0.221490505537
0.221972439375
0.222455712579
0.222906356404
0.223280035683
0.223507447633
0.223446643501
0.222789285599
0.221132889592
0.218481460669
0.215248513971
0.211720370903
0.208055166382
0.204419248812
0.220187217787
0.220347521009
0.220570291323
0.220854156795
0.221194801063
0.221584166883
0.222009532103
0.222452009252
0.222886339347
0.22328034293
0.223590526577
0.223741666384
0.223564352347
0.222696580123
0.220762677663
0.217905743302
0.214552893706
0.210941102388
0.207214322415
0.203535355571
0.220764607157
0.220919992422
0.221134726851
0.221406172377
0.221728357787
0.222091457505
0.222481344266
0.222878800892
0.223259615208
0.223593237989
0.223835324134
0.223898828441
0.223572904431
0.222444470367
0.220224575539
0.217193117588
0.213746196015
0.210073827343
0.206310253105
0.202613736812
0.221318389876
0.221466103947
0.221669129744
0.221923687851
0.222222414262
0.22255413788
0.222903902805
0.2232527477
0.223577668524
0.223848895872
0.224017829392
0.22397550091
0.223452928499
0.222012620119
0.219518437415
0.216347745921
0.212833065564
0.209126769105
0.205355375852
0.201669099455
0.221842639821
0.221980129367
0.222168057426
0.222401773602
0.222672845218
0.222969304126
0.223275925503
0.223574397851
0.22384263497
0.224049703767
0.224136513795
0.223956138087
0.223170561216
0.221381677322
0.218648486446
0.215377363038
0.211825316108
0.208117421205
0.204371959902
0.200724244326
0.222331037293
0.222456088387
0.222626069078
0.222835747089
0.223076050436
0.223334749754
0.223596839393
0.223844720521
0.224056216717
0.224195505969
0.224182121791
0.223809798032
0.222686569556
0.220548250026
0.217631774416
0.214302654163
0.21074957854
0.20707706888
0.203391722319
0.199807455026
0.222777118706
0.222888016593
0.223037966525
0.223221417414
0.223429150184
0.223649115853
0.223866830132
0.224065006883
0.224219284845
0.224282302123
0.224134740675
0.22349403627
0.221979828703
0.219540739328
0.216509014692
0.213168691046
0.209656329019
0.20606032436
0.202471174678
0.198959366813
0.223175197488
0.22327087406
0.223399592851
0.223555806658
0.22373056178
0.223912334751
0.224087173679
0.224237130789
0.22433209154
0.224302356867
0.223967614701
0.222981406991
0.221083442363
0.21843288305
0.215358106011
0.212059556493
0.208636366726
0.205156054457
0.201675123376
0.198207258888
0.223521213645
0.223601314338
0.223708588351
0.223837790165
0.223980554342
0.224126096625
0.224260761903
0.224364503203
0.224396546988
0.224251024638
0.223671721709
0.222310080119
0.220110642406
0.217356453961
0.214309545333
0.211103781425
0.207807398004
0.2044601539
0.201071602238
0.197572348991
0.223813022236
0.223877978186
0.223964662783
0.224068338093
0.224181496537
0.22429425956
0.224393164875
0.224455121777
0.224424906465
0.224150262308
0.223306000835
0.221620018302
0.219242389321
0.216480793315
0.213519047041
0.210441738922
0.207287428425
0.204060994781
0.200712432492
0.197052773918
0.224049162488
0.224100646947
0.224169093785
0.22425039944
0.224338097349
0.224423524507
0.224494098703
0.224525363621
0.224450481835
0.224072631177
0.223013793127
0.221111927815
0.218669216578
0.215963970621
0.213115339221
0.210169966118
0.207137695645
0.203984451941
0.200594490785
0.196617416201
0.224230712058
0.224270893966
0.224324177176
0.224387141134
0.22445443415
0.224518885299
0.224569902798
0.224585935701
0.224504079478
0.22412109645
0.22300384883
0.220994508386
0.218526788988
0.215877489265
0.213114256033
0.210250515304
0.207272300677
0.204114157977
0.200607809539
0.196251857845
0.216266634561
0.214229739861
0.214621301616
0.212272534592
0.213200565311
0.210924827944
0.212252625846
0.210230707352
0.211688299611
0.209902720002
0.21122736523
0.209641151215
0.210708500204
0.209300523301
0.210114964004
0.20885890371
0.209492326032
0.208349688742
0.2088801467
0.207807180751
0.208293143166
0.207249869651
0.207724266027
0.206679596295
0.207158878692
0.206090523756
0.206580298197
0.205474121322
0.205974043774
0.204822432336
0.205329102691
0.204129894764
0.204638689831
0.203393135028
0.203900080272
0.202611805263
0.203112553244
0.201787018334
0.202278790937
0.20092247839
0.201403497666
0.20002360917
0.200493379979
0.19909809972
0.199558107589
0.198154928676
0.198608950939
0.197205090665
0.197662505079
0.196260114949
0.196737024249
0.195324427787
0.195833085845
0.194392415724
0.194947043722
0.193449456283
0.194061698177
0.192486094638
0.193169931714
0.191532953581
0.192323438743
0.190709461256
0.191699602216
0.190192765955
)
;

boundaryField
{
    inletfuel
    {
        type            fixedValue;
        value           nonuniform 0();
    }
    inletair
    {
        type            fixedValue;
        value           nonuniform 0();
    }
    outlet
    {
        type            zeroGradient;
    }
    axis
    {
        type            empty;
    }
    leftside
    {
        type            zeroGradient;
    }
    burnerwall
    {
        type            zeroGradient;
    }
    front
    {
        type            wedge;
    }
    back
    {
        type            wedge;
    }
    procBoundary1to0
    {
        type            processor;
        value           nonuniform List<scalar> 
27
(
0.00117626699622
0.00122919314127
0.00134817180403
0.00152370273043
0.120057737535
0.134622421645
0.151790579908
0.171113785435
0.192319355916
0.211301540977
0.221006658443
0.00194501236968
0.00299987378309
0.00491184986608
0.00831042998895
0.0148306480669
0.0292327490954
0.0483893703788
0.0602522138411
0.0622210183605
0.0609431125446
0.0642379144791
0.0750607074713
0.0909773787212
0.0909773787212
0.218055868209
0.216173220648
)
;
    }
}


// ************************************************************************* //
