/*--------------------------------*- C++ -*----------------------------------*\
  =========                 |
  \\      /  F ield         | OpenFOAM: The Open Source CFD Toolbox
   \\    /   O peration     | Website:  https://openfoam.org
    \\  /    A nd           | Version:  7
     \\/     M anipulation  |
\*---------------------------------------------------------------------------*/
FoamFile
{
    version     2.0;
    format      ascii;
    class       volScalarField;
    location    "0.05";
    object      one_over_tauStar;
}
// * * * * * * * * * * * * * * * * * * * * * * * * * * * * * * * * * * * * * //

dimensions      [0 0 -1 0 0 0 0];

internalField   nonuniform List<scalar> 
815
(
289.055071014
288.433354685
287.132355589
279.473084515
279.266242871
279.025001232
288.404990687
288.351931789
288.305618194
274.677024004
275.117289424
275.149258531
232.500331613
233.24449022
233.085625136
148.826314199
149.585202022
149.328427549
79.0041349658
79.2705661949
79.2795657921
53.8444877514
53.9493564614
54.1032209229
45.1532857826
45.249417223
45.4337395199
41.1511754976
41.2464102981
41.4333086786
38.9288297139
39.0245300548
39.2107568169
37.5472233507
37.6386327134
37.8177345477
36.5486209269
36.6396316709
36.8177651243
35.7582181007
35.8464502099
36.0192643268
35.0614807641
35.1466111531
35.3141696542
34.4034009956
34.4854101273
34.6469981045
33.7577269531
33.834696968
33.9873230038
33.0933969944
33.1650802905
33.308272311
32.3967927533
32.4621560697
32.594018089
31.6571465445
31.7147010026
31.8325049116
30.8623023499
30.9111344303
31.0129508907
30.0082734211
30.0472275714
30.130178798
29.0939622673
29.1218497584
29.1834529543
28.1248870269
28.1405177286
28.1794332973
27.1156661957
27.1188665568
27.1345342935
26.090696585
26.0822360142
26.0755969004
25.086184256
25.0678392126
25.0414866345
24.1875963719
24.1617268574
24.1194410064
24.0266322017
23.9945391335
23.9390802189
30.9983448253
30.9694699177
30.9173781572
73.8187382542
73.8315204845
73.837229496
285.504905837
279.043620961
288.598951162
275.205344657
232.672542087
148.580580112
79.1323780836
54.2702649126
45.6675533905
41.6813202458
39.4605537284
38.0637119207
37.0617585325
36.2587194648
35.548576107
34.8749571948
34.2066390423
33.5168107394
32.7892959449
32.0113266382
31.1724736396
30.2672745556
29.2953099697
28.2637348342
27.1904356706
26.1041878428
25.0460081239
24.1047636961
23.9094179279
30.8816024593
73.8283071356
109.975212575
96.6874770351
84.8145282109
75.8176605261
68.5595889109
56.6287531006
43.9456450821
281.897810445
276.579881576
273.535367179
273.513762779
271.652984116
255.593503704
232.094634745
210.925783571
192.727899531
175.757897582
158.552334853
141.492687709
124.709888129
107.926842774
91.9719352131
79.5527932901
72.6507595009
67.902216728
56.9835335518
48.1536654546
279.215035247
280.096409972
281.739427168
282.488054995
278.604107439
265.162399751
243.857063089
219.379228265
195.291915863
173.863788222
154.435222948
135.583214184
115.982675316
96.2624263601
79.5717710302
69.5204589924
66.5239323804
64.3233402881
54.5323038064
53.2941073002
289.335418498
289.950471775
288.947744791
284.128544426
273.126568472
254.571113736
230.262374454
204.633017651
180.624914102
158.518499645
137.286003349
115.882244488
94.9148197303
77.0165592185
65.1521368814
60.193535611
60.1875185274
59.258673085
52.2181294173
59.5164673967
275.032252275
272.672125032
267.274300144
257.386204932
242.160056437
221.24295103
196.182198965
170.620548031
146.939993779
125.315304134
105.045283875
86.4811914148
71.2078800638
60.6848520107
55.2981667219
53.9577084787
54.8791504177
54.5121948551
52.440857204
64.6656257471
231.127212287
225.535800527
215.850130786
201.173754674
181.600512672
159.403599586
137.558075218
118.137284222
101.2164119
86.3293653612
73.3848008292
62.9761846907
55.632385918
51.3791564343
49.7492062506
49.9022111234
50.9141176873
51.529292567
54.2042696894
67.7295444994
146.227284058
139.785398154
130.620328083
119.152455849
106.982875337
95.3878415682
85.0436542325
75.947394028
67.8633031654
60.7792061078
54.9437618688
50.6382454274
47.9092769973
46.5986694989
46.4136123863
47.0519561019
48.2529930411
50.1645055806
55.2781131002
68.5437792469
78.5354915813
76.7025625404
74.0447156384
70.6722435282
66.894999219
62.9365467772
59.0320564612
55.2837089733
51.8272571006
48.8416457061
46.5128629348
44.92205965
44.0340947636
43.7602428052
44.0303074256
44.8787762763
46.466241012
49.3929221315
55.3025687042
67.8029501431
54.5427795725
54.7021880573
54.4141219551
53.5474572857
52.1548298797
50.3953730265
48.4760642099
46.5816828134
44.8785444562
43.4933319904
42.4955379316
41.8778729607
41.5924050018
41.6238892729
42.0502376411
43.0869836322
45.0707474782
48.5733445506
54.5699992565
66.1500964125
46.1169700998
46.7085317231
46.9780517549
46.7527288293
46.0349506488
44.9548914707
43.7023483144
42.4682060522
41.4022415692
40.5884875968
40.0413132785
39.7239996281
39.6038704494
39.7298481218
40.2826756714
41.5687239053
43.9370857647
47.7632039595
53.5577065791
64.1690249951
42.1684724429
42.8805136315
43.3404746793
43.3596756248
42.9095592258
42.0903372262
41.0761794756
40.0572213406
39.1808857517
38.5202905056
38.0766988202
37.8146825254
37.7301230632
37.9309058139
38.6739578325
40.2915301307
43.0552631395
47.1110295864
52.5794076486
62.2567989621
39.9585371677
40.7176443513
41.261519546
41.3897431285
41.0500611117
40.3182739394
39.3546734482
38.3490440673
37.4559056305
36.7562359673
36.261392225
35.9572363727
35.8815621107
36.2072563804
37.2462587606
39.3034934928
42.5169763487
46.7841153652
51.8589263868
60.6875825933
38.5610800531
39.3383607948
39.9174047316
40.0888401495
39.7834954793
39.0577196213
38.0577736284
36.9704541219
35.9593505342
35.122618719
34.4961635487
34.1047043533
34.0458962428
34.5687923651
36.017167033
38.6158141523
42.3336461824
46.8075972293
51.4479421959
59.5750241015
37.5600958114
38.3428968134
38.9318998756
39.1126042978
38.8041942953
38.0476298951
36.9750637429
35.7666097649
34.5923894203
33.5704052825
32.7693772486
32.2670520877
32.2435045379
33.0442147425
35.0218076287
38.2606067025
42.5073049062
47.1384668975
51.3190460566
58.9083679977
36.7530713509
37.5313426483
38.1133778346
38.2820635992
37.9496748845
37.1457324734
35.9893540885
34.6515464312
33.3047445067
32.0848511367
31.0959014688
30.4764660466
30.5113963361
31.6740296071
34.2980118608
38.2350075741
42.9932278109
47.6890116726
51.4032335192
58.608257946
36.036810556
36.8018089419
37.3628306995
37.5030012844
37.1318095656
36.2715446384
35.0308360086
33.5714312952
32.0646969656
30.6607747374
29.4973474608
28.7762690543
28.9102538833
30.5284266841
33.8940459277
38.5369705871
43.7297280516
48.3750589518
51.6425725044
58.596305496
35.3536885412
36.0955906828
36.6219905499
36.7187866527
36.2962102893
35.3734923047
34.0525858571
32.4875488843
30.8474939373
29.2937906736
27.9930298561
27.2152916967
27.5111016205
29.6822002425
33.8425648264
39.1319713203
44.641960919
49.12901334
51.9895114755
58.8009651564
34.6700224043
35.3772877593
35.8551694734
35.8945767763
35.4094827371
34.4199382322
33.0252441516
31.3747773209
29.634931761
27.980076164
26.6053695386
25.8409331288
26.3870868303
29.2150446673
34.1626897121
39.9865104955
45.6692645424
49.9024255582
52.412012551
59.174764102
33.9603929923
34.6215041545
35.037822253
35.0078102104
34.4514045563
33.3929248407
31.9317209524
30.2187876586
28.4245640026
26.7298549815
25.3539878631
24.690509757
25.6043973848
29.1902271786
34.8466473376
41.0625304348
46.7611634081
50.6742266891
52.8909852769
59.6867286264
33.2069596939
33.8100563189
34.1529620545
34.0436771434
33.4094373016
32.2826751622
30.7702094988
29.0259534837
27.2247637085
25.5549178368
24.2567139543
23.7949335715
25.2238462166
29.643880586
35.869487646
42.3144220573
47.8762152563
51.4406611676
53.42001373
60.3229835188
32.3958980433
32.929492491
33.1885283265
32.9925917946
32.2801053372
31.0939139412
29.5504873807
27.8106289577
26.0535922204
24.4733026527
23.3314910157
23.1865783997
25.3085629764
30.5789834986
37.1918332445
43.6987395825
48.9942524877
52.2099059691
54.0045028385
61.0756708539
31.5171461027
31.9704110629
32.1380526323
31.8536892476
31.068855063
29.8392228727
28.2926343815
26.5977665368
24.9369326992
23.5072954276
22.6000334157
22.9131021702
25.9303748123
31.9681675515
38.7675172425
45.1765793544
50.1131812162
53.0009592502
54.6608086427
61.9462363393
30.5648451988
30.9294439047
31.0022511783
30.6334114956
29.7893945591
28.5401875125
27.0252303242
25.4193599473
23.9047846846
22.6821628882
22.0966375348
23.0619216187
27.1619573634
33.7544759162
40.5579976229
46.7229177394
51.2474876115
53.8426739547
55.4136660529
62.9391884519
29.5396577382
29.8106139767
29.7902085983
29.3475367687
28.4653249374
27.2278903969
25.7844733612
24.3120346788
22.9893677059
22.0297152518
21.8877072412
23.783049409
29.0356043917
35.8727509231
42.5294233248
48.3250100804
52.4245110376
54.7708232499
56.2943829431
64.0643777735
28.4510870517
28.6279113482
28.5219899018
28.0231970385
27.131179491
25.942629665
24.6125154325
23.3146908901
22.2252362936
21.5995582472
22.1058860307
25.274744735
31.4783966687
38.2594058078
44.6430262789
49.9803880158
53.6773636236
55.8236436705
57.3375962769
65.3433109782
27.3198691006
27.4077334108
27.2304133252
26.699847126
25.83184638
24.7316645642
23.5539880922
22.4657029094
21.6523114311
21.4791946656
22.9691893031
27.6286456235
34.2915776352
40.8340491591
46.8418281742
51.6892579314
55.0364225906
57.0396591496
58.5848460924
66.7997471175
26.1787330839
26.1893062182
25.9608704494
25.4278421056
24.6194617112
23.6442214183
22.6502540368
21.7995738971
21.3215217453
21.8118829245
24.6989215329
30.6222951919
37.2523120163
43.4927964949
49.0603952042
53.4473796168
56.5210547598
58.4534327338
60.0721735824
68.3331218823
25.0731030308
25.0237830428
24.7688575153
24.2638040487
23.5470693918
22.7242006107
21.9330284012
21.3433593832
21.29297395
22.750809919
27.2293517048
33.7665676186
40.167256138
46.0989505773
51.2254654833
55.2359497911
58.1390517394
60.101417504
61.8509891761
69.9721835508
24.0948679114
24.005687732
23.748672367
23.2973124358
22.6941671285
22.0363320577
21.4516630486
21.1396706746
21.6253921368
24.2846776292
30.0177979563
36.6322732184
42.8486516256
48.4944022845
53.2627407675
57.0390252312
59.9186061704
62.0612476254
64.0715512448
71.9617669429
23.8713564847
23.7545623662
23.5074969442
23.119849873
22.633843901
22.1336336325
21.7350727968
21.6718527033
22.6541611296
26.2625677079
32.4997105273
39.039482205
45.1946828442
50.6521067382
55.227055796
58.9606458689
62.0192136183
64.5926517876
67.2336463239
75.4015271456
30.8155606677
30.6377664897
30.362661822
30.009683397
29.6202603958
29.254429577
28.9764309506
28.9149712024
29.4810605862
31.7455846997
36.2199320234
41.9699558446
47.9116826474
53.222692332
57.7580168279
61.6512931072
65.1595185463
68.6132246489
72.7946292263
83.2257121486
73.7681299466
73.5707885249
73.3342016149
73.1137151125
72.9414851323
72.8172651768
72.6736186338
72.2069281583
70.206520007
63.7117546487
55.071554501
52.9251530113
55.7406108208
59.7395940315
63.7845954035
67.7923897501
72.0282868442
77.1709434713
84.6271997826
100.972684103
68.071693466
55.7507572104
94.1842433435
238.216034366
115.299458855
261.164502723
129.466418698
284.401476842
136.383788661
308.958137159
139.176945561
332.876235391
140.354624478
354.424341882
141.748849078
373.743770433
144.022920622
391.288233721
147.155336333
408.050261006
150.771480572
424.490022467
154.620858012
440.98308801
158.53407867
457.606153225
162.413084142
474.390544444
166.250464948
491.312951371
170.078125246
508.346728117
173.937222946
525.452516942
177.810273102
542.575292728
181.735414379
559.681173656
185.659601094
576.7088293
189.570311013
593.56542516
193.468383231
610.129808128
197.326630126
626.165004064
201.235261017
641.384344392
205.441684519
655.251601115
209.214004444
667.036102543
212.950826681
675.534027874
216.348457735
679.223996623
220.427645418
676.908908303
226.69163611
668.80399666
234.722217842
656.756015992
237.424287822
637.589389766
)
;

boundaryField
{
    inletfuel
    {
        type            calculated;
        value           nonuniform 0();
    }
    inletair
    {
        type            calculated;
        value           nonuniform 0();
    }
    outlet
    {
        type            calculated;
        value           nonuniform List<scalar> 
26
(
73.8187382542
73.8315204845
73.837229496
73.8283071356
73.7681299466
73.5707885249
73.3342016149
73.1137151125
72.9414851323
72.8172651768
72.6736186338
72.2069281583
70.206520007
63.7117546487
55.071554501
52.9251530113
55.7406108208
59.7395940315
63.7845954035
67.7923897501
72.0282868442
77.1709434713
84.6271997826
100.972684103
237.424287822
637.589389766
)
;
    }
    axis
    {
        type            empty;
    }
    leftside
    {
        type            calculated;
        value           nonuniform List<scalar> 
32
(
55.7507572104
238.216034366
261.164502723
284.401476842
308.958137159
332.876235391
354.424341882
373.743770433
391.288233721
408.050261006
424.490022467
440.98308801
457.606153225
474.390544444
491.312951371
508.346728117
525.452516942
542.575292728
559.681173656
576.7088293
593.56542516
610.129808128
626.165004064
641.384344392
655.251601115
667.036102543
675.534027874
679.223996623
676.908908303
668.80399666
656.756015992
637.589389766
)
;
    }
    burnerwall
    {
        type            calculated;
        value           nonuniform 0();
    }
    front
    {
        type            wedge;
    }
    back
    {
        type            wedge;
    }
    procBoundary1to0
    {
        type            processor;
        value           nonuniform List<scalar> 
27
(
340.846075863
339.432401453
336.420885196
332.195909967
105.090533955
93.9681514642
83.2154159924
74.1075660548
65.2323003115
52.1443270299
39.5690982571
322.382818222
305.22053368
291.231838524
286.868213882
288.075900389
264.672183781
221.734000878
188.219562606
170.579534157
160.301075796
150.285463512
137.952334695
123.988832732
123.988832732
56.3936685931
55.6683811514
)
;
    }
}


// ************************************************************************* //
