/*--------------------------------*- C++ -*----------------------------------*\
  =========                 |
  \\      /  F ield         | OpenFOAM: The Open Source CFD Toolbox
   \\    /   O peration     | Website:  https://openfoam.org
    \\  /    A nd           | Version:  7
     \\/     M anipulation  |
\*---------------------------------------------------------------------------*/
FoamFile
{
    version     2.0;
    format      ascii;
    class       volScalarField;
    location    "0.05";
    object      p;
}
// * * * * * * * * * * * * * * * * * * * * * * * * * * * * * * * * * * * * * //

dimensions      [1 -1 -2 0 0 0 0];

internalField   nonuniform List<scalar> 
815
(
100270.638463
100270.603593
100270.58805
100263.023546
100262.973177
100262.95861
100258.303148
100258.255766
100258.244404
100251.574571
100251.57252
100251.590499
100252.517934
100252.493652
100252.47859
100229.16291
100229.122344
100229.053014
100203.422401
100203.380369
100203.300607
100170.283457
100170.267083
100170.230474
100136.496775
100136.488833
100136.47096
100105.034072
100105.033937
100105.0231
100073.055331
100073.051142
100073.04324
100041.934101
100041.938827
100041.937793
100012.182181
100012.178717
100012.172741
99984.2079094
99984.2081506
99984.207083
99959.0838448
99959.0839439
99959.0821677
99938.0398065
99938.0370686
99938.0346352
99922.2026947
99922.2067761
99922.2080738
99913.2838398
99913.2849837
99913.2844818
99913.0805987
99913.0820433
99913.082726
99923.9639237
99923.9669322
99923.968837
99948.4367363
99948.4368865
99948.4399689
99988.6880535
99988.6887293
99988.6934506
100046.352583
100046.357086
100046.363381
100122.294027
100122.298046
100122.305699
100217.318758
100217.323908
100217.333906
100332.827866
100332.833354
100332.845176
100470.38298
100470.387473
100470.397651
100629.941736
100629.94491
100629.953344
100809.646527
100809.650939
100809.658051
101006.663753
101006.665172
101006.668185
101217.10125
101217.100133
101217.099188
100270.553227
100262.940453
100258.22847
100251.610955
100252.447424
100228.943738
100203.181984
100170.176474
100136.44552
100105.008805
100073.032025
100041.936755
100012.164925
99984.205097
99959.0797047
99938.0309189
99922.2099072
99913.2843883
99913.0840795
99923.9726475
99948.4438655
99988.699514
100046.372967
100122.316835
100217.347818
100332.861895
100470.412198
100629.964872
100809.667921
101006.672754
101217.097897
100271.750277
100272.200057
100273.187737
100273.95634
100273.123537
100274.256875
100275.275296
100270.485459
100270.395768
100270.269697
100270.130023
100269.939109
100269.698393
100269.48508
100269.048576
100268.169068
100267.428187
100267.670247
100268.564733
100269.435463
100269.980191
100269.833388
100268.703451
100267.889195
100268.604714
100268.299393
100267.522218
100262.871613
100262.701313
100262.437305
100262.071385
100261.663385
100261.226128
100260.881561
100260.777171
100261.173275
100261.709578
100262.576947
100262.124498
100262.067114
100260.94789
100259.920778
100258.817036
100257.734902
100256.534766
100256.779049
100256.59166
100258.198439
100258.111454
100257.985578
100257.820489
100257.614468
100257.415651
100257.355955
100258.075262
100257.979371
100257.470582
100256.75885
100256.101127
100254.941592
100253.444272
100251.754532
100249.822514
100248.223193
100247.278903
100246.525784
100244.244943
100251.650429
100251.708799
100251.826552
100252.062038
100252.778257
100253.294965
100252.590318
100251.69241
100250.304387
100248.70101
100247.003956
100244.896744
100242.621823
100240.335824
100238.107974
100236.021605
100234.354473
100233.117462
100231.837852
100229.676247
100252.321077
100251.888011
100251.103468
100249.998387
100248.24839
100245.668198
100243.234647
100240.808944
100238.218674
100235.533124
100232.768814
100230.040861
100227.42172
100224.950729
100222.662617
100220.883646
100219.195288
100217.420736
100214.235948
100212.32998
100228.683782
100228.126719
100227.354626
100226.262209
100224.761323
100223.118313
100221.217577
100219.126285
100216.893835
100214.576824
100212.20732
100209.829377
100207.464578
100205.204594
100203.245373
100200.778881
100198.65285
100197.639021
100193.766507
100192.285792
100202.914575
100202.241361
100201.170342
100199.811732
100198.289516
100196.64278
100194.903097
100193.107713
100191.272063
100189.41651
100187.554168
100185.68876
100183.867672
100181.817955
100180.007211
100178.135869
100175.923707
100174.192787
100170.640927
100169.327593
100170.051263
100169.760563
100169.336558
100168.766296
100168.046596
100167.179193
100166.174911
100165.045405
100163.801028
100162.457217
100161.034151
100159.537981
100157.973819
100156.323738
100154.614414
100152.769312
100150.643376
100148.640933
100145.767359
100144.32804
100136.388157
100136.25438
100136.053256
100135.78528
100135.452907
100134.962326
100134.409524
100133.764201
100133.026238
100132.194432
100131.268206
100130.2447
100129.11274
100127.856556
100126.425117
100124.847233
100123.038248
100121.166248
100118.892338
100117.761909
100104.974812
100104.892755
100104.768172
100104.593789
100104.362711
100104.065514
100103.69672
100103.250297
100102.720453
100102.101708
100101.388025
100100.572469
100099.634685
100098.563149
100097.360349
100095.962303
100094.423121
100092.658616
100090.99635
100090.098705
100073.009516
100072.962588
100072.892843
100072.794738
100072.661864
100072.486759
100072.260894
100071.975337
100071.620792
100071.188761
100070.670385
100070.04828
100069.319558
100068.482597
100067.482828
100066.311283
100065.065737
100063.613934
100062.629792
100061.936434
100041.930996
100041.911776
100041.87883
100041.829557
100041.758366
100041.659346
100041.524032
100041.343323
100041.106698
100040.802867
100040.413465
100039.944495
100039.38108
100038.713112
100037.869188
100036.893411
100036.008974
100035.041064
100034.340594
100033.806069
100012.151915
100012.132927
100012.10536
100012.067746
100012.014837
100011.941852
100011.841746
100011.707176
100011.529297
100011.292776
100011.002316
100010.655845
100010.22642
100009.738997
100009.139654
100008.50921
100007.865414
100007.272323
100006.871146
100006.544146
99984.2008237
99984.1907916
99984.1736322
99984.1485781
99984.112411
99984.0620254
99983.9926652
99983.8990104
99983.7696357
99983.6107191
99983.4173177
99983.1901859
99982.9116163
99982.6428154
99982.2761354
99981.9415867
99981.5600192
99981.3031632
99981.0904553
99980.9803715
99959.074642
99959.0639674
99959.0475065
99959.0250183
99958.9951187
99958.9569024
99958.9090328
99958.8466506
99958.7771184
99958.6995439
99958.6100489
99958.5174438
99958.4139389
99958.2905039
99958.1908037
99958.1235004
99958.0427755
99958.060037
99958.0896611
99958.1577878
99938.0249885
99938.014124
99937.9989693
99937.9790084
99937.9542232
99937.924632
99937.8893626
99937.8548518
99937.8244506
99937.7863967
99937.8244772
99937.8164418
99937.8577581
99937.927962
99938.0746508
99938.2438341
99938.500142
99938.7579015
99939.0403745
99939.2364331
99922.2117051
99922.2101003
99922.2067337
99922.2013985
99922.1948854
99922.1883491
99922.1888577
99922.1957882
99922.2123474
99922.2659038
99922.3463549
99922.477493
99922.6673373
99922.9394204
99923.3125578
99923.7196697
99924.2732985
99924.7610147
99925.2699961
99925.5828984
99913.28411
99913.2842455
99913.2863314
99913.2911652
99913.3021077
99913.3220254
99913.352672
99913.4166771
99913.5066554
99913.6413465
99913.8317984
99914.1068058
99914.4634943
99914.9489882
99915.5186277
99916.2155495
99916.9895479
99917.6587818
99918.3542805
99918.7520938
99913.0868803
99913.0941582
99913.106868
99913.1284656
99913.162055
99913.2195254
99913.3023687
99913.4239611
99913.5943173
99913.8291295
99914.1434786
99914.5684865
99915.1036724
99915.7893099
99916.5974533
99917.5016329
99918.5077684
99919.3618065
99920.2254629
99920.7167285
99923.9800567
99923.9967441
99924.0327586
99924.075952
99924.1390661
99924.2308692
99924.3595886
99924.5383024
99924.7817436
99925.1092581
99925.5415445
99926.1061338
99926.8156818
99927.6619275
99928.7467139
99929.8161104
99931.0339955
99932.080171
99933.0802192
99933.6452105
99948.454028
99948.4796732
99948.520696
99948.5826413
99948.6717629
99948.7977065
99948.9712037
99949.2074087
99949.5235484
99949.9409018
99950.4854165
99951.1803235
99952.0472571
99953.0696941
99954.3297945
99955.5603478
99956.9397646
99958.1413326
99959.2327264
99959.8712038
99988.7143008
99988.7495024
99988.8048222
99988.8865327
99989.0025901
99989.1635713
99989.3819369
99989.6743632
99990.0592104
99990.559681
99991.2018113
99992.010048
99992.9883805
99994.1700242
99995.5285659
99996.8698096
99998.3324353
99999.6040163
100000.710522
100001.354917
100046.393148
100046.439531
100046.509581
100046.612783
100046.756064
100046.953134
100047.215745
100047.563117
100048.012517
100048.58984
100049.317395
100050.213284
100051.288235
100052.553842
100053.940252
100055.339527
100056.807144
100058.095378
100059.16375
100059.814121
100122.341531
100122.398937
100122.48613
100122.612967
100122.78732
100123.023152
100123.332369
100123.734102
100124.244521
100124.890835
100125.688187
100126.653461
100127.811088
100129.136097
100130.532613
100131.965259
100133.391827
100134.643602
100135.634511
100136.259686
100217.382739
100217.45399
100217.563798
100217.717969
100217.928108
100218.204526
100218.5604
100219.013508
100219.577556
100220.286199
100221.133641
100222.157029
100223.552041
100224.839809
100226.275295
100227.691905
100229.455776
100230.319286
100231.118583
100231.757932
100332.899919
100332.985333
100333.113532
100333.29357
100333.536989
100333.856543
100334.267956
100334.784719
100335.424377
100336.197842
100337.119751
100338.220988
100339.443235
100340.78283
100342.165312
100343.511767
100344.763981
100345.815383
100346.649953
100347.259314
100470.445873
100470.523446
100470.64147
100470.809539
100471.037773
100471.338897
100471.726024
100472.215481
100472.822561
100473.561406
100474.441918
100475.47429
100476.59614
100477.790042
100478.967542
100480.118753
100481.183965
100482.125303
100482.937783
100483.494652
100629.991932
100630.053639
100630.147426
100630.280802
100630.462312
100630.70246
100631.011824
100631.406126
100631.895453
100632.49605
100633.211473
100634.048019
100634.937844
100635.869453
100636.781373
100637.667787
100638.512006
100639.26563
100639.947704
100640.390808
100809.689425
100809.736137
100809.805906
100809.904081
100810.036204
100810.20954
100810.430069
100810.709782
100811.04981
100811.475602
100811.954223
100812.519214
100813.097877
100813.707897
100814.305519
100814.891725
100815.462458
100815.979584
100816.413601
100816.710573
101006.683165
101006.708513
101006.746874
101006.80131
101006.873835
101006.968979
101007.087542
101007.238871
101007.414694
101007.655481
101007.887395
101008.217919
101008.468191
101008.753462
101009.004141
101009.24924
101009.519745
101009.796956
101010.121125
101010.532109
101217.095107
101217.090382
101217.083393
101217.074208
101217.060744
101217.044897
101217.01929
101216.997588
101216.947361
101216.926979
101216.828391
101216.83713
101216.712967
101216.715524
101216.56735
101216.573034
101216.411426
101216.361073
101216.192242
101215.968411
100275.428248
100275.545753
100266.969364
100267.057209
100256.324786
100256.298191
100243.889967
100243.857751
100229.087845
100229.073582
100211.678534
100211.669677
100191.811683
100191.795782
100169.093996
100169.071272
100144.166958
100144.146542
100117.626338
100117.601689
100090.018951
100089.996348
100061.91204
100061.892516
100033.825273
100033.806902
100006.595955
100006.581017
99981.0378603
99981.0292943
99958.2236859
99958.2192034
99939.3110768
99939.3107782
99925.6688546
99925.669685
99918.8410906
99918.8437544
99920.8082174
99920.8107275
99933.7314104
99933.7359968
99959.9569108
99959.9597639
100001.417155
100001.422887
100059.869587
100059.871345
100136.29023
100136.291743
100231.816752
100231.810444
100347.225874
100347.227299
100483.452022
100483.43825
100640.303706
100640.295797
100816.645665
100816.641247
101010.441507
101010.443202
101216.00707
101216.001486
)
;

boundaryField
{
    inletfuel
    {
        type            zeroGradient;
    }
    inletair
    {
        type            zeroGradient;
    }
    outlet
    {
        type            fixedValue;
        value           uniform 101325;
    }
    axis
    {
        type            empty;
    }
    leftside
    {
        type            zeroGradient;
    }
    burnerwall
    {
        type            zeroGradient;
    }
    front
    {
        type            wedge;
    }
    back
    {
        type            wedge;
    }
    procBoundary1to0
    {
        type            processor;
        value           nonuniform List<scalar> 
27
(
100277.971836
100277.944517
100277.925232
100277.894235
100284.741642
100284.753183
100283.819118
100283.367266
100284.002165
100284.328467
100286.684533
100277.825313
100277.692286
100277.494993
100277.229954
100276.875929
100276.474133
100276.042938
100275.656783
100275.583586
100275.394684
100274.375493
100272.99758
100272.184431
100272.184431
100286.990007
100286.98292
)
;
    }
}


// ************************************************************************* //
