/*--------------------------------*- C++ -*----------------------------------*\
  =========                 |
  \\      /  F ield         | OpenFOAM: The Open Source CFD Toolbox
   \\    /   O peration     | Website:  https://openfoam.org
    \\  /    A nd           | Version:  7
     \\/     M anipulation  |
\*---------------------------------------------------------------------------*/
FoamFile
{
    version     2.0;
    format      ascii;
    class       volScalarField;
    location    "0.05";
    object      PaSR<psiReactionThermo>:kappa;
}
// * * * * * * * * * * * * * * * * * * * * * * * * * * * * * * * * * * * * * //

dimensions      [0 0 0 0 0 0 0];

internalField   nonuniform List<scalar> 
815
(
1.85194915452e-12
1.84630007115e-12
1.83675962539e-12
1.81960377199e-12
1.8176015774e-12
1.8148550405e-12
1.88073148325e-12
1.87912586016e-12
1.87748979042e-12
1.7059069215e-12
1.70868347548e-12
1.7075996137e-12
1.36165394168e-12
1.36566556408e-12
1.36452126146e-12
9.05659090664e-13
9.09931144224e-13
9.08957468554e-13
5.28120736718e-13
5.29800445214e-13
5.30057189949e-13
3.75165131959e-13
3.7590420391e-13
3.77004142783e-13
3.19279625047e-13
3.19954530322e-13
3.21254043594e-13
2.92760559444e-13
2.9343884493e-13
2.94759829408e-13
2.77729535529e-13
2.78410504939e-13
2.79731817066e-13
2.68212414595e-13
2.68864415528e-13
2.7013883319e-13
2.61208742148e-13
2.61862161634e-13
2.6313469898e-13
2.55600796498e-13
2.56231358568e-13
2.5746887704e-13
2.50597002975e-13
2.51210060738e-13
2.52413479452e-13
2.4584666656e-13
2.46434989933e-13
2.47598254752e-13
2.41155195432e-13
2.4170994179e-13
2.42811474469e-13
2.36310652289e-13
2.36828875073e-13
2.37865005624e-13
2.31216658959e-13
2.31690648509e-13
2.32647506978e-13
2.25799795616e-13
2.26218516281e-13
2.27075991024e-13
2.19977144938e-13
2.20334443725e-13
2.21078551752e-13
2.13733748461e-13
2.14019354108e-13
2.14628879429e-13
2.0707047179e-13
2.07277323057e-13
2.07734135944e-13
2.00045550746e-13
2.00164531132e-13
2.00458574202e-13
1.92777757924e-13
1.92807711164e-13
1.92934696755e-13
1.85451312991e-13
1.8539755817e-13
1.85363975404e-13
1.7832350609e-13
1.78198263586e-13
1.78022261645e-13
1.71975333625e-13
1.71795276188e-13
1.71503640159e-13
1.70714572852e-13
1.70488748191e-13
1.70101694877e-13
2.17771345767e-13
2.17568153762e-13
2.17205125816e-13
4.9869362394e-13
4.98745190038e-13
4.98751880894e-13
1.82439975111e-12
1.81351358865e-12
1.87733624348e-12
1.70603073101e-12
1.36174867708e-12
9.05644344988e-13
5.29434191291e-13
3.78223019205e-13
3.22903225067e-13
2.96514865318e-13
2.81503740911e-13
2.71889599791e-13
2.64877762862e-13
2.59183122191e-13
2.54096904174e-13
2.49238578431e-13
2.44393611502e-13
2.39373047398e-13
2.34063160831e-13
2.28375737389e-13
2.2224168845e-13
2.15631928285e-13
2.08556768921e-13
2.01083576773e-13
1.93355536384e-13
1.85588056296e-13
1.78072287187e-13
1.71414114682e-13
1.69903369515e-13
2.16968691121e-13
4.98702278698e-13
6.13938046365e-13
5.51160587027e-13
4.99605388573e-13
4.64635586116e-13
4.35004821659e-13
3.70641397469e-13
3.04429739433e-13
1.79804282149e-12
1.75718433651e-12
1.7259128623e-12
1.70673751605e-12
1.66849650331e-12
1.54049175217e-12
1.36917316467e-12
1.21970463316e-12
1.0934647013e-12
9.79922784828e-13
8.76179975656e-13
7.79209424045e-13
6.89719609041e-13
6.05519273144e-13
5.29582522756e-13
4.75528507637e-13
4.52039704795e-13
4.3633823126e-13
3.77012205434e-13
3.35648279028e-13
1.81129226385e-12
1.81015105417e-12
1.81003795464e-12
1.79912377465e-12
1.75260070194e-12
1.63984394848e-12
1.47226271423e-12
1.2845995165e-12
1.10792330774e-12
9.68674907829e-13
8.54883666389e-13
7.53002880822e-13
6.53437070976e-13
5.56345228358e-13
4.75480098992e-13
4.29851214119e-13
4.23674054713e-13
4.1946553007e-13
3.66008935579e-13
3.74349627879e-13
1.87790706264e-12
1.87257691096e-12
1.85078329159e-12
1.79639570171e-12
1.69324485981e-12
1.53573918108e-12
1.34463676533e-12
1.1646712453e-12
1.01272593627e-12
8.86212351549e-13
7.73927257378e-13
6.65978090012e-13
5.61830584845e-13
4.71584717799e-13
4.10952782978e-13
3.87563844923e-13
3.93326820847e-13
3.93437437357e-13
3.57102419457e-13
4.2171106583e-13
1.69976558094e-12
1.67168413306e-12
1.6180245376e-12
1.5321680737e-12
1.41664478251e-12
1.27320759198e-12
1.11541879948e-12
9.68031128345e-13
8.39558400445e-13
7.27075621949e-13
6.23989545441e-13
5.29258845238e-13
4.4933011808e-13
3.92670450937e-13
3.63872713891e-13
3.58536895196e-13
3.67570905187e-13
3.70028131745e-13
3.6573005822e-13
4.6239111135e-13
1.35216408667e-12
1.31637926926e-12
1.25614270538e-12
1.16866295125e-12
1.05707519548e-12
9.33773226117e-13
8.14213244719e-13
7.08830213596e-13
6.17406768952e-13
5.37085903668e-13
4.66718876422e-13
4.09179066896e-13
3.67977958297e-13
3.44280485282e-13
3.36205460549e-13
3.39405945819e-13
3.48936081859e-13
3.57857956554e-13
3.84349864993e-13
4.87950585095e-13
8.94356774594e-13
8.60484859456e-13
8.1059086128e-13
7.46443999516e-13
6.76530618505e-13
6.08205751479e-13
5.46238129308e-13
4.91457569533e-13
4.4296135594e-13
4.00759996585e-13
3.66192231727e-13
3.40896945892e-13
3.25283706642e-13
3.18601314867e-13
3.19278164208e-13
3.25843763608e-13
3.37091415545e-13
3.547523067e-13
3.96567459016e-13
4.96336479073e-13
5.26371956739e-13
5.15730750418e-13
4.99387058847e-13
4.77745936149e-13
4.52730715972e-13
4.26009651992e-13
3.99494318529e-13
3.74255791951e-13
3.51403939184e-13
3.32122120422e-13
3.17512748226e-13
3.08007460848e-13
3.03364890592e-13
3.03068686356e-13
3.06819284904e-13
3.15104786939e-13
3.29237642596e-13
3.5359971979e-13
3.99701020251e-13
4.92503008353e-13
3.802495126e-13
3.81546982737e-13
3.79585308386e-13
3.73328286232e-13
3.63094820856e-13
3.50069230216e-13
3.35874007362e-13
3.22023918551e-13
3.09830085314e-13
3.00215889603e-13
2.93639222723e-13
2.90039003498e-13
2.89117791434e-13
2.90836367111e-13
2.95803182144e-13
3.05556520094e-13
3.22436271708e-13
3.50429841859e-13
3.96234581576e-13
4.81405679134e-13
3.26079100583e-13
3.30227902109e-13
3.31985394933e-13
3.30044186185e-13
3.24375744443e-13
3.1593158994e-13
3.06170138388e-13
2.96610413041e-13
2.88458941907e-13
2.82395232266e-13
2.78571480217e-13
2.76794225203e-13
2.76916564656e-13
2.79339517787e-13
2.85311844307e-13
2.96887813314e-13
3.16384156231e-13
3.46311716185e-13
3.90050854419e-13
4.67561546739e-13
2.99958626804e-13
3.04959050826e-13
3.08070097617e-13
3.0787677477e-13
3.04128714146e-13
2.97548156212e-13
2.89456102037e-13
2.81344304668e-13
2.74404021225e-13
2.69260845302e-13
2.66010513092e-13
2.64508982592e-13
2.64846432548e-13
2.67844555572e-13
2.75247067742e-13
2.89213245918e-13
3.11439999015e-13
3.42746125665e-13
3.83720970637e-13
4.54037585229e-13
2.85035875541e-13
2.90394491589e-13
2.9413728428e-13
2.94767786179e-13
2.91864917407e-13
2.85966996751e-13
2.78279685934e-13
2.70277232625e-13
2.63197216091e-13
2.5772663581e-13
2.54043155179e-13
2.52171964562e-13
2.52531777115e-13
2.56436025376e-13
2.66013404024e-13
2.8316868279e-13
3.08569863575e-13
3.41205729642e-13
3.79045832887e-13
4.42926937698e-13
2.75429502261e-13
2.80944553272e-13
2.84977266887e-13
2.85968524296e-13
2.83375501697e-13
2.77591821314e-13
2.69712517334e-13
2.61179535939e-13
2.53288593259e-13
2.46844825184e-13
2.42194173889e-13
2.39637874486e-13
2.40046692616e-13
2.45335988196e-13
2.5789945746e-13
2.79013129865e-13
3.0802682907e-13
3.42013564493e-13
3.76493142327e-13
4.35101538809e-13
2.68437214972e-13
2.74018245388e-13
2.78160062702e-13
2.79268222151e-13
2.76716474238e-13
2.70785305057e-13
2.62462270329e-13
2.5313332097e-13
2.44133692673e-13
2.36401307407e-13
2.30500100755e-13
2.27093580163e-13
2.2765599901e-13
2.34873883916e-13
2.51291383186e-13
2.77110086688e-13
3.09931371778e-13
3.44934171824e-13
3.75912246641e-13
4.30502918975e-13
2.62724754453e-13
2.68297792585e-13
2.72424830163e-13
2.73493741957e-13
2.70829449538e-13
2.64629395318e-13
2.55783856834e-13
2.4560725153e-13
2.3544414548e-13
2.26349870958e-13
2.19120820035e-13
2.14828708435e-13
2.15697617947e-13
2.2542711176e-13
2.46556442042e-13
2.77515037608e-13
3.14016722022e-13
3.49370920655e-13
3.76827892938e-13
4.28559360041e-13
2.57604862068e-13
2.63105140447e-13
2.67113395445e-13
2.68020313954e-13
2.65132133203e-13
2.58594759809e-13
2.4922116622e-13
2.38254227967e-13
2.27023393249e-13
2.16675041148e-13
2.08226956827e-13
2.03174643554e-13
2.04649284242e-13
2.17562952455e-13
2.44111138952e-13
2.80263668379e-13
3.19866180254e-13
3.54735659266e-13
3.78834966077e-13
4.28702004684e-13
2.5268731666e-13
2.58041986374e-13
2.61830301548e-13
2.62463996354e-13
2.59256405483e-13
2.52332799518e-13
2.42457324559e-13
2.3081291549e-13
2.18704696307e-13
2.07348632078e-13
1.97953102093e-13
1.92477499712e-13
1.95026672776e-13
2.11851736562e-13
2.44236635695e-13
2.8512856732e-13
3.26950797591e-13
3.60550828054e-13
3.81596844276e-13
4.30408838663e-13
2.47740187494e-13
2.52864000883e-13
2.56329084355e-13
2.5658446137e-13
2.52972543379e-13
2.4562644529e-13
2.35290891657e-13
2.23110267553e-13
2.10360806266e-13
1.98341214454e-13
1.88451286061e-13
1.83062572585e-13
1.87348301625e-13
2.08890834178e-13
2.47102247098e-13
2.918757392e-13
3.34837096614e-13
3.66472242385e-13
3.84886295546e-13
4.33335565717e-13
2.42584622126e-13
2.47392560358e-13
2.50437349445e-13
2.50223998049e-13
2.46140259021e-13
2.38352144953e-13
2.2760419413e-13
2.15047315696e-13
2.01976671741e-13
1.89725172108e-13
1.79856115199e-13
1.75186739452e-13
1.82083684627e-13
2.09160122683e-13
2.52666295659e-13
3.00227113819e-13
3.43161615874e-13
3.72352898355e-13
3.88568658501e-13
4.37257285801e-13
2.37094819195e-13
2.41499299871e-13
2.4403550633e-13
2.43279124574e-13
2.38673002008e-13
2.30443800383e-13
2.19389448649e-13
2.0667514265e-13
1.93615935569e-13
1.81586845728e-13
1.72295395096e-13
1.6907008144e-13
1.79676724748e-13
2.1295398677e-13
2.6074698523e-13
3.09842921048e-13
3.51624531881e-13
3.78170640412e-13
3.92600853872e-13
4.42075366207e-13
2.31174787022e-13
2.3509087557e-13
2.3704040653e-13
2.3568494388e-13
2.30550815879e-13
2.21941721711e-13
2.10723462322e-13
1.98102787548e-13
1.85413530202e-13
1.74060712138e-13
1.65903420329e-13
1.64952754064e-13
1.80608014015e-13
2.20335295236e-13
2.71042328947e-13
3.20399181207e-13
3.60081544271e-13
3.83989579061e-13
3.97025715084e-13
4.47734074438e-13
2.24758302353e-13
2.28105762304e-13
2.29411825781e-13
2.27442180223e-13
2.2182060087e-13
2.12944561194e-13
2.01758658135e-13
1.89516814011e-13
1.7756196295e-13
1.67313951189e-13
1.60845453459e-13
1.6319346022e-13
1.8544769568e-13
2.31139737112e-13
2.83190345973e-13
3.31607348748e-13
3.68520801748e-13
3.89952505514e-13
4.01965756785e-13
4.5424600258e-13
2.17813060624e-13
2.20529568021e-13
2.21164966561e-13
2.18607538309e-13
2.12591511677e-13
2.0361776155e-13
1.92709631881e-13
1.81154879367e-13
1.70283889691e-13
1.61536376502e-13
1.57379755949e-13
1.64448247922e-13
1.94806143188e-13
2.44956399082e-13
2.96884771239e-13
3.43283904339e-13
3.77051995661e-13
3.96273932249e-13
4.07604256499e-13
4.61644365171e-13
2.10357307735e-13
2.12404750458e-13
2.12378720189e-13
2.0930789351e-13
2.03046026433e-13
1.94196105673e-13
1.83845761417e-13
1.73287535779e-13
1.63817849518e-13
1.56965429297e-13
1.55998151571e-13
1.69847820684e-13
2.09028275597e-13
2.61270947224e-13
3.11860469219e-13
3.55337517574e-13
3.85878819749e-13
4.03218542564e-13
4.14171770382e-13
4.69999150697e-13
2.02475197e-13
2.03847723432e-13
2.03212863815e-13
1.99753000349e-13
1.9344538072e-13
1.84979699199e-13
1.75477713041e-13
1.6620042197e-13
1.58418700122e-13
1.53966945574e-13
1.57676341887e-13
1.80926046282e-13
2.27665531311e-13
2.79551444594e-13
3.27824811968e-13
3.6775273031e-13
3.95246468795e-13
4.11068065503e-13
4.21921910255e-13
4.79461837122e-13
1.94330579497e-13
1.95062885658e-13
1.93917366959e-13
1.90238953908e-13
1.84122191648e-13
1.76315143619e-13
1.67930860961e-13
1.60173485562e-13
1.54379260385e-13
1.53181068938e-13
1.64031283142e-13
1.98526894909e-13
2.49226483195e-13
2.99144557378e-13
3.44357360113e-13
3.80532841693e-13
4.05378814168e-13
4.20104905292e-13
4.31156213656e-13
4.90192230417e-13
1.86167232965e-13
1.86340578332e-13
1.84826035106e-13
1.81133473224e-13
1.75454483607e-13
1.68557328465e-13
1.61502868506e-13
1.55456602141e-13
1.5207120868e-13
1.55657704539e-13
1.76777034571e-13
2.21194397278e-13
2.71912710103e-13
3.19250143799e-13
3.60977928697e-13
3.93646373797e-13
4.16416275961e-13
4.30579243034e-13
4.42132254914e-13
5.01436067727e-13
1.78307856464e-13
1.78044574412e-13
1.76333278838e-13
1.72837955881e-13
1.67816844095e-13
1.62015070262e-13
1.56416754449e-13
1.52242955595e-13
1.51932746944e-13
1.62546220434e-13
1.95638512625e-13
2.45264213062e-13
2.94138742232e-13
3.38853056856e-13
3.77147779011e-13
4.06951547194e-13
4.28410908393e-13
4.42751527076e-13
4.55211557936e-13
5.13345948417e-13
1.71380303687e-13
1.70822312018e-13
1.69085731703e-13
1.65966104033e-13
1.6175217694e-13
1.57127985979e-13
1.53005786192e-13
1.5082307302e-13
1.54385294271e-13
1.73843144634e-13
2.16747967308e-13
2.67271400354e-13
3.14448239058e-13
3.5679154592e-13
3.92316129113e-13
4.20322708217e-13
4.41558080608e-13
4.57172709252e-13
4.71457886536e-13
5.27590072255e-13
1.69665072717e-13
1.68904494203e-13
1.67232948175e-13
1.64562734171e-13
1.61181065942e-13
1.57679963625e-13
1.54888049273e-13
1.54498601939e-13
1.6170179395e-13
1.88394253421e-13
2.35678773227e-13
2.85643188994e-13
3.32078942844e-13
3.72862697664e-13
4.06871073049e-13
4.34502339748e-13
4.56997875592e-13
4.75698872608e-13
4.9443593575e-13
5.51878422883e-13
2.16547984511e-13
2.15399236737e-13
2.13579652535e-13
2.11200354978e-13
2.08537478438e-13
2.06013396958e-13
2.04109189118e-13
2.03852652978e-13
2.08606121194e-13
2.2712226943e-13
2.63016475264e-13
3.07410672784e-13
3.52178809673e-13
3.91803734599e-13
4.254583012e-13
4.54199606727e-13
4.7990924445e-13
5.04903578622e-13
5.34500741289e-13
6.06567383207e-13
4.98363925526e-13
4.97201890361e-13
4.95762063301e-13
4.94353379448e-13
4.93171997306e-13
4.92256935865e-13
4.91306363679e-13
4.88860619006e-13
4.78899340795e-13
4.45113597179e-13
3.96634825308e-13
3.86669419679e-13
4.09176090799e-13
4.39296113331e-13
4.69328799659e-13
4.98797875465e-13
5.29605612721e-13
5.66460311628e-13
6.1863156836e-13
7.28348611258e-13
4.59339803389e-13
3.79007593e-13
6.23444770292e-13
1.38534641643e-12
7.61104545815e-13
1.5465448128e-12
8.63421067031e-13
1.71759878562e-12
9.23285792972e-13
1.90114245385e-12
9.54113382841e-13
2.07978120291e-12
9.70218637503e-13
2.23985340061e-12
9.84299529415e-13
2.38245134908e-12
1.00213080877e-12
2.51132254145e-12
1.02474030709e-12
2.63396755306e-12
1.0504363269e-12
2.7538628411e-12
1.07798663709e-12
2.87375950711e-12
1.10641488602e-12
2.99420002517e-12
1.13505011015e-12
3.11539151063e-12
1.16369150955e-12
3.23716053274e-12
1.19244029836e-12
3.35929744226e-12
1.22146048328e-12
3.48151265243e-12
1.25061357575e-12
3.6033822041e-12
1.2800992027e-12
3.72466054239e-12
1.30958038805e-12
3.84489225638e-12
1.33894382126e-12
3.96341575304e-12
1.36818861704e-12
4.07937398222e-12
1.39707678121e-12
4.19111216948e-12
1.42614883939e-12
4.29662405403e-12
1.45703227764e-12
4.39209522327e-12
1.4845882453e-12
4.47242194297e-12
1.51101765313e-12
4.52916828397e-12
1.53340901274e-12
4.55171191485e-12
1.55728907577e-12
4.53189105643e-12
1.59047232354e-12
4.47165103606e-12
1.62828018443e-12
4.38394179385e-12
1.63005996053e-12
4.24380020656e-12
)
;

boundaryField
{
    inletfuel
    {
        type            calculated;
        value           nonuniform 0();
    }
    inletair
    {
        type            calculated;
        value           nonuniform 0();
    }
    outlet
    {
        type            calculated;
        value           uniform 0;
    }
    axis
    {
        type            empty;
    }
    leftside
    {
        type            calculated;
        value           uniform 0;
    }
    burnerwall
    {
        type            calculated;
        value           nonuniform 0();
    }
    front
    {
        type            wedge;
    }
    back
    {
        type            wedge;
    }
    procBoundary1to0
    {
        type            processor;
        value           uniform 0;
    }
}


// ************************************************************************* //
