/*--------------------------------*- C++ -*----------------------------------*\
  =========                 |
  \\      /  F ield         | OpenFOAM: The Open Source CFD Toolbox
   \\    /   O peration     | Website:  https://openfoam.org
    \\  /    A nd           | Version:  7
     \\/     M anipulation  |
\*---------------------------------------------------------------------------*/
FoamFile
{
    version     2.0;
    format      ascii;
    class       volScalarField;
    location    "0.05";
    object      Qdot;
}
// * * * * * * * * * * * * * * * * * * * * * * * * * * * * * * * * * * * * * //

dimensions      [1 -1 -3 0 0 0 0];

internalField   nonuniform List<scalar> 
815
(
2155518.39715
2214749.78544
2367592.46661
2885316.73099
2936020.12756
3054104.59998
13009062.6514
13033351.5638
13233920.7279
87364335.1042
87613999.8276
88480717.8495
146127154.251
146258959.999
146012308.685
29642267.3238
29890843.365
29525460.8654
4273840.4338
4289971.49025
4243682.2769
895415.07239
893952.091009
885948.420627
292118.546377
291003.495242
288637.668712
114389.444125
114009.555855
113166.329892
46896.9369587
46737.5731635
46434.8958889
19307.5019524
19256.4820655
19153.5127115
7953.46801915
7935.91829408
7901.07296483
3261.79765323
3255.82574015
3245.55093085
1325.82653063
1324.78598294
1322.23771239
533.132033608
532.844786548
532.432202525
212.205941813
212.313413908
212.424218389
85.7553207661
85.8236886948
85.9549627013
37.5725576863
37.6123920919
37.7046754106
20.3575499173
20.3814174342
20.43865899
15.1374349262
15.151163291
15.181393478
14.4729406063
14.4745081611
14.4798995369
15.458733632
15.4485868915
15.4270383032
16.9115876286
16.8866717391
16.8343623862
18.2594975403
18.2180813666
18.1311288128
19.1580950546
19.0990906574
18.9757917067
19.387490203
19.3110859024
19.1532844182
18.8601308004
18.7704252659
18.586080682
17.8893211841
17.7904756477
17.5897366758
19.3867588831
19.2832385607
19.0619239693
28.1058552444
27.9725744574
27.6799261905
2585971.78954
3230080.39932
13545007.0317
90108281.4044
144306493.51
28788606.0194
4150008.40564
872309.679707
284993.131817
111953.813104
45994.9619293
19007.3246875
7851.53579936
3230.75942527
1318.55811833
531.752044237
212.545635412
86.1348853383
37.8419900559
20.5303180042
15.236324985
14.5017795417
15.414911294
16.7836400915
18.0364959224
18.8344551858
18.9673937934
18.3652198711
17.3459407743
18.7768142172
27.2651302118
2036209.88899
1130339.1443
603828.976443
306569.014345
143111.703866
51238.4121442
10711.8400164
3105625.01339
4362695.89131
6609459.7529
10588222.9234
17675313.0414
29561235.0883
41389481.7014
45316725.4192
44123673.8901
31935412.8503
16048881.6596
8414996.31809
4496434.12745
2357147.30522
1192450.61431
594207.642213
297765.261852
140455.082948
49896.8817697
10406.7537906
3647020.99036
4642334.89609
6342378.66338
9107521.56545
13464173.7815
19891701.5552
27282981.5554
35430040.3554
50367990.1468
30895727.6843
15434564.0026
7773644.0046
3826667.82682
1815870.68843
850882.861907
417424.967339
218945.065188
108763.851746
38582.2418484
8286.56091597
14355852.2246
16445480.7522
20013357.8509
25772937.5124
34928348.5854
49604590.8847
73368123.1144
75548484.8651
39287270.7477
19529220.4632
9417625.98522
4434195.50727
2043097.44395
933512.093671
444293.867012
232669.439405
131773.124155
69599.5637065
25525.6652938
5706.99881474
94070210.174
104137086.218
120926490.625
147167008.715
155255837.584
99041892.5488
56576357.0873
30272893.6459
15419649.8536
7565148.43637
3621632.36712
1712604.81794
811240.217817
395315.693725
207004.396243
118611.657493
72174.5714094
40458.3413245
15886.2793603
3474.96230173
136075266.678
117403124.967
93163038.7627
67280315.1102
43844881.487
26110053.7813
14566532.1884
7883459.11935
4167705.29028
2166868.86839
1116048.39045
577012.421351
303397.166566
165308.65277
96004.7525927
59616.389662
38470.5839692
22665.0941156
9362.91657791
1925.29018761
26841931.3585
22580166.6257
17425154.4262
12244011.1751
7977313.7629
4949727.06972
2999264.30924
1798499.38677
1065512.98761
623108.75031
360785.555591
209005.342263
122231.962537
73369.196129
46306.9925054
30672.5858951
20575.70196
12399.9616784
5102.92305087
994.52845915
3906174.83327
3384448.92092
2752134.64366
2100978.93996
1528032.71321
1072655.7362
737983.284424
498398.709581
329712.472888
213213.4502
135317.137681
85197.6899202
53825.6342313
34798.5588876
23403.9514787
16180.9879181
11007.3383694
6548.27830034
2586.75953794
488.490035204
837427.721181
761982.045236
662143.442685
548249.286641
434798.029495
332345.620337
246811.040476
178264.218247
125300.508288
85735.9499724
57468.5610768
38215.7370657
25556.0920134
17465.6010299
12276.7903041
8693.07790323
5873.44709201
3346.22271188
1246.10680801
232.900544158
276299.652894
257380.519876
230797.384009
198388.658843
163581.432935
129824.450243
99675.1474787
74239.4263802
53791.1184306
38029.3013412
26439.069175
18304.8324228
12799.8839556
9137.39270079
6629.32330077
4735.52894604
3126.97420378
1678.80701009
584.908952431
109.545311688
109064.841541
102740.631149
93530.4824601
81877.2699373
68873.9604337
55786.6955617
43677.1379301
33178.0170904
24555.2742809
17802.0794215
12762.3522643
9167.60351411
6680.41739397
4952.45482048
3674.47605753
2616.86039198
1667.85197748
837.393055187
273.415014027
51.5818878713
44979.0491701
42748.3035516
39394.9379186
35015.7604974
29973.6455347
24736.1081649
19737.5424927
15288.1795748
11558.4787783
8597.74228154
6366.63846878
4756.69501213
3614.12658952
2772.47923612
2087.94430366
1468.24137352
894.678169193
419.452069498
129.358038819
24.6024949468
18661.164496
17891.8890102
16691.8235383
15070.6554487
13140.6537803
11066.4322886
9019.04291683
7142.34891946
5535.0028404
4243.75474105
3264.87713777
2550.78774412
2024.55785224
1602.10548933
1216.15715019
836.726126625
483.891527479
212.180960677
62.5014599033
11.9820290944
7736.75822759
7480.85333903
7063.72354002
6478.49640648
5756.57157889
4952.69176916
4131.602295
3357.19480856
2681.80676097
2135.92015826
1721.9805816
1415.55513709
1174.6931029
954.998041162
725.271110262
483.78549942
264.355135085
108.858295656
30.9585120105
5.98853326535
3195.44305523
3114.12126508
2973.91573598
2768.80155318
2506.68114155
2205.08564029
1887.94181335
1582.63100201
1314.60087078
1099.74962377
938.484085791
815.5000103
706.178262948
586.166879091
441.649234699
283.286896214
145.872336329
56.7622968137
15.7396400453
3.0736399024
1308.77074997
1284.74272263
1239.93602889
1171.26440761
1080.6359791
973.798362752
859.722655062
749.928023437
655.754819103
583.765111609
531.704738041
488.434227835
438.652233061
369.021250461
273.485530816
167.323418077
81.1678970786
30.0773103999
8.19077701962
1.61449234013
529.596338112
523.528629522
510.603265268
489.637907674
461.274187263
427.700724899
392.569156567
360.768945389
336.896420624
322.614401156
314.246787757
303.218698367
279.857578561
236.677010836
170.984288096
99.131652973
45.3963405788
16.1486823268
4.33973484873
0.862819254788
212.447051362
211.591956815
208.785624588
203.755357392
196.929700539
189.403524924
182.900780244
179.588064423
181.103726629
186.963203188
193.253479827
193.48387967
181.620763571
153.230787955
106.937144252
58.529667993
25.4176723057
8.74267692189
2.32631984556
0.466200656488
86.4241858973
86.8355891274
86.9130150606
86.7221455214
86.6311048159
87.3243042994
89.7518781451
94.9319442999
103.270410463
113.594052276
122.521682099
125.403432921
118.61001377
99.1121583522
66.2269500612
34.205430524
14.1802878513
4.74653248937
1.25375805279
0.253078198204
38.1241942674
38.6806702097
39.3532138577
40.290661769
41.793383013
44.3177746707
48.4189954468
54.5826932716
62.7595448683
71.7797209729
79.0856701027
81.5811724767
77.1909344979
63.3807109524
40.2316130098
19.6713298526
7.84421449122
2.57026706877
0.675396460161
0.137247518058
20.7362223177
21.1679406524
21.7739496835
22.6913980738
24.1381018666
26.4027924828
29.7983382198
34.5421856868
40.4625681597
46.654622683
51.3876207223
52.7846384744
49.6847994688
39.6768673705
23.7855004114
11.0805213696
4.28369938843
1.38140871844
0.361812671674
0.0739793316836
15.3657897181
15.6288916861
16.0047879633
16.5924665281
17.5309363261
18.9815393413
21.1003769756
23.971493308
27.4411920292
30.9222164224
33.3736150491
33.7969114026
31.4600931776
24.1017699409
13.6144998748
6.09279596221
2.30087320594
0.733768172391
0.191873642446
0.0394486648581
14.5589521321
14.6520596155
14.7658351672
14.9606472692
15.3128398297
15.8962956427
16.7750286059
17.9812854261
19.4334380827
20.8240505272
21.6245870908
21.4061221194
19.5138058361
14.1056500372
7.52605931698
3.26386836614
1.21218420737
0.383890876948
0.100359840731
0.0207294500626
15.3963446144
15.3140631171
15.1557179001
14.9518815791
14.738178078
14.5405238595
14.3840453262
14.3003852176
14.2911333849
14.2600724044
14.0254971065
13.4608990409
11.7971165368
7.92208974015
4.01812411948
1.70208953788
0.625210874308
0.197263559303
0.0515924396297
0.0106859019541
16.6797637224
16.4081325516
15.9662082746
15.3675110878
14.6303322313
13.7684422543
12.808219028
11.8080213592
10.8412521468
9.95378939494
9.17296763257
8.44236330667
6.90284470825
4.2698950348
2.07665994794
0.864934675945
0.315611918828
0.0994290947768
0.0260173138212
0.00539125603976
17.8368269801
17.3615068716
16.6294501777
15.6505287228
14.4476999606
13.0501355241
11.509663779
9.91905342964
8.40260632616
7.09092092191
6.10141950663
5.26901972832
3.88621288266
2.21866195035
1.04369411758
0.429522931443
0.156140733967
0.0491487813366
0.0128519788157
0.0026577067541
18.5338074974
17.8532185919
16.8441650883
15.5253475122
13.9408008731
12.1507230767
10.2402814704
8.33138972719
6.57804900992
5.14897422928
4.13713608188
3.23170784121
2.10947836932
1.12274234243
0.514455936052
0.209835188238
0.0760914764491
0.0239386451808
0.00625220120725
0.00128226493686
18.5721032393
17.7089850904
16.4681402931
14.8858062534
13.0343123689
11.007592118
8.91978811805
6.91152333723
5.14868556152
3.79311007845
2.82177614297
1.9274981849
1.11915872495
0.562244374288
0.252076018319
0.102028421428
0.0368983908754
0.0115799736076
0.00300293981958
0.000602649623437
17.8969112987
16.9014580928
15.506696516
13.7684599344
11.7849608202
9.67636974709
7.57564317174
5.63117304103
4.00411616456
2.80458131989
1.89350371987
1.12598176191
0.593838245953
0.284572224444
0.124980262383
0.0500911103336
0.0179949007589
0.00559875436651
0.00142596860896
0.000273687160812
16.8309452041
15.7571255242
14.2860355695
12.4904874334
10.4850855496
8.40353043754
6.38568816616
4.57714706964
3.11886786841
2.05712578879
1.24031871606
0.657478407454
0.322676721039
0.148604660855
0.0638061274421
0.0251713203555
0.00890463933115
0.00271350754752
0.000666860726311
0.000118486279795
18.1581876852
16.8776407953
15.1690821811
13.1298085811
10.8881667903
8.58775704057
6.37727556311
4.40276182886
2.78732498368
1.59868782348
0.820883716707
0.392879165469
0.182112471731
0.0808219828702
0.0337413345931
0.0129660207137
0.00445242601074
0.00130374526986
0.000301559429418
4.78628305829e-05
26.3433405311
24.4511657135
21.946232696
18.9606812862
15.6683909986
12.270170112
8.98974522888
6.03669933015
3.56254668513
1.69682341596
0.655338122431
0.25687706883
0.108320113065
0.0456226903359
0.018299245501
0.00676031713495
0.00221692938707
0.000612181043105
0.00013037266204
1.80920686453e-05
3066.67576962
843.918750995
2985.38789061
1487.50973374
2035.2303882
639.175220677
1228.42192933
296.782288266
731.394412062
161.325571312
429.185721893
95.7629713316
240.965132168
56.5486160074
129.142114336
31.6410375436
66.8502375464
16.7165591689
33.9078740208
8.51314806363
17.071602059
4.27133924497
8.63544065336
2.14935196901
4.43077571544
1.10088972134
2.31986491266
0.578099247612
1.24051066801
0.311272348301
0.675450104209
0.171109176184
0.372397632818
0.0953668566772
0.206761221909
0.0535740443809
0.114885099321
0.0301239437137
0.0635618490814
0.016868994428
0.034837600328
0.00935870150323
0.018828483679
0.00512100200235
0.00999210552056
0.00274752816574
0.0051772039959
0.00143763173282
0.00262129655809
0.000733865789409
0.00129431444845
0.000364452572701
0.000619860027306
0.000173830834189
0.000284209603381
7.80715613e-05
0.000122199453601
3.19176378628e-05
4.74564885142e-05
1.13339799277e-05
1.57378149582e-05
3.38213483173e-06
4.42757649933e-06
9.06965053495e-07
)
;

boundaryField
{
    inletfuel
    {
        type            zeroGradient;
    }
    inletair
    {
        type            zeroGradient;
    }
    outlet
    {
        type            zeroGradient;
    }
    axis
    {
        type            empty;
    }
    leftside
    {
        type            zeroGradient;
    }
    burnerwall
    {
        type            zeroGradient;
    }
    front
    {
        type            wedge;
    }
    back
    {
        type            wedge;
    }
    procBoundary1to0
    {
        type            processor;
        value           nonuniform List<scalar> 
27
(
2361461.13351
2463120.51322
2681342.87898
3001552.43594
1367824.03458
808479.766724
448754.717149
236248.793283
110371.008386
38957.288877
8156.98260997
3740422.75274
5545106.7317
8896361.94403
15448955.1659
29378692.248
58880615.1192
71017989.7218
42604657.6651
28109656.9689
17652159.0872
10574603.0229
6183414.3546
3574947.32368
3574947.32368
2491.96737301
960.722088309
)
;
    }
}


// ************************************************************************* //
