/*--------------------------------*- C++ -*----------------------------------*\
  =========                 |
  \\      /  F ield         | OpenFOAM: The Open Source CFD Toolbox
   \\    /   O peration     | Website:  https://openfoam.org
    \\  /    A nd           | Version:  7
     \\/     M anipulation  |
\*---------------------------------------------------------------------------*/
FoamFile
{
    version     2.0;
    format      ascii;
    class       volScalarField;
    location    "0.05";
    object      T;
}
// * * * * * * * * * * * * * * * * * * * * * * * * * * * * * * * * * * * * * //

dimensions      [0 0 0 1 0 0 0];

internalField   nonuniform List<scalar> 
815
(
1654.68227316
1661.14289348
1675.32786596
1694.66670372
1699.58047041
1710.34924454
1787.2192424
1790.84836158
1799.16681985
1906.17486384
1908.36186596
1912.56100999
1477.45380038
1481.04107743
1479.94314006
970.541937567
972.166351478
971.135742044
741.532172939
741.64841332
740.942738424
646.662143746
646.475020601
646.004787738
602.14492543
601.963522979
601.596473822
577.828388426
577.654471306
577.304117509
562.39850706
562.216546958
561.846701512
551.019341054
550.830067145
550.431741577
541.512922279
541.307355992
540.875494322
532.745340985
532.530928261
532.073043659
524.235018652
524.011264188
523.530122294
515.749998044
515.518162355
515.017579166
507.192234651
506.956217159
506.441413748
498.582870672
498.338827061
497.810930141
489.930128265
489.680996331
489.145379133
481.276816574
481.026028779
480.489532371
472.685883129
472.435769394
471.90523779
464.210970215
463.969469102
463.455406408
455.93973636
455.712163387
455.224392059
447.984939689
447.772035642
447.317639618
440.457153479
440.262110303
439.847827463
433.485621311
433.310726926
432.941081492
427.183433133
427.032110793
426.712131729
421.646094266
421.520733074
421.253766145
416.944272432
416.845269865
416.63047186
413.155457019
413.076883269
412.906006169
410.273021826
410.211584866
410.077162591
1695.09100542
1725.36567262
1810.91956148
1917.95648538
1475.69352621
968.347488348
739.645279708
645.30337507
601.081668017
576.818993684
561.334496297
549.880251674
540.27716459
531.43788455
522.862247362
514.32245304
505.72648158
497.079156016
488.404688172
479.749253992
471.174370001
462.747651207
454.552758696
446.691806407
439.277489999
432.433357324
426.272933324
420.886376836
416.333707889
412.669342375
409.8912112
1785.86761714
1625.8460504
1465.90512971
1272.83901729
999.439115916
673.165994424
472.031297846
1740.20876249
1829.96196061
1947.80865548
2078.10186685
2189.70217155
2234.30449997
2241.60476668
2271.88535182
2331.17614125
2349.11928722
2227.33473232
2030.56360292
1820.24755457
1635.59042972
1494.72922754
1393.46017386
1280.02996524
1055.92975347
703.924648399
482.506200188
1759.56450679
1827.52292364
1917.41493776
2019.61825124
2118.27409119
2195.4672545
2258.99531204
2314.3028732
2320.16428954
2178.64487157
1945.78390977
1699.74009011
1492.27584689
1346.25720904
1261.93541507
1225.14075884
1181.1075338
1013.44978069
679.892552827
483.075446702
1837.85153414
1892.3761615
1965.49991514
2050.09756266
2132.45027522
2189.65425851
2189.1352387
2076.79782935
1890.42474269
1667.83399526
1452.99639459
1279.67282228
1158.08112238
1086.43136098
1057.77091566
1056.68226272
1036.00268757
899.159444662
625.3852912
481.968786338
1929.24463931
1947.34473157
1959.4960024
1946.48555173
1876.66068705
1753.47942081
1599.82388591
1437.07016201
1290.60641744
1163.56836086
1059.92734974
984.22836063
936.593887234
914.278101573
911.566967852
913.083355585
884.615565674
770.3294636
574.257510377
483.959564878
1462.42668841
1429.38021689
1378.97703239
1309.26365792
1223.10787577
1136.64132312
1057.69936267
988.565403365
929.554815472
880.647003307
843.020695505
818.094377336
805.260321837
801.947971101
802.053710299
792.483815477
754.128853979
664.449881851
538.729624193
489.739465755
960.465025245
943.045586807
919.124158029
889.159727825
856.990095687
826.287500856
798.636698687
774.652656975
754.637040848
738.956688606
728.255556711
722.705110532
721.094556491
720.416422476
715.117052452
696.899431361
657.763115511
592.386662832
518.505510607
497.642354243
736.307308091
729.616215627
720.893957717
710.581821906
699.668083735
689.135925058
679.759824492
671.957286781
666.04003595
662.183567453
660.410607415
660.130225123
659.736942767
656.453734147
646.460921399
625.766838293
592.290202489
548.293676769
509.269125197
505.601228137
643.673844303
640.571221471
636.623938098
632.078587645
627.372562161
622.962870062
619.236006478
616.427224217
614.667330809
613.901971426
613.788261935
613.452658979
611.385143086
605.546155724
593.811762539
574.947558826
549.884446589
523.238694586
506.667717078
512.350113444
599.94914863
597.793647184
595.084227167
592.019292469
588.880901953
585.940242371
583.415080604
581.430465166
580.009989107
579.000880784
577.969142287
576.09814112
572.225426559
565.094583107
553.891790311
538.976392018
522.65127301
509.616500403
507.289150785
517.504346367
575.773495835
573.749980728
571.173933571
568.214291103
565.080833956
561.963428859
559.006274883
556.289139557
553.811674729
551.434378714
548.798881526
545.300083914
540.196225076
532.917673901
523.544977794
513.332437828
504.972911057
502.336012867
509.00529091
521.279063223
560.235872199
558.06997142
555.254828899
551.933337247
548.273022441
544.421472034
540.489149008
536.545743441
532.614298662
528.63059701
524.38837348
519.547677598
513.777433717
507.062439177
500.103276017
494.62139206
493.195511894
498.436955858
510.822567797
524.109909833
548.689877015
546.301961598
543.143060161
539.335835965
535.020675507
530.32064002
525.330350886
520.126416254
514.776148981
509.31437852
503.707807925
497.879817491
491.860753394
486.075198507
481.673795198
480.612991137
485.11402628
496.324870328
512.444837271
526.427735476
538.982983976
536.366182171
532.865128107
528.586174903
523.652626614
518.173769106
512.238761767
505.938710779
499.390421789
492.727276176
486.077699814
479.596702287
473.616005393
468.916482748
467.007029449
469.981474506
479.501624012
495.243865681
513.932380282
528.570595745
530.053729153
527.231718377
523.429811881
518.744926659
513.291948185
507.175428714
500.487830814
493.339286437
485.892359978
478.365719433
471.021672107
464.199992162
458.470035082
454.906361351
455.353356854
461.964187557
475.700756709
494.89275004
515.449161181
530.788512178
521.39969283
518.403857255
514.353353104
509.342494431
503.485654617
496.891129383
489.66261709
481.932860596
473.903867795
465.861338739
458.167696421
451.295462653
445.995889478
443.611723482
446.269305289
456.144186884
473.381726448
495.194597143
517.208126172
533.262956646
512.794105547
509.657886511
505.413229357
500.157921365
494.012892844
487.097942972
479.534999915
471.482172824
463.174584798
454.945802116
447.214436214
440.56826839
435.886525087
434.70539725
439.449611891
452.255736125
472.377647451
496.194683399
519.388841972
536.113490515
504.14965714
500.909521309
496.526456456
491.107447566
484.785901809
477.699166808
469.992803146
461.851565621
453.527963802
445.40164722
437.941025133
431.768360738
427.849243697
427.909543786
434.673940315
450.127286549
472.598466395
497.959608848
522.117802764
539.418231913
495.465916886
492.15864511
487.693914791
482.191080671
475.79974368
468.679309477
460.993868122
452.965365283
444.878808604
437.11647444
430.160368646
424.650356877
421.612758784
422.978421201
431.762808197
449.63090821
473.989772143
500.544891767
525.478257427
543.227273443
486.772737761
483.438685098
478.951989807
473.444808531
467.082485713
460.0542878
452.557407532
444.831904841
437.179382072
429.979486495
423.702850186
418.989214947
416.930302048
419.705124623
430.57644149
450.642995449
476.504473268
503.98507938
529.521101251
547.572297208
478.119497657
474.80151861
470.353095071
464.922856665
458.698486992
451.890859328
444.724630534
437.457355413
430.392903532
423.896033507
418.41348642
414.583038799
413.594499447
417.940715988
431.014843378
453.062016089
480.109899211
508.303851243
534.278610823
552.468939812
469.568136811
466.314466202
461.972298906
456.705248792
450.720830441
444.250461576
437.538371509
430.851331719
424.484912081
418.779049207
414.153851504
411.261625318
411.457827974
417.618819705
433.01384252
456.810027673
484.791548863
513.520913114
539.768705102
557.918304341
461.192059876
458.054244892
453.887298708
448.86794985
443.219626437
437.189481577
431.032640817
425.014881383
419.414790674
414.543638443
410.803269338
408.900090807
410.460601248
418.764580953
436.551885718
461.851587484
490.560442334
519.655101831
545.990791737
563.897438355
453.075730603
450.105801984
446.181464187
441.489019471
436.262534117
430.757682657
425.23146497
419.939164322
415.137046632
411.110844022
408.267059579
407.439356633
410.662410626
421.491540015
441.637697861
468.186087216
497.435724698
526.708243353
552.917399651
570.360053063
445.317944887
442.564051652
438.9438105
434.647344175
429.913265843
424.996963094
420.148884466
415.606967994
411.604480411
408.414224676
406.492107644
406.920054596
412.260995266
425.960671529
448.283005362
475.811682209
505.396470578
534.620680744
560.457100231
577.209722176
438.028328639
435.531734741
432.266598766
428.420812675
424.230074734
419.941148878
415.790529848
411.99574548
408.77290145
406.408379183
405.487418894
407.511362401
415.545680037
432.266274271
456.424810235
484.641400256
514.314685541
543.233023255
568.453473365
584.315035606
431.324426277
429.116385181
426.242600563
422.883442357
419.263560443
415.61434215
412.153181689
409.078607549
406.604152872
405.077939336
405.346187565
409.498881509
420.741001466
440.289642504
465.820371493
494.393353118
523.865711434
552.200318696
576.587132365
591.553483535
425.315571912
423.414441842
420.951289105
418.093151926
415.046962308
412.023462011
409.219109731
406.819914246
405.062403527
404.435317555
406.223339703
413.112407861
427.710901467
449.539140658
475.903691595
504.442753146
533.381331786
560.911548084
584.499364482
598.850888587
420.085405838
418.495600459
416.443913541
414.079094831
411.58546554
409.149839122
406.948853103
405.166429983
404.097202448
404.473637753
408.17038087
418.14179364
435.6650673
458.975537467
485.605285428
513.734826571
541.92315881
568.658120426
591.768698838
606.162071916
415.685481769
414.396308789
412.737337515
410.836323549
408.851628228
406.944510917
405.272963566
404.026429278
403.584896928
405.003700352
410.760305825
423.564689842
443.137694662
467.1244384
493.534437722
521.005692381
548.431400012
574.656704788
597.939766682
613.372651647
412.154437688
411.131398293
409.819478576
408.325364357
406.780909007
405.320705572
404.081158383
403.247826668
403.266078914
405.496521982
412.926688158
427.760084343
448.422426845
472.468779067
498.386446468
525.196555409
552.11581816
578.376292215
602.666609017
620.124812159
409.487939663
408.687574187
407.664139045
406.504787283
405.316784229
404.208952788
403.292041929
402.723780123
402.915521316
405.252319309
413.120928458
428.930563484
450.146134383
474.105210821
499.680601876
526.219765601
553.193773379
580.132028967
606.018463149
625.552555514
499.946224553
528.933899723
511.687016392
537.353329631
518.229803825
535.471256886
518.253896465
526.72160831
514.712955146
516.572718834
511.330091184
508.376939633
509.643727513
502.779831445
509.397564027
499.16074964
509.902129711
496.776391747
510.688906783
495.159459564
511.599368778
494.111034534
512.637311873
493.557269684
513.865417563
493.484865612
515.354541462
493.883546777
517.158432566
494.736276381
519.318841897
496.034147999
521.863581107
497.763828932
524.818206359
499.927049009
528.19221249
502.510333544
531.995902263
505.508287306
536.223027525
508.901589311
540.851929895
512.662251952
545.840687209
516.728576733
551.112492314
521.030470459
556.558075915
525.489293974
562.09981312
529.929479265
567.553006169
534.083289285
572.748703312
537.588271814
577.419264994
540.015828898
581.19202694
541.102616774
583.694281769
541.303920449
584.996734168
542.075723524
)
;

boundaryField
{
    inletfuel
    {
        type            fixedValue;
        value           nonuniform 0();
    }
    inletair
    {
        type            fixedValue;
        value           nonuniform 0();
    }
    outlet
    {
        type            zeroGradient;
    }
    axis
    {
        type            empty;
    }
    leftside
    {
        type            fixedValue;
        value           uniform 294;
    }
    burnerwall
    {
        type            zeroGradient;
    }
    front
    {
        type            wedge;
    }
    back
    {
        type            wedge;
    }
    procBoundary1to0
    {
        type            processor;
        value           nonuniform List<scalar> 
27
(
1588.01647473
1596.45534127
1614.86294875
1640.51541036
1682.54148415
1531.30809087
1344.49281378
1120.30178901
852.409452727
591.156636312
445.502403281
1699.19971034
1816.00074983
1969.59378602
2138.91984981
2274.58767026
2259.0938812
2145.10858239
2081.13947325
2108.38090491
2164.4040472
2166.05844862
2085.64063937
1946.9267314
1946.9267314
483.860418588
515.632926792
)
;
    }
}


// ************************************************************************* //
