/*--------------------------------*- C++ -*----------------------------------*\
  =========                 |
  \\      /  F ield         | OpenFOAM: The Open Source CFD Toolbox
   \\    /   O peration     | Website:  https://openfoam.org
    \\  /    A nd           | Version:  7
     \\/     M anipulation  |
\*---------------------------------------------------------------------------*/
FoamFile
{
    version     2.0;
    format      ascii;
    class       volVectorField;
    location    "0.05";
    object      U;
}
// * * * * * * * * * * * * * * * * * * * * * * * * * * * * * * * * * * * * * //

dimensions      [0 1 -1 0 0 0 0];

internalField   nonuniform List<vector> 
815
(
(0.0907368674182 1.05879982162e-11 29.8217241771)
(0.232375659984 3.11562023632e-11 29.8464552209)
(0.362835697467 5.81487245255e-11 29.7596689771)
(0.11095788622 -7.26212966014e-12 26.5994214817)
(0.280614809872 -2.30051312496e-11 26.632043882)
(0.430777110707 -5.77377444201e-11 26.5629347159)
(0.118550684887 -1.38941127845e-10 20.4851007916)
(0.303964241403 -7.31662115521e-11 20.5574431162)
(0.472624308663 -4.38699336226e-11 20.51799219)
(0.0968792967497 -1.4435806768e-10 13.480194287)
(0.258058050768 -1.59835604588e-11 13.5593347192)
(0.416820016818 -1.3672289511e-10 13.5577781795)
(0.1468015417 -1.88903686481e-10 10.9996087255)
(0.38044738873 -1.27108074116e-10 11.0537436167)
(0.608330131918 -1.22189251047e-10 11.0690210784)
(0.0915131060098 -3.96899448271e-11 10.6153042135)
(0.237078455465 -6.32658552647e-11 10.6523932352)
(0.383325379029 -7.34750319916e-11 10.6675567796)
(0.0473800046347 -1.18528610467e-11 10.3125702592)
(0.123255560134 -2.88163211191e-11 10.3467124319)
(0.199709386491 -4.07366908692e-11 10.3670000379)
(0.0156622957214 -5.77932121962e-12 10.2858828798)
(0.0411612671005 -1.60593284584e-11 10.3176109428)
(0.0669997876737 -2.58141231165e-11 10.3404978232)
(0.00112393679011 2.05300858097e-11 10.6287841321)
(0.00312888606275 6.45672419519e-11 10.660171806)
(0.00552296676422 9.62128061309e-12 10.685020886)
(-0.00481028762162 2.40322848348e-12 11.1205945267)
(-0.0119046498139 4.41712667663e-12 11.1499430065)
(-0.0179162796533 -1.14515380326e-11 11.1743250456)
(-0.00491455366966 3.53751234475e-11 11.7339024424)
(-0.0134788525517 -1.56426482433e-11 11.7624015347)
(-0.0219186913665 -6.70762947619e-11 11.7860402394)
(-0.00662992806449 -7.25486820511e-12 12.3457573531)
(-0.0166177008763 -2.88126714065e-11 12.372797767)
(-0.0252921216266 -5.31349236182e-11 12.395268723)
(-0.00355201424205 -1.13323456953e-11 12.932209881)
(-0.00990615097298 -3.24843506397e-11 12.958021264)
(-0.0165963382374 -5.23140856652e-11 12.9793775541)
(-0.0035039253131 -3.87558343461e-11 13.4697582455)
(-0.00935790603086 -1.1340091167e-10 13.494351837)
(-0.0150547245554 -1.32239935565e-10 13.5144528091)
(-0.00275272656046 -2.70542941241e-11 13.9547909098)
(-0.00727419633638 -7.41268767348e-11 13.9775008444)
(-0.0116272496976 -1.0250884427e-10 13.9961528396)
(-0.00141518270457 -5.71404398243e-12 14.3833224377)
(-0.00427187277655 -1.17795118599e-11 14.4046526499)
(-0.00743575389284 -7.97478088044e-11 14.4221505519)
(-0.0024416158478 -1.24157558527e-11 14.7593617507)
(-0.0056599368524 -3.69736196478e-11 14.7785906421)
(-0.00801274236166 -7.52678873e-11 14.7946558145)
(-0.0013801156856 -1.3869667367e-11 15.0799073336)
(-0.0032706634091 -4.00436003717e-11 15.0973603511)
(-0.00468903339729 -6.97723835288e-11 15.1122750607)
(-0.000823297030117 -1.16431069092e-11 15.3490957827)
(-0.00185428026456 -3.33808861283e-11 15.3645193656)
(-0.00256328548036 -5.67939122376e-11 15.378187911)
(-0.000710429151463 3.39053324691e-11 15.566360903)
(-0.00122482189297 1.04360585409e-10 15.5797478309)
(-0.00141458118141 6.63320695237e-11 15.5922706974)
(0.000400798198328 4.35983295602e-11 15.7359416675)
(0.000796981299015 1.23729961164e-10 15.7473114011)
(0.000977520355972 5.05488511766e-11 15.7587455642)
(0.000678235226806 1.57150119898e-11 15.8642795936)
(0.00144184563781 3.80165761064e-11 15.8735857062)
(0.00185940606847 1.58203199465e-11 15.8840826259)
(4.45421883529e-05 3.01390758192e-12 15.9595505233)
(0.00051963152987 6.16667372838e-12 15.9669708865)
(0.00106707128805 -3.34995077596e-12 15.9766398691)
(0.000105912224174 -1.237090013e-12 16.0317942738)
(0.000539512327578 -4.14403271647e-12 16.037652716)
(0.000994161897477 -1.02136484088e-11 16.0467265782)
(-0.000299374275613 -2.01906803795e-12 16.0921176897)
(-0.000432079299316 -5.81984517143e-12 16.096592888)
(-0.000381061814024 -1.01447137188e-11 16.1052348544)
(-0.000278993125251 -6.84450055134e-11 16.1523956028)
(-0.000650516018493 -2.84614164914e-11 16.1556511746)
(-0.00111974307043 -7.87954084199e-12 16.1640881259)
(-0.000344430169079 -1.42131548687e-11 16.226265499)
(-0.00103065975604 -2.33646676474e-11 16.2283459913)
(-0.00209836681852 -2.47415883193e-11 16.2367098472)
(-0.000537747618204 3.18080833609e-11 16.323708225)
(-0.0018293725738 -7.22804255204e-11 16.3246793323)
(-0.00358483260886 -6.1330903266e-11 16.3330539927)
(-0.00181240685747 -7.00497092975e-11 16.4447173691)
(-0.00443860058067 -4.41118549898e-11 16.44508149)
(-0.00690209808884 -7.23279964912e-12 16.4535693365)
(-0.00151994478576 7.4255533105e-12 16.5642172558)
(-0.00395690192809 4.89380535151e-11 16.5680113502)
(-0.00633231769505 -4.17559389984e-11 16.5760041783)
(-0.000318330401747 -6.97815258181e-11 16.6447604707)
(-0.00133116566156 1.40574179927e-10 16.6546335259)
(-0.00247565313757 1.08991441306e-10 16.6611820741)
(0.482282472677 9.06217135044e-11 29.5896593588)
(0.583631680276 1.87836500996e-11 26.4160866732)
(0.637937327836 -1.86443647004e-11 20.3955412107)
(0.576056979782 -9.87379927293e-11 13.4974824556)
(0.828096457463 -1.2852965075e-10 11.0574172541)
(0.526037048871 -8.46925206862e-11 10.6671861925)
(0.272194363747 -5.08165666849e-11 10.3792336318)
(0.0914870108133 -3.45737180718e-11 10.3582693391)
(0.00738858992695 -1.33045000261e-11 10.7065671631)
(-0.0240026399006 -2.6291889626e-11 11.1959133045)
(-0.0303865987442 -6.33405526575e-11 11.8069100787)
(-0.0335495230559 -6.4912400915e-11 12.4145317602)
(-0.0237605644806 -6.6114444079e-11 12.9971507897)
(-0.0207630083782 -1.19396681703e-10 13.5303671971)
(-0.0160048314431 -1.15061535746e-10 14.0101385644)
(-0.0106953109651 -1.22402094347e-10 14.4344507288)
(-0.0101573509673 -1.09159713543e-10 14.805064775)
(-0.00602014468055 -9.73943782148e-11 15.1211368526)
(-0.00322060536722 -7.90387190584e-11 15.3854097204)
(-0.00156713337743 -9.24809217801e-12 15.5979974924)
(0.00120310989627 -1.05542642271e-11 15.7630911702)
(0.00234176603507 -1.46441316814e-11 15.8871751154)
(0.00170897957297 -1.68103831572e-11 15.9786876838)
(0.00152567470963 -1.70779227348e-11 16.0480748644)
(-0.000210346238901 -1.4281317482e-11 16.1061378138)
(-0.00149608715321 5.3171777696e-12 16.1648643602)
(-0.00319246266271 -2.92527345342e-11 16.2375938954)
(-0.00539021705271 -7.07416851744e-11 16.3341741439)
(-0.00918814983439 -4.35172531924e-11 16.4548974286)
(-0.00854034576193 -3.19509536794e-11 16.5765644435)
(-0.00338781056195 5.16519208856e-11 16.6604542898)
(1.99996207508 -1.12669814745e-12 8.2540186465)
(1.92074014871 8.33203099169e-12 8.19888455331)
(1.70908751915 -5.18651245297e-13 8.44180774647)
(1.42849719966 -5.23861418969e-12 8.51210332338)
(0.765072853075 -6.49938862333e-12 7.91631685272)
(0.204067886407 -4.57280737343e-12 6.5653372479)
(0.0930465626541 -6.45044329871e-12 5.60354655791)
(0.673032500764 1.55560814887e-10 29.1547223385)
(0.922573127819 1.87078291549e-10 28.1681194467)
(1.18511295043 1.04676738205e-10 26.6868903271)
(1.46350324427 4.73158676022e-11 24.6602644399)
(1.73599014894 3.24280241691e-11 22.1049363542)
(1.9533227687 2.01147757724e-11 19.1889110121)
(2.18845556855 1.21123405736e-11 16.4825542231)
(2.39172500459 -1.98931170123e-12 14.290478311)
(2.37350594234 -4.19971049477e-11 12.4820945393)
(2.10666337447 -2.76030147451e-11 10.7888545944)
(1.92722795985 -1.84331415952e-11 9.10981216322)
(2.01608102748 7.58930993375e-12 7.859215084)
(2.2805188185 -8.38502573923e-12 7.23776745369)
(2.50496212278 -2.7092211706e-12 7.19144697684)
(2.54158841155 1.72293899461e-11 7.56092590216)
(2.35635563211 8.05023034952e-12 8.26846821556)
(1.6893898523 -4.33798481433e-13 8.99344704792)
(0.837147043157 -5.55057335996e-12 8.87306913046)
(0.373093250965 -1.18351849382e-11 7.430824951)
(0.235944742027 -6.77158542353e-12 6.22518550433)
(0.860250085295 9.25504116035e-11 26.0270266798)
(1.22687014278 8.05493750466e-11 25.106942644)
(1.60915435142 1.24886792569e-10 23.7160816709)
(1.97382043951 2.74605173176e-11 21.8252069573)
(2.27753675198 2.01512801128e-11 19.4707818362)
(2.45149623901 9.67570986408e-12 16.7940834021)
(2.46617043664 2.02898693769e-12 14.1274312592)
(2.35925905663 -6.18263013612e-12 11.752535944)
(2.32502191079 -2.42902846388e-11 9.88292261135)
(2.44872846335 -2.08099264622e-11 8.48256043032)
(2.72576372105 4.16299695551e-12 7.60302638761)
(2.91861583148 4.05410935919e-12 7.16454096229)
(2.88756708219 -4.71402330741e-12 7.1414229547)
(2.73738760203 -2.84975602858e-12 7.41798207562)
(2.54248723084 1.0608046862e-11 7.93070633412)
(2.24393779377 8.25635102111e-12 8.70471319273)
(1.71604067801 1.69340113402e-12 9.5069095492)
(0.844734128725 -5.28345541231e-12 9.71968412241)
(0.358714683737 -1.21364869585e-11 8.26495244844)
(0.192794684617 -7.03646652223e-12 6.94598686431)
(0.942008990212 1.05178842547e-11 20.0495896112)
(1.35207762184 -3.65028904662e-11 19.1509537569)
(1.76091537653 3.49965887265e-11 17.8016002228)
(2.13722748797 4.35350096666e-11 16.0372156392)
(2.42252029291 8.1417564742e-12 13.988946165)
(2.55148211211 -5.95750462879e-12 11.9399804521)
(2.6181465025 -1.17418379234e-11 10.2119387133)
(2.98275509997 -4.03853256643e-11 8.99137515998)
(3.33833114914 -2.69521017195e-11 8.24423326751)
(3.44788876164 -3.80302477648e-11 7.82079721925)
(3.30865910188 -1.59520982207e-11 7.62320315868)
(3.00733751038 -7.68874791972e-12 7.59345587366)
(2.68732378171 -8.3146476235e-12 7.75005115622)
(2.3329429786 -1.74492591061e-12 8.08719659915)
(2.01369281911 9.97557304237e-12 8.6103742302)
(1.59163763449 7.23172416815e-12 9.30534382932)
(1.0498860984 1.20245070597e-11 10.0095510559)
(0.569570074213 -5.63292259624e-12 10.0737847389)
(0.393077285319 -1.16059591784e-11 8.80424335812)
(0.173183530728 -1.13568083934e-11 7.56324432356)
(0.877780061581 -7.52430178373e-11 13.3132225409)
(1.28107636287 -1.41655779886e-10 12.8061691168)
(1.70986707596 -7.17122036495e-11 12.0936813809)
(2.17502572473 -7.23237871052e-11 11.2603932629)
(2.80855992553 -4.47008298477e-11 10.4448216911)
(3.43100686429 -2.91647149949e-11 9.73287330357)
(3.76014615163 1.120872769e-11 9.21392556939)
(3.74085993178 -2.97489768634e-12 8.90023628964)
(3.51224400663 1.17343289258e-11 8.68229871205)
(3.20758808948 -2.49694738098e-11 8.55078192223)
(2.85588664536 -2.31365584434e-12 8.4918522655)
(2.47599832798 -1.71422243383e-11 8.55474309163)
(2.06751557661 -2.06398029176e-11 8.73864738953)
(1.661898073 5.54207358396e-13 9.05381532377)
(1.25423969255 2.42241918308e-11 9.51191808074)
(0.801495589633 5.78888184147e-12 10.0355918143)
(0.46368461305 7.82490542053e-12 10.529944093)
(0.380045741571 -6.80510301315e-12 10.4135770772)
(0.350304494657 -1.07345964378e-11 9.31385273717)
(0.130242037534 -1.14761607908e-11 8.17225693029)
(1.24782136655 -1.93549235741e-10 10.9996232639)
(1.77277442421 -1.39017917989e-10 10.8393699881)
(2.27202663503 -9.09069590196e-11 10.6252319662)
(2.71805736778 -7.09338554316e-11 10.3897094134)
(2.9690048511 -4.86222279696e-11 10.1596871233)
(2.98226433077 -2.90562798359e-11 9.92504025261)
(2.87531799597 -3.13927908328e-12 9.71403233446)
(2.69877690906 -1.66551718178e-12 9.54804545646)
(2.4749401847 3.86571473658e-12 9.44098196344)
(2.21216523975 -1.30993897182e-11 9.38930352347)
(1.91285513329 -1.5763668935e-12 9.40404547315)
(1.58218661059 -1.9722679728e-12 9.50023141919)
(1.2318785165 -2.08392142975e-11 9.69162511763)
(0.867822203447 4.12175586607e-12 9.98056326043)
(0.490345003227 1.82950816571e-11 10.3451123527)
(0.18955620048 2.78737442206e-12 10.7050333861)
(0.0481746169596 2.6111841768e-12 10.9463854522)
(0.228970406107 -6.48128658566e-12 10.663247324)
(0.286521257176 -4.87634022683e-12 9.7219408301)
(0.0876821176747 -1.04175586595e-11 8.73143634357)
(0.790260506061 -1.15750552985e-10 10.6495735052)
(1.11476238762 -9.43677593895e-11 10.5934949617)
(1.42380919592 -7.17696930365e-11 10.5117562499)
(1.65680924799 -5.68275545538e-11 10.4101888114)
(1.75528631049 -3.96384160717e-11 10.2937515181)
(1.75948530915 -2.35939490023e-11 10.1902883837)
(1.70948187899 -7.17799509054e-12 10.1144272354)
(1.60532943685 -4.20634618855e-12 10.0719472721)
(1.45973211877 -1.53079825712e-12 10.065561317)
(1.27708518624 -8.25451662469e-12 10.1004492356)
(1.0608192241 -1.3676287221e-12 10.186043589)
(0.818005905427 -1.4312657804e-12 10.3326346271)
(0.548728787172 -1.12936111192e-11 10.541540111)
(0.279238669583 5.78551981287e-12 10.7987511273)
(0.0253319049442 1.09725750638e-11 11.0617684481)
(-0.105656337926 9.092539294e-13 11.2667298446)
(-0.108321795377 -3.07874035229e-13 11.2809132375)
(0.129810778291 -4.67229464093e-12 10.9233067559)
(0.207189475428 6.02877487504e-13 10.0687059119)
(0.0611395538973 -8.58287623069e-12 9.20090805088)
(0.402873449606 -6.86394945003e-11 10.3937203795)
(0.559289855103 -6.84486519751e-11 10.4050652581)
(0.684884090631 -6.35464651876e-11 10.4140294734)
(0.767394407945 -5.31616640793e-11 10.4196910309)
(0.805472071619 -3.79673379639e-11 10.427853988)
(0.808052039015 -2.34072564244e-11 10.4506997457)
(0.780207661172 -9.68259649924e-12 10.4900149054)
(0.722184728028 -5.49814884789e-12 10.5500523409)
(0.636685742024 -3.53196741729e-12 10.6345927358)
(0.524445031612 -5.20083010695e-12 10.7484095211)
(0.387902686129 -1.57445204695e-12 10.8961841502)
(0.228519976607 -1.6410808589e-12 11.0784271973)
(0.0592945153524 -4.23355407459e-12 11.2847846735)
(-0.10509848173 5.60582954517e-12 11.4919222695)
(-0.222400891812 6.3742295334e-12 11.6515762314)
(-0.238884024067 6.19003600872e-13 11.7146091769)
(-0.16625459285 -5.79292439459e-13 11.5728070554)
(0.0369903859159 -2.79690877417e-12 11.1637704279)
(0.111714245021 1.24775306754e-12 10.3917888982)
(0.0460834998097 -6.34756528251e-12 9.59710512344)
(0.134291135329 -4.92193660173e-11 10.3881739674)
(0.186976963474 -6.06287795917e-11 10.4333155589)
(0.231567070101 -6.69765399221e-11 10.4907762087)
(0.263608951061 -5.93765592519e-11 10.5615565438)
(0.279585471327 -4.41630702814e-11 10.646834773)
(0.278129198484 -2.90257839559e-11 10.747982891)
(0.258929246557 -1.24433382802e-11 10.8644315332)
(0.221490205535 -5.84685661893e-12 10.9965678182)
(0.166630136334 -3.26671992545e-12 11.1451934343)
(0.0952371962646 -2.96352989464e-12 11.3118638166)
(0.0095531683534 -1.37891216679e-12 11.4957747629)
(-0.0853062920389 -1.84939461589e-12 11.6897167505)
(-0.179106090269 -1.17895607812e-12 11.8778121175)
(-0.253136276158 5.22210091638e-12 12.0295093253)
(-0.279340205419 4.95092895689e-12 12.1098831796)
(-0.238959936962 2.59956246039e-12 12.0632155269)
(-0.143625975675 5.88718618139e-12 11.8355431909)
(-0.00123772476285 -9.27322625182e-13 11.3928802178)
(0.0555084830621 1.60073592099e-12 10.6976202499)
(0.0423807437632 -3.86277046989e-12 9.9357353386)
(0.0112294284125 -3.50975424037e-11 10.7442994497)
(0.0149718444114 -3.4232372938e-11 10.8063993883)
(0.0164409389627 -9.72670966927e-11 10.8877568072)
(0.0139168209785 -7.53064730637e-11 10.9882975037)
(0.00578446471588 -5.91558373832e-11 11.1066721231)
(-0.00929955395837 -6.03490083354e-11 11.2411324474)
(-0.0317196783539 -1.73709214621e-11 11.3890377855)
(-0.0616553891167 -5.99875630711e-12 11.5481826948)
(-0.0986101697404 -1.49910798817e-12 11.7170156633)
(-0.14147324991 -4.91500217291e-13 11.8942330387)
(-0.18810202366 7.81324100082e-14 12.0755993542)
(-0.233987049507 -2.58347313771e-12 12.2506989203)
(-0.27130531677 -8.99566696185e-12 12.4002464671)
(-0.283533504583 5.19294216331e-12 12.4963018154)
(-0.263968880752 5.27084624091e-12 12.5033418955)
(-0.206486332732 5.38349662222e-12 12.3823417882)
(-0.116133132406 1.16159912825e-11 12.1022822082)
(-0.0231146618057 1.12502602747e-12 11.6430819388)
(0.0207911736785 5.16446584087e-12 10.9989960112)
(0.0366309464155 -1.34876586418e-12 10.2537311489)
(-0.0339922650085 -4.73220615632e-11 11.2344771205)
(-0.0481592949291 -6.34130328758e-11 11.2994466772)
(-0.0635723254679 -1.0447951682e-10 11.3856498324)
(-0.0808119065231 -1.18975098268e-10 11.4930014447)
(-0.0999191108336 -7.15194117218e-11 11.6194158994)
(-0.121339405349 -5.78032370566e-11 11.7616764908)
(-0.144891507911 -2.06672099978e-11 11.9155739442)
(-0.170213672698 -6.272445609e-12 12.0768274142)
(-0.196229218094 2.07927168509e-12 12.2419641183)
(-0.22130620696 4.16103741958e-12 12.4077287122)
(-0.242974670627 1.09562977639e-11 12.5683007968)
(-0.256979036842 2.59782357337e-12 12.7123754396)
(-0.256878571505 5.54653083006e-12 12.8211323112)
(-0.238247416526 6.64280313766e-12 12.8687248189)
(-0.200054197124 6.02611484635e-12 12.8244717407)
(-0.13848992197 7.00587807915e-12 12.6627205394)
(-0.0682419104824 1.10046910701e-11 12.3590597489)
(-0.0104154620122 2.15052425427e-12 11.9009081899)
(0.019210633124 1.37381889125e-12 11.2924625795)
(0.0343126928259 5.78732299041e-13 10.5642987678)
(-0.0453948270383 -7.55080770025e-11 11.8433948475)
(-0.0658794345891 -1.12259000177e-10 11.9038206341)
(-0.0867237804849 -1.06763487434e-10 11.9842181663)
(-0.108283465694 -1.08044039342e-10 12.0847405818)
(-0.13009026175 -7.72308202528e-11 12.202955649)
(-0.152033029157 -7.38914506034e-11 12.3349310659)
(-0.173462718934 -2.62323723925e-11 12.4754259758)
(-0.193527801341 -1.7181832956e-11 12.6189150977)
(-0.210743285966 1.50787036066e-11 12.760828679)
(-0.223190004848 8.49353223249e-12 12.8972773894)
(-0.228117161467 1.5312129885e-11 13.0227784134)
(-0.222357982571 1.91958552086e-11 13.1271551038)
(-0.204597862032 1.12911190219e-11 13.1936284241)
(-0.173175320663 1.56440469119e-11 13.1998163764)
(-0.129711583371 6.91706869673e-12 13.1233653157)
(-0.0770937917471 7.59692251702e-12 12.9391266615)
(-0.0257614804207 9.5202494983e-12 12.6300900045)
(0.0149966794594 2.79142848479e-12 12.1795343693)
(0.0337877280876 1.17127895454e-12 11.5908693032)
(0.0374149152694 2.08726791679e-12 10.8838600831)
(-0.047271257706 -8.1739825934e-11 12.4477260129)
(-0.0663114232477 -1.04363943753e-10 12.5013447388)
(-0.0859072414244 -9.90373788948e-11 12.5725628667)
(-0.105850041446 -9.29968456665e-11 12.6614536942)
(-0.125361715198 -7.23960301488e-11 12.7654057838)
(-0.144020258993 -6.18915138976e-11 12.8800572469)
(-0.160863478302 -2.6308236728e-11 12.9995460414)
(-0.174779153204 -1.24810465273e-11 13.1175858978)
(-0.184056320083 1.54869093466e-11 13.2290806964)
(-0.186358966844 1.08733372679e-11 13.3304165541)
(-0.179599596229 1.64090617567e-11 13.4173501667)
(-0.16317814279 2.0667451082e-11 13.4818783953)
(-0.137170144353 1.3075718674e-11 13.5115589121)
(-0.099067900393 1.59119816526e-11 13.4891888288)
(-0.0590290463997 7.46057246505e-12 13.3963530918)
(-0.0121363657356 7.36223390225e-12 13.2086376647)
(0.023885902982 8.54066396497e-12 12.9085888876)
(0.0468276668704 3.34958895019e-12 12.4714203777)
(0.0567829868662 1.80721014665e-12 11.899616901)
(0.0439426922854 2.99006849666e-12 11.217238739)
(-0.0371099776843 -8.4417102578e-11 13.026761267)
(-0.0547105052917 -9.76431841953e-11 13.0724774275)
(-0.0718446863287 -9.23422387798e-11 13.1328215937)
(-0.0887329068884 -8.14223890186e-11 13.2077871953)
(-0.104518240158 -6.29957631911e-11 13.2946327186)
(-0.118778337398 -4.75053516321e-11 13.3888076305)
(-0.130487251615 -2.33335748232e-11 13.4841446427)
(-0.13854418945 -7.59052507401e-12 13.5740151712)
(-0.141016012798 2.26280693787e-11 13.6532860701)
(-0.136177094589 1.2423527274e-11 13.7188904216)
(-0.123789843016 1.64470416229e-11 13.7680940137)
(-0.102353598496 1.94190137251e-11 13.7963402796)
(-0.0729833231746 1.21682959682e-11 13.7962331699)
(-0.0344735439805 1.45779536515e-11 13.7547177626)
(0.00200776289525 7.74485381755e-12 13.6565093543)
(0.0420019200246 2.4580137545e-12 13.4778432539)
(0.065469914542 8.2811504252e-12 13.1918796024)
(0.0780911157952 3.68693770327e-12 12.7725910685)
(0.0810426581517 2.3178644541e-12 12.2209929054)
(0.0516306386563 3.40313201413e-12 11.5650136881)
(-0.0309810205798 -1.37420408681e-10 13.5558472436)
(-0.0444998582752 -1.08075367238e-10 13.5931032053)
(-0.0575508476413 -9.38148803719e-11 13.6418531715)
(-0.0700851880399 -7.49174199145e-11 13.7020434093)
(-0.0812152928372 -5.08446821246e-11 13.7708764034)
(-0.090461972965 -1.94218564934e-11 13.8438081806)
(-0.0967939103844 -2.08477882359e-11 13.9146581691)
(-0.0989116678768 -1.9281281327e-11 13.976879487)
(-0.0955594489449 7.49133790756e-12 14.0254365308)
(-0.0863879737879 1.24175109168e-11 14.0579067119)
(-0.0706430777817 1.78084936444e-11 14.0737345292)
(-0.0460672488038 2.77788776374e-11 14.0719035116)
(-0.016822076335 2.86269647131e-12 14.0488209155)
(0.020155821742 1.3879976262e-11 13.9974006569)
(0.0531265195558 1.41449988451e-11 13.9025729963)
(0.0873373188393 3.55139191295e-12 13.740769929)
(0.101927161097 1.18502094836e-11 13.4744834158)
(0.106308779733 3.5825228004e-12 13.077655162)
(0.102161770964 2.28540450996e-12 12.5527367293)
(0.0581537264803 3.47273505388e-12 11.9240570039)
(-0.023742218595 -1.33331629994e-10 14.0315415629)
(-0.0337635856579 -1.24385410773e-10 14.0604858519)
(-0.0431273508382 -1.35755589344e-10 14.0977726757)
(-0.0516677933023 -7.81253495439e-11 14.143279021)
(-0.0585460334792 -4.43863390578e-11 14.1943038146)
(-0.0632779974791 -1.49117650956e-11 14.246509094)
(-0.0646252921 -1.83488235016e-11 14.2940603338)
(-0.0620829428914 -1.74192301998e-11 14.3306236958)
(-0.0554370482614 2.54807641667e-12 14.3515751979)
(-0.0435257141093 1.06788363148e-11 14.3556406978)
(-0.0257925977549 1.87531525858e-11 14.3438698758)
(-0.00146097601228 2.67917896058e-11 14.3185756574)
(0.0285153816168 3.21250189608e-12 14.2797506503)
(0.0616817354742 1.37844573393e-11 14.2244016737)
(0.0893830199846 1.50473079767e-11 14.139423771)
(0.117598285826 5.27941707104e-12 13.9992486916)
(0.127447184161 1.03687383856e-11 13.7547033692)
(0.129524384686 1.94553465732e-12 13.3842348705)
(0.117921511348 1.5358708518e-12 12.8897445314)
(0.0616266690843 3.23113955309e-12 12.2898962206)
(-0.0166235982221 -1.93773003117e-10 14.4518441462)
(-0.0238693365025 -1.40003440323e-10 14.472416892)
(-0.0301400678817 -1.28100760535e-10 14.498257064)
(-0.0352710316214 -7.92076878312e-11 14.5292695543)
(-0.0385144996764 -3.91793999576e-11 14.5629828195)
(-0.0391142424437 1.24480347103e-12 14.5954686649)
(-0.0367501619932 -1.47254284315e-11 14.6213224306)
(-0.0313510822428 -1.38616463829e-11 14.6348940107)
(-0.021726879719 -9.81340253893e-13 14.6322610143)
(-0.0086507102731 -5.01485628993e-12 14.613371476)
(0.0101184304682 1.93994286187e-11 14.5809725993)
(0.0359032026861 3.39333956609e-11 14.5387684777)
(0.0625688229863 6.39383918522e-12 14.4911593054)
(0.0903313641139 1.41019934517e-11 14.4361986907)
(0.115244839141 1.90722273738e-11 14.3667412554)
(0.135721580044 6.03564409053e-12 14.2493157986)
(0.142564135541 7.06261415939e-12 14.030587209)
(0.144418540252 -5.58092662794e-12 13.6886983651)
(0.127233981973 -1.3144352043e-13 13.226263744)
(0.0633354345125 2.66750837051e-12 12.6565718003)
(-0.01328940056 -1.59167018626e-10 14.8184008311)
(-0.0172146232402 -1.39689892832e-10 14.8308699541)
(-0.020425227822 -1.24710788342e-10 14.8456878103)
(-0.0223921557442 -1.05155788589e-10 14.8628211043)
(-0.0222811675186 -4.25215495592e-11 14.8801717442)
(-0.0200799763649 -5.98437450282e-12 14.8943175439)
(-0.0151382830227 -1.45602600025e-11 14.9005345137)
(-0.00769093832287 -1.15452694899e-11 14.8943000037)
(0.00355820551166 -2.41956110423e-12 14.8727113308)
(0.0197787416086 -4.44816740754e-12 14.8362400776)
(0.0380650329271 1.97925538449e-11 14.7894195976)
(0.0619692981039 3.27111869196e-11 14.7367737574)
(0.0840506320344 1.00093662318e-11 14.6851095351)
(0.107897499407 1.34872142471e-11 14.6357886195)
(0.128378917474 1.1244000697e-11 14.584112294)
(0.143259324637 4.00119987184e-12 14.4885567572)
(0.150223905761 3.90250019476e-12 14.2974638022)
(0.151013114592 -5.52632392194e-12 13.9858505983)
(0.130016864822 -1.68168779517e-12 13.5564687296)
(0.062654176687 1.48159726633e-12 13.0157612152)
(-0.00798720140308 -1.41616314894e-10 15.1307452132)
(-0.0101398175915 -1.76808215918e-10 15.1355758992)
(-0.0113013092863 -1.25777965362e-10 15.1400389351)
(-0.0110637115875 -9.95256747126e-11 15.1442093097)
(-0.00894202745032 -4.64475369454e-11 15.1464567595)
(-0.0051970521431 -1.73025090039e-11 15.1440470813)
(0.00148874941837 -2.90381231216e-11 15.1333678577)
(0.0114571403041 -1.23291198352e-11 15.1107507225)
(0.0238142507786 -3.17756471139e-12 15.0746179086)
(0.0398891271246 -6.2982608977e-13 15.0261189859)
(0.0570984600687 2.01199443495e-11 14.9700476608)
(0.0784995274118 4.01204199264e-11 14.9130559165)
(0.0958321957561 2.03947795659e-11 14.8620524863)
(0.116678789632 1.27261013606e-11 14.8227552234)
(0.129674133272 6.21928261348e-12 14.7886921048)
(0.141260872339 -7.25186343487e-12 14.7171416568)
(0.153015463461 4.23241161404e-13 14.5516856317)
(0.151550460606 -4.80314012185e-12 14.2709299789)
(0.127449877066 -3.45470594114e-12 13.8737950066)
(0.0602768318535 -9.0996301368e-14 13.3597646839)
(-0.00412923973272 -1.1601253486e-10 15.391247341)
(-0.00470791965764 -1.47274931057e-10 15.3888350563)
(-0.00427238588291 -1.18228958044e-10 15.3836369491)
(-0.00273608888297 -1.11543187161e-10 15.3759208372)
(0.000781312535906 -5.0554357172e-11 15.3646403722)
(0.00646042632342 -2.52477367908e-11 15.3478235305)
(0.0144012599991 -2.98589787706e-11 15.3229999339)
(0.0249446189639 -1.58428357497e-11 15.2875591937)
(0.0375696607498 -5.73864053846e-12 15.2408853319)
(0.0526279610529 1.2013654119e-12 15.1851122238)
(0.0683418008615 9.35205224065e-12 15.1251629658)
(0.0862824764513 3.80927956356e-11 15.0684510997)
(0.100010851445 2.19893411487e-11 15.0222911473)
(0.115246525604 1.18676768602e-11 14.9959785064)
(0.124988514643 -1.31910513749e-12 14.9796711864)
(0.135641132674 -1.63888356595e-11 14.9328004669)
(0.149752271407 -2.67291880537e-12 14.7908161167)
(0.146859774551 -4.9810168478e-12 14.5389060186)
(0.119471709736 -5.96264594163e-12 14.1719802122)
(0.0557258792317 -1.86327897404e-12 13.6802477463)
(-0.00144622122607 -7.56896643567e-11 15.6003863654)
(-0.000839135079381 -1.01565207622e-10 15.5915499281)
(0.000784286415489 -6.48800864506e-11 15.5778306361)
(0.00370967075156 -6.69285769532e-11 15.5597850506)
(0.00829492620313 -4.70088069667e-11 15.5370086641)
(0.0147563238314 -2.94588156623e-11 15.5083311445)
(0.0232274216115 -3.19440728581e-11 15.4722951219)
(0.0337136962904 -3.99114330529e-11 15.4275850321)
(0.0458135140484 -2.50963629823e-11 15.3744613106)
(0.0592773348852 1.91945555043e-12 15.3156016452)
(0.0730856894815 1.02609958637e-11 15.2560478843)
(0.0871985222241 4.33554831589e-11 15.2032157365)
(0.0985795659932 2.1454407279e-11 15.1653303693)
(0.106489293919 1.69573220882e-11 15.153511302)
(0.115579176678 7.2153371226e-12 15.1577088389)
(0.127676764154 -1.29603309513e-11 15.1316027266)
(0.141232914736 -3.43352823095e-12 15.0117616717)
(0.137150810344 -5.90752750254e-12 14.7851500165)
(0.108224308778 -1.2403718612e-11 14.4446409715)
(0.0499754690786 -3.8008299724e-12 13.9690717096)
(0.001553211412 -1.03562123784e-10 15.762335903)
(0.00276752821331 -4.63900497585e-11 15.7479750193)
(0.0050193256644 -8.69166031372e-11 15.7270579281)
(0.00854071898596 -8.36423020261e-11 15.7004605962)
(0.0135680316795 -4.8166710651e-11 15.6683606103)
(0.0202178463183 -3.17026743574e-11 15.6304989449)
(0.0285229492816 -3.15116868243e-11 15.5863927338)
(0.0383010403683 -3.79104642653e-11 15.5358136019)
(0.0491740474505 -2.26156125898e-11 15.4797915256)
(0.06062416219 1.44454972494e-11 15.4212864711)
(0.0720885053653 4.89165852165e-12 15.3653083578)
(0.0823898197521 4.64830857302e-11 15.3190737605)
(0.0899344468548 1.31178717232e-11 15.2923554678)
(0.0942275595876 9.92273304048e-12 15.2967564728)
(0.104694844454 6.43518137577e-12 15.3227937048)
(0.116259779802 -7.74966461399e-12 15.3133900977)
(0.12779039628 2.01256266822e-12 15.2134703261)
(0.121954344583 -5.82025505869e-12 15.0079341502)
(0.0921472306276 -1.24078836571e-11 14.6879226504)
(0.0404219204305 -5.42798180226e-12 14.2204133117)
(0.00306367827811 -5.98597526921e-11 15.8837362336)
(0.0047456507408 -3.94562464185e-12 15.8648477687)
(0.00741491954265 -7.12255672608e-11 15.8381811385)
(0.0112115206402 -7.56469389549e-11 15.8049059527)
(0.0162891082699 -4.73836933765e-11 15.7658417702)
(0.0226915160305 -3.15552669188e-11 15.7214882032)
(0.0303281258507 -2.61501649345e-11 15.6722947473)
(0.0389637382051 -1.16468268335e-11 15.6188647528)
(0.0481756012718 -1.42713071279e-11 15.5628323743)
(0.0574407665573 1.44015008602e-11 15.5072123189)
(0.0663005522129 8.8750659587e-12 15.4569452357)
(0.0736911344032 4.00809801381e-11 15.4191669381)
(0.0761456921519 1.11273523777e-11 15.4057629457)
(0.0783298308583 6.45109324628e-12 15.4297633559)
(0.0904554231161 2.65875389038e-12 15.4760949446)
(0.100521571744 -5.48574071027e-12 15.4794918024)
(0.109424589594 -9.28463236625e-14 15.3961913819)
(0.101248393204 -6.54282417261e-12 15.2051454728)
(0.0729081973897 -1.5187205576e-11 14.8966927399)
(0.0303918442553 -6.9906418652e-12 14.4265616801)
(0.00290642588979 -3.66011793462e-11 15.9731171932)
(0.00501314160349 -1.48187159581e-11 15.9509264024)
(0.00778859648812 -5.8238069432e-11 15.9201427504)
(0.0114798668967 -6.36437358661e-11 15.8822337461)
(0.0161459830725 -4.42261594466e-11 15.838589931)
(0.0217456358962 -3.01486682226e-11 15.7903841568)
(0.0281643211812 -2.18427995459e-11 15.7388134442)
(0.0350915139437 -6.44326173479e-12 15.6851110092)
(0.0420857626521 -7.74242720845e-12 15.6312800089)
(0.0488509885414 1.25485359838e-11 15.5803038183)
(0.054445582097 1.27469923091e-11 15.5371500733)