/*--------------------------------*- C++ -*----------------------------------*\
  =========                 |
  \\      /  F ield         | OpenFOAM: The Open Source CFD Toolbox
   \\    /   O peration     | Website:  https://openfoam.org
    \\  /    A nd           | Version:  7
     \\/     M anipulation  |
\*---------------------------------------------------------------------------*/
FoamFile
{
    version     2.0;
    format      ascii;
    class       volScalarField;
    location    "0.04";
    object      alphat;
}
// * * * * * * * * * * * * * * * * * * * * * * * * * * * * * * * * * * * * * //

dimensions      [1 -1 -1 0 0 0 0];

internalField   nonuniform List<scalar> 
815
(
7.82260835753e-05
7.81702300402e-05
7.8280798751e-05
0.00013109883852
0.00013130154432
0.000132840748166
0.000225040281993
0.000225534736473
0.000227071901384
0.000314172092175
0.00031480085733
0.000316031082011
0.000381321887291
0.000381354954319
0.00038166821243
0.00040963035162
0.000409677901891
0.000409540834315
0.000416487861392
0.000416299691254
0.000416114537721
0.000413547119383
0.000413648896209
0.000413635707518
0.000408154177039
0.000408167161263
0.000408327615994
0.000400488282738
0.000400818068228
0.000401236778317
0.000392653002077
0.000392979908514
0.00039358836152
0.000383735514589
0.000384164666087
0.000384981768861
0.00037404619294
0.000374624387611
0.000375617808851
0.000363897170283
0.000364371767878
0.000365469693251
0.000352517836577
0.00035316606762
0.000354397007583
0.000341020499967
0.000341564874108
0.000342826254015
0.000328956942695
0.000329567192124
0.000330865867203
0.000317248867664
0.000317855383997
0.000319126126386
0.000306417370226
0.000306993628294
0.000308194901952
0.000297169594618
0.000297691373202
0.000298780416489
0.000290163661771
0.000290630969515
0.000291588491499
0.000286057558301
0.000286419811866
0.00028721929057
0.000284964728029
0.000285258612002
0.000285914721302
0.000286801158228
0.000287036728544
0.00028754888027
0.00029089814304
0.000291074809311
0.000291462275761
0.00029620556076
0.000296333122236
0.000296608700236
0.000301484345365
0.000301551017299
0.000301714955203
0.000304926466844
0.000304930299355
0.000304988575809
0.000296731417367
0.00029661215371
0.000296513451569
0.000210141852204
0.000209823187291
0.000209384392087
0.000123677640081
0.000123558856417
0.000123429778285
7.83465314943e-05
0.000135090746172
0.000229113125296
0.000317802132008
0.000382179057959
0.000409563191543
0.00041599225024
0.000413869650622
0.00040873763182
0.000402067114732
0.000394627359092
0.000386311441652
0.000377172660258
0.000367148667643
0.000356241790847
0.000344698361251
0.000332770718102
0.000320982597209
0.000309946286625
0.000300378858526
0.00029300753538
0.0002884311077
0.000286934518164
0.000288385701245
0.000292128355937
0.000297117393642
0.000302072507327
0.000305202733739
0.000296548787032
0.000209134521635
0.000123334603665
0.000191831443811
0.000203802733862
0.000206730796024
0.000194348078624
0.000182459849618
0.000259960826502
0.000474097142263
7.88575416618e-05
8.00846799055e-05
8.306629117e-05
8.77586369322e-05
9.31979636375e-05
9.87001003969e-05
0.000104742160429
0.000112789157963
0.000125423074464
0.000144824331049
0.000169044597012
0.000189522439684
0.000202496448303
0.000208429717539
0.000209748260137
0.000207558725772
0.000202046298825
0.000220583168832
0.000328127268177
0.000588797740494
0.000140125204876
0.000147287032018
0.00015386807243
0.000158530057084
0.000161376811815
0.000164361956973
0.000169225759109
0.000177186100144
0.000187806260799
0.000198769521985
0.000207505345779
0.000212294878341
0.000213696858525
0.000213332925146
0.000212773970207
0.000215451200052
0.000227807262605
0.000278805673324
0.00042693872386
0.000718051284802
0.000233440308609
0.000239583964362
0.000244286463449
0.000245909810464
0.000244130998724
0.000240297955816
0.000236092139229
0.000232556986391
0.000229674961174
0.000226827711705
0.00022370109037
0.000220491777911
0.000217684536708
0.0002167271538
0.000219877399363
0.000233105472813
0.000267634768895
0.000352610738249
0.000547109813761
0.000834071606978
0.000321373995954
0.000325630449796
0.000326459372544
0.000321555089804
0.000310608143126
0.000295444385322
0.000278825489825
0.00026314849296
0.000249699840172
0.000238799327104
0.000230352547747
0.000224306079423
0.00022114358403
0.000222361441033
0.00023191018167
0.000257916860222
0.00031507857364
0.000437266479018
0.000673877936039
0.000928171025805
0.000383450740885
0.000383505960032
0.000378768622593
0.000366970006293
0.000348026663525
0.000324313195042
0.000299563565522
0.000277124825963
0.00025872824768
0.000244603866427
0.000234366388016
0.000227787476382
0.000225510510982
0.000229874229228
0.00024651127153
0.000285119196866
0.00036491124145
0.000525897047768
0.000794501167704
0.00100041541969
0.000409714265096
0.000407843276733
0.000400813919633
0.000386364389855
0.000364363126626
0.000337304788941
0.000309320066159
0.000284239981032
0.000264045458218
0.000248921550055
0.000238342733601
0.000232093837163
0.000231141137571
0.000238506618853
0.00026101608266
0.000311058855553
0.000414898278587
0.000617032799856
0.000913205103429
0.00105751539351
0.000416093720992
0.00041431617273
0.000407414926238
0.000392984755607
0.000370737236111
0.000343096414905
0.000314355652931
0.000288644046938
0.000268170097049
0.000253168136275
0.000243050972442
0.000237595672907
0.000237873596565
0.000247350236413
0.000273785934052
0.000333890238418
0.000463463278227
0.000708640416884
0.00102950864591
0.00110867383451
0.00041448031406
0.000413663849911
0.000407912637521
0.000394655048211
0.00037340428721
0.000346434314891
0.000318063612214
0.000292633390185
0.00027259477587
0.000258296763482
0.000249103143338
0.000244652953897
0.000245839586208
0.00025615228404
0.000284696033601
0.000354795094784
0.000513299253226
0.000805828367787
0.00114565384233
0.00115787370287
0.000409929561687
0.00041026088735
0.000405912720507
0.000394160011984
0.000374349013061
0.000348589170308
0.000321159301661
0.000296539792029
0.000277403826138
0.00026423760616
0.000256342347062
0.000253066506849
0.000254805176286
0.000264720142336
0.00029381882844
0.00037412572746
0.000565345771741
0.000910092301932
0.00126201793255
0.00120805745504
0.000403945876393
0.000405484653483
0.000402611622712
0.00039251385199
0.000374391375217
0.000350191664975
0.00032410506947
0.00030067799433
0.000282779174024
0.000271037743697
0.000264675017304
0.000262634348454
0.00026454811872
0.000272991629844
0.000301809415495
0.000393934601695
0.000623645027906
0.00102438268158
0.00137870060031
0.00125935927643
0.000397072576572
0.000399713676879
0.000398241719327
0.000389785451311
0.000373453500993
0.000351046043714
0.000326625041882
0.000304735775592
0.000288368851303
0.000278269997521
0.00027356727271
0.000272700706798
0.000274378980033
0.000280617631135
0.000309088208594
0.000415657483879
0.000691230525424
0.00114886803848
0.00149468647469
0.00131190866436
0.000389310391106
0.000392961089296
0.000392799096311
0.000385957371551
0.000371494865965
0.000351085543145
0.000328631213968
0.000308591965579
0.00029400127448
0.000285656270155
0.000282540219774
0.000282555986668
0.000283526888827
0.000287343456017
0.000316521089175
0.000442062168164
0.000771482813611
0.00128273512157
0.00160971097044
0.00136540859602
0.0003806139178
0.000385126723592
0.000386144585499
0.000380855308884
0.000368317144588
0.000350095202268
0.000329898883035
0.000312008665637
0.000299387431862
0.000292788607132
0.000290993180322
0.000291436470602
0.000291324804197
0.000292995592812
0.000325018515657
0.000475893051475
0.000867481349476
0.00142485108102
0.00172394319809
0.00141985075075
0.000370929251083
0.00037614993392
0.00037821427652
0.000374411673398
0.000363842444755
0.000347984166464
0.000330308214717
0.000314819812255
0.000304277631949
0.000299294122094
0.000298443754719
0.000298818867274
0.000297376873421
0.000297605432947
0.000335752714768
0.00052066733163
0.000981826743449
0.00157379072387
0.00183758501495
0.00147472322342
0.000360281063255
0.000366032507167
0.000368988910306
0.000366599331524
0.000358039699192
0.000344697436837
0.000329761603071
0.000316859224674
0.000308434366777
0.000304872529755
0.000304547177139
0.000304408380653
0.000301588414847
0.000301479045
0.00035030586834
0.000579874574705
0.00111563833292
0.00172781218753
0.00195111246326
0.00153034369699
0.000348850349962
0.000354943955481
0.000358637435113
0.000357584189045
0.000351059290715
0.000340349116366
0.000328305164627
0.000318090685113
0.000311736582164
0.000309341534658
0.000309145490421
0.000308193020668
0.000304144258549
0.000305206701377
0.000370906604921
0.000657399469349
0.00126891246159
0.00188582525376
0.00206515699105
0.00158664029178
0.00033693615157
0.000343182871058
0.000347459521122
0.000347663701442
0.000343177068706
0.000335160468141
0.000326076788522
0.000318549375592
0.000314121447402
0.000312603676642
0.000312230458233
0.000310347784916
0.000305393217109
0.000309696756789
0.000400597291868
0.000757573943154
0.00144096614598
0.00204729279427
0.00218009891929
0.0016440777144
0.000325024183419
0.000331237298073
0.000335948754113
0.000337325463201
0.000334848607065
0.000329514107824
0.000323340089767
0.000318357618341
0.00031560630341
0.000314676128225
0.000313935268759
0.000311151435077
0.000305767640186
0.000316368630229
0.000443415201856
0.000884462483463
0.00162993825144
0.00221215191271
0.00229639788432
0.00170258772352
0.000313752342135
0.000319769609829
0.000324781159397
0.000327234578779
0.000326684558651
0.000323912441081
0.000320442538115
0.000317705143913
0.000316290428799
0.000315684289546
0.000314492210064
0.000310921431019
0.000305793507415
0.000327399175588
0.00050479720952
0.00104191364126
0.00183378253527
0.00238070533098
0.00241417966255
0.00176208766882
0.000303857366715
0.000309549672333
0.00031473889992
0.000318145663164
0.00031935464553
0.000318879924558
0.000317736536634
0.000316805810839
0.00031634217121
0.000315844935971
0.000314184994213
0.000309968340841
0.000306224869494
0.000346340895468
0.000592184485655
0.00123311241975
0.00205062894842
0.00255309437374
0.00253309125423
0.00182170741264
0.00029610209494
0.000301375996222
0.0003066222142
0.000310802326559
0.000313483155039
0.000314879571877
0.000315529102431
0.000315876708922
0.000315979447437
0.000315424822473
0.000313292234017
0.000308580017957
0.000308409916666
0.000379147603566
0.000715461897693
0.00145997637866
0.00227910559684
0.0027292372657
0.00265207622582
0.0018804992416
0.000291111156225
0.000295903675139
0.000301070807904
0.000305769001091
0.000309507115145
0.000312210529913
0.000314027795477
0.000315110623291
0.000315440431668
0.000314693972698
0.000312034629626
0.000307097961141
0.000315158683549
0.000435450718064
0.000886259991721
0.00172203741562
0.0025178798999
0.0029078160107
0.00276877330804
0.00193609144379
0.000289205840703
0.000293468392134
0.000298391840472
0.000303277179487
0.000307564925779
0.000310945252538
0.000313308097878
0.000314653366228
0.000314942513523
0.000313867946989
0.000310560047157
0.000306270573686
0.000332367613043
0.000529527473115
0.00111516431778
0.00201507002448
0.00276422937524
0.00308580781257
0.00287946616736
0.00198573798645
0.000290260820718
0.000293950394485
0.000298444368973
0.00030315127825
0.000307466227754
0.000310941700925
0.000313336173533
0.000314594567109
0.000314643912692
0.000313062717222
0.000308975773571
0.000308228041987
0.00037088202736
0.000679068110874
0.00140552056864
0.00232980963929
0.00301261361212
0.00325729283165
0.00297771776615
0.00202271692344
0.000293632261296
0.000296712300301
0.000300607076273
0.000304809024664
0.000308718714257
0.00031185458167
0.000313943598509
0.000314903196224
0.000314556912028
0.000312246651319
0.000307662282904
0.000318088958621
0.000445368597497
0.000896538965493
0.00174461118316
0.00265015504841
0.00325230822726
0.00341272307173
0.00305477813938
0.00203688101051
0.000298276094948
0.000300731773457
0.00030391489191
0.0003073973848
0.000310641203881
0.000313204153663
0.000314831544854
0.00031539590147
0.000314531902536
0.000311350100974
0.000307900711451
0.000343393144617
0.000566385709911
0.00117499384214
0.00210098239765
0.00295305715122
0.00346556974642
0.00353535739856
0.00309205606039
0.00200636160434
0.000302906687578
0.000304757103878
0.000307200886239
0.00030989314031
0.000312394613167
0.000314336793163
0.000315489074246
0.000315653593369
0.000314245218126
0.000310385716548
0.000311365422686
0.000386560339381
0.000724741116481
0.00147540247594
0.00242773415638
0.0032064154484
0.00362419088967
0.00359666604654
0.00305817923691
0.00189727659489
0.000305740521308
0.000307037435104
0.000308793086805
0.000310744991348
0.000312554385237
0.000313939045376
0.000314692509821
0.000314564639747
0.000312796765386
0.000308842906124
0.000316351856591
0.00043388890391
0.000880263155691
0.00173282956994
0.00267022101533
0.00336467656195
0.0036801378912
0.00354234481314
0.00289560462319
0.00166265492082
0.00029676879193
0.000297568394664
0.00029871693327
0.000300014443457
0.000301227223852
0.000302162173873
0.00030265086383
0.000302480420314
0.000300992128961
0.000298418290372
0.000311702842446
0.000454772640591
0.00096870301055
0.00186866811171
0.00275795575681
0.00335047684059
0.00354127908481
0.00327295857316
0.00251912725802
0.00127185754465
0.000208916151788
0.000209146066419
0.000209615639177
0.000210172270825
0.000210702231642
0.000211137792799
0.000211414334028
0.000211571058244
0.000211758405195
0.000214848856778
0.000239249166349
0.000383810162734
0.000892307715756
0.00176712494819
0.00255621567782
0.00299533243716
0.00301648659108
0.00261134632679
0.00182989584195
0.000777727253685
0.000123215158927
0.000123166288048
0.000123175786433
0.000123206867794
0.000123235641764
0.000123258954447
0.000123268547982
0.000123310703196
0.000123522014648
0.000125156147405
0.00013556611878
0.000201228161861
0.000513527947475
0.00118286453562
0.00175992807635
0.00197725641467
0.00183794538284
0.00143280608272
0.000890880723036
0.00037966164862
0.000184421242714
6.38623541221e-05
0.000215051640548
7.01704402603e-05
0.000239567268011
7.56438984538e-05
0.000255947655881
8.03346813281e-05
0.000264755507055
8.44612796215e-05
0.00026919149521
8.82369815696e-05
0.00027067340411
9.18179958427e-05
0.000272178644291
9.52809454816e-05
0.00027451241732
9.86339091512e-05
0.000278827441085
0.000101856944913
0.000283837662845
0.000104933815551
0.000289660508002
0.000107843320882
0.000296145946828
0.000110576506626
0.000303306197958
0.000113120050449
0.000311035986883
0.000115468999263
0.000319390028542
0.000117623514135
0.000328283997238
0.000119583605929
0.000338077059116
0.000121350399093
0.000348563718787
0.000122927038079
0.000359697632233
0.00012431887186
0.000371301507136
0.000125535545716
0.000383030733794
0.000126594477328
0.000394258711915
0.000127503956915
0.000404447698489
0.000128271651377
0.00041198408609
0.000128851504623
0.000412905016372
0.000129129182926
0.000402702482196
0.000128914284108
0.000375176659008
0.000127981860423
0.000326419967622
0.000126209034329
0.000263290561878
0.000123457011274
0.000209514814483
0.000118743823827
0.000192728836143
0.000108727756705
)
;

boundaryField
{
    inletfuel
    {
        type            calculated;
        value           nonuniform 0();
    }
    inletair
    {
        type            calculated;
        value           nonuniform 0();
    }
    outlet
    {
        type            calculated;
        value           nonuniform List<scalar> 
26
(
0.000123573601825
0.000123465923871
0.000123337825072
0.000123245646762
0.000123127024524
0.000123078232913
0.000123087807149
0.000123118883751
0.000123147723912
0.000123171076737
0.000123180788838
0.000123223030182
0.000123434398985
0.000125067561049
0.000135470516448
0.000201086527401
0.000513167931319
0.00118203611562
0.00175869896447
0.00197587121537
0.00183666015439
0.00143179766853
0.000890252888855
0.000379384735084
0.000192568112387
0.000108651096799
)
;
    }
    axis
    {
        type            empty;
    }
    leftside
    {
        type            compressible::alphatWallFunction;
        Prt             0.85;
        value           nonuniform List<scalar> 
32
(
6.64062645999e-06
8.27585731396e-06
9.71808611827e-06
1.09801022861e-05
1.21106059783e-05
1.31619444449e-05
1.41741056618e-05
1.51692741534e-05
1.61502945917e-05
1.71138811471e-05
1.8056281765e-05
1.89737009353e-05
1.98658525653e-05
2.07306547687e-05
2.15685183851e-05
2.23809879237e-05
2.31688008045e-05
2.39335294243e-05
2.467562643e-05
2.5395316527e-05
2.60931724285e-05
2.67691894566e-05
2.74188541916e-05
2.8033973935e-05
2.8586089344e-05
2.90183603402e-05
2.92439504688e-05
2.91609911713e-05
2.87096548327e-05
2.78538901384e-05
2.63282977677e-05
2.30826651984e-05
)
;
    }
    burnerwall
    {
        type            compressible::alphatWallFunction;
        Prt             0.85;
        value           nonuniform 0();
    }
    front
    {
        type            wedge;
    }
    back
    {
        type            wedge;
    }
    procBoundary1to0
    {
        type            processor;
        value           nonuniform List<scalar> 
27
(
0.000160426058547
0.000160397863578
0.000158628277438
0.000155854365822
0.000153617336391
0.000181675456909
0.000201014224672
0.000199307881952
0.000163916691148
0.000213205821608
0.000392236818776
0.000148787933321
0.000134448978325
0.000116893867788
0.000100339494315
8.74883916654e-05
7.9883046804e-05
7.78081428733e-05
8.00459711916e-05
8.5609836843e-05
9.52314839228e-05
0.000112435879484
0.000139335732825
0.00016986623022
0.00016986623022
0.00015473353188
5.71377155283e-05
)
;
    }
}


// ************************************************************************* //
