/*--------------------------------*- C++ -*----------------------------------*\
  =========                 |
  \\      /  F ield         | OpenFOAM: The Open Source CFD Toolbox
   \\    /   O peration     | Website:  https://openfoam.org
    \\  /    A nd           | Version:  7
     \\/     M anipulation  |
\*---------------------------------------------------------------------------*/
FoamFile
{
    version     2.0;
    format      ascii;
    class       volScalarField;
    location    "0.04";
    object      dQ;
}
// * * * * * * * * * * * * * * * * * * * * * * * * * * * * * * * * * * * * * //

dimensions      [1 2 -3 0 0 0 0];

internalField   nonuniform List<scalar> 
815
(
0.00923864230756
0.02797489683
0.0452476763803
0.00086329341034
0.00259935152003
0.00425471418758
0.000293655992229
0.000876427507804
0.00144031162479
0.000120703519425
0.000359883054131
0.000590042909741
4.03086169176e-05
0.000120205283601
0.00019728290196
1.14526196831e-05
3.42386973815e-05
5.63969362183e-05
3.04197357941e-06
9.10528915717e-06
1.50450585019e-05
7.90424329532e-07
2.37071894752e-06
3.929524866e-06
2.08839399187e-07
6.27012985488e-07
1.04255786591e-06
5.80919222051e-08
1.7475478778e-07
2.91668518759e-07
1.87895283643e-08
5.65903232423e-08
9.48421381717e-08
8.71323227558e-09
2.62736122572e-08
4.41853689147e-08
6.67917027046e-09
2.01308091129e-08
3.38415036952e-08
7.06068153139e-09
2.12459690849e-08
3.56329157127e-08
8.34661029861e-09
2.50995047734e-08
4.20136138274e-08
1.01619213937e-08
3.05222225105e-08
5.10016105757e-08
1.23751076962e-08
3.71489002523e-08
6.19849892859e-08
1.49187634747e-08
4.4753994418e-08
7.45614931447e-08
1.76628122133e-08
5.29440429505e-08
8.80609730137e-08
2.03827984496e-08
6.1042068806e-08
1.01342489929e-07
2.27462519258e-08
6.80561533553e-08
1.12762548596e-07
2.43702167928e-08
7.28307581542e-08
1.20414254384e-07
2.48869917505e-08
7.4300203167e-08
1.22587028571e-07
2.41160609234e-08
7.19314517455e-08
1.18439460028e-07
2.21206145313e-08
6.59222378009e-08
1.0835046339e-07
1.92021326285e-08
5.71829332104e-08
9.3841655252e-08
1.57927506804e-08
4.7000460483e-08
7.70339116811e-08
1.23389847107e-08
3.67061738472e-08
6.01090884471e-08
9.40891260262e-09
2.798547624e-08
4.58157420607e-08
9.06240583172e-09
2.69988569043e-08
4.42798954395e-08
1.14307759062e-08
3.40603523348e-08
5.58568385132e-08
0.0512540898267
0.00494921124715
0.00169167216493
0.000691119212916
0.000231297805387
6.64380276842e-05
1.77939759109e-05
4.6684651865e-06
1.24388533017e-06
3.49923688461e-07
1.14486467231e-07
5.36361773688e-08
4.10768661113e-08
4.31146632774e-08
5.06927829895e-08
6.13856414812e-08
7.44511890772e-08
8.93680428117e-08
1.05307630469e-07
1.2088651748e-07
1.3414774461e-07
1.42841618584e-07
1.45012079422e-07
1.39731757558e-07
1.27519035412e-07
1.10212065844e-07
9.03176705453e-08
7.0388538193e-08
5.36197954593e-08
5.18607285688e-08
6.53935397791e-08
0.0365072411151
0.026559076427
0.02173718541
0.0169079711037
0.00959380745375
0.00327712361019
0.000483992873771
0.164216781965
0.197402093185
0.20185769846
0.190758168364
0.174558937493
0.157838278289
0.139486447188
0.117674137573
0.0918862203362
0.0656168198603
0.0432485752747
0.0284608949278
0.019513208654
0.0147529102543
0.0126585038008
0.0113755914234
0.0091835558862
0.00549000869071
0.00204623819881
0.000280130651439
0.0171301589995
0.0241815398088
0.0303678215794
0.0351570866046
0.0380528231102
0.0383718816975
0.0359094558145
0.0310144024616
0.0248502573267
0.0187720547813
0.0136297381137
0.00996138062934
0.00779504231794
0.00685572634078
0.00658873910022
0.00622619375059
0.00507903486401
0.00312994541708
0.00112434326543
0.000148902512047
0.00601017878753
0.00872190192848
0.0110884597119
0.012733270676
0.0134418854581
0.0131642327212
0.0120252677223
0.0102964371466
0.00832487157523
0.00645965618022
0.00496325298944
0.00398902264037
0.00354721977756
0.00351984951299
0.0036338527669
0.00351176712272
0.00287641692258
0.0017215336244
0.000550329962895
7.52477264267e-05
0.00243932318363
0.0034819507546
0.00432883071672
0.00484925488374
0.0049924108891
0.00477966559109
0.00428749611724
0.00363706651496
0.00296252025661
0.00238053785937
0.00197334422582
0.00178134042568
0.00179708028472
0.00194990565774
0.00208996156182
0.0020242678208
0.00163301515024
0.000907974275564
0.000256718345959
3.7135836749e-05
0.000818339514406
0.00117150583357
0.00145904177135
0.00163530672708
0.00168290845922
0.00161303671562
0.00145719378739
0.0012604925862
0.00107021542133
0.000927093874091
0.000861478971915
0.000887813798612
0.000997306597872
0.00114492851748
0.00124343438037
0.00119282306649
0.000924133938589
0.000464139303771
0.000120748637622
1.81559586481e-05
0.000237249709519
0.000345106246873
0.000437967256539
0.000500999093166
0.000527013922934
0.000518159336892
0.000484337976857
0.000441079348652
0.000405870678029
0.000395249716348
0.000422579428455
0.000493311781151
0.000598341962264
0.000705823397346
0.00076301708051
0.000714520340783
0.000519400839552
0.00023504458328
5.7625761125e-05
8.82779794856e-06
6.41165297345e-05
9.49728791366e-05
0.00012346164325
0.000145495747677
0.000158631989813
0.000163141229621
0.000162175913569
0.000161444728528
0.000168292887673
0.000190531551806
0.000234496604215
0.0003012096323
0.000381475371768
0.000452354082302
0.000481088386741
0.000434157420724
0.000290752330135
0.000118923321864
2.77535939791e-05
4.28404848963e-06
1.69809889984e-05
2.56466425732e-05
3.42777114676e-05
4.19126106208e-05
4.79864557808e-05
5.27562179522e-05
5.76610683007e-05
6.54620874089e-05
8.00324836138e-05
0.000105630155297
0.00014521977739
0.00019754324612
0.000254029595563
0.000298147543938
0.000309111207761
0.000264958889549
0.000161428352418
5.99174312213e-05
1.34552638083e-05
2.08036140146e-06
4.56978515034e-06
7.05053526559e-06
9.73131021332e-06
1.2466361913e-05
1.52630333084e-05
1.84892292545e-05
2.31244477114e-05
3.09365290256e-05
4.43956993119e-05
6.60548310752e-05
9.7124915356e-05
0.000135363200637
0.000173391811214
0.000199518642876
0.000200191403178
0.000161090385667
8.86791432934e-05
3.00431548097e-05
6.56065113191e-06
1.01326009373e-06
1.30112012673e-06
2.06158125417e-06
2.96810675274e-06
4.05564932495e-06
5.46218826324e-06
7.55023731764e-06
1.10737916776e-05
1.73129437168e-05
2.79847898951e-05
4.46823944631e-05
6.77051239615e-05
9.45766360046e-05
0.00011931680179
0.000133793737376
0.000129080229018
9.65531231771e-05
4.79488524599e-05
1.4993932106e-05
3.21124242429e-06
4.95245728359e-07
4.31977153068e-07
7.08271846271e-07
1.07807537071e-06
1.60224216251e-06
2.42082435332e-06
3.83425724387e-06
6.41756179846e-06
1.11081481121e-05
1.91074973514e-05
3.13989694694e-05
4.78239476586e-05
6.60818434196e-05
8.15965830758e-05
8.88522426321e-05
8.2014272068e-05
5.66356025423e-05
2.54055150186e-05
7.43977031024e-06
1.57279861454e-06
2.42556483751e-07
2.04948022513e-07
3.4591696255e-07
5.51564668374e-07
8.75221341555e-07
1.429926239e-06
2.44374276125e-06
4.3370968512e-06
7.77494683164e-06
1.35713665405e-05
2.22978347663e-05
3.35973188677e-05
4.55601054633e-05
5.48539937515e-05
5.78510968377e-05
5.088191835e-05
3.23093849273e-05
1.31644432656e-05
3.66649417822e-06
7.68905730708e-07
1.18752966145e-07
1.5697990419e-07
2.65117225188e-07
4.23600527613e-07
6.73836010783e-07
1.10001273431e-06
1.86546461254e-06
3.26187853344e-06
5.73649958513e-06
9.80843094021e-06
1.57759955814e-05
2.32415899644e-05
3.07459810874e-05
3.59826791201e-05
3.66595776649e-05
3.06173603002e-05
1.78418756967e-05
6.66613982493e-06
1.79248170512e-06
3.74134668804e-07
5.79714838552e-08
1.63639312378e-07
2.71976370264e-07
4.23854155215e-07
6.50279574369e-07
1.01109411037e-06
1.61652555606e-06
2.6553962008e-06
4.40633047948e-06
7.17276459282e-06
1.10818847874e-05
1.57800924331e-05
2.02321298239e-05
2.29287927264e-05
2.25074266008e-05
1.77960846631e-05
9.50819993807e-06
3.29926079026e-06
8.67116520775e-07
1.80570864485e-07
2.81121178628e-08
1.91135078309e-07
3.12726030128e-07
4.75064333135e-07
7.0092127108e-07
1.03068830331e-06
1.53256771355e-06
2.31587064206e-06
3.53388190831e-06
5.34062251275e-06
7.76691493126e-06
1.05403832702e-05
1.29813204282e-05
1.41677313124e-05
1.33596253862e-05
9.96799653875e-06
4.88390233402e-06
1.59657890977e-06
4.1409361787e-07
8.62138455535e-08
1.35087044503e-08
2.3021723265e-07
3.72034265905e-07
5.53857147062e-07
7.91755451228e-07
1.11049979169e-06
1.54536955915e-06
2.14592732569e-06
2.97674732606e-06
4.09604535028e-06
5.49052684418e-06
6.97730372992e-06
8.1500536936e-06
8.49812182436e-06
7.66788474281e-06
5.37358059903e-06
2.41906462377e-06
7.56482718629e-07
1.9488279142e-07
4.06451811864e-08
6.42008280754e-09
2.7791252135e-07
4.44429456472e-07
6.5079809392e-07
9.07044579675e-07
1.22482210412e-06
1.6136254332e-06
2.07976755872e-06
2.62943505062e-06
3.26631789136e-06
3.96651682749e-06
4.62845554615e-06
5.04291843715e-06
4.96870728155e-06
4.26611323104e-06
2.78746504835e-06
1.15754538718e-06
3.5142423635e-07
9.03455867735e-08
1.8909020608e-08
3.01867093897e-09
3.32054593299e-07
5.25754812486e-07
7.583594999e-07
1.03372824971e-06
1.35194121519e-06
1.70259404673e-06
2.06282668189e-06
2.40500108331e-06
2.70815797514e-06
2.95637859029e-06
3.114226297e-06
3.10581609682e-06
2.852141033e-06
2.31031303887e-06
1.3928054798e-06
5.37251843337e-07
1.60394880683e-07
4.1297247476e-08
8.69161724196e-09
1.40528808769e-09
3.89365501903e-07
6.101936195e-07
8.66951982734e-07
1.15677171259e-06
1.46937278515e-06
1.77993074191e-06
2.04873478589e-06
2.23344706529e-06
2.30836553248e-06
2.27389213935e-06
2.14366332236e-06
1.92507779295e-06
1.62349631756e-06
1.22484458329e-06
6.72445428836e-07
2.43418417448e-07
7.21740527225e-08
1.86546879922e-08
3.96016406572e-09
6.48873759078e-10
4.44598474395e-07
6.8918412949e-07
9.63871931753e-07
1.25861167933e-06
1.55434016246e-06
1.81738384612e-06
2.00178921957e-06
2.06442767656e-06
1.98650389885e-06
1.78631750147e-06
1.51057887722e-06
1.21144115787e-06
9.26949378727e-07
6.39957576834e-07
3.15669090461e-07
1.086216299e-07
3.21935925718e-08
8.36776622599e-09
1.79529276748e-09
2.97964089751e-10
4.90581928985e-07
7.51763774817e-07
1.03430577349e-06
1.32120222312e-06
1.58697054429e-06
1.79464309465e-06
1.900401146e-06
1.86906878654e-06
1.69419426633e-06
1.40974363832e-06
1.08092994562e-06
7.7661136248e-07
5.3639614932e-07
3.31526002954e-07
1.45570139894e-07
4.82801849309e-08
1.43518203613e-08
3.75531247154e-09
8.14858592608e-10
1.36841839226e-10
5.19306816827e-07
7.86459100975e-07
1.06422055543e-06
1.32987761733e-06
1.55453480562e-06
1.70279230768e-06
1.73845061959e-06
1.63862355267e-06
1.41032506046e-06
1.09870649962e-06
7.74982743278e-07
5.0584725331e-07
3.16328887953e-07
1.70986452506e-07
6.69320432937e-08
2.1675458183e-08
6.46674774651e-09
1.70404065727e-09
3.73468816005e-10
6.33400728425e-11
5.24118492543e-07
7.84574278307e-07
1.04457483899e-06
1.27783732731e-06
1.45511226797e-06
1.54595297643e-06
1.52442149392e-06
1.38076799824e-06
1.13384548072e-06
8.34384292173e-07
5.49626147167e-07
3.32736220401e-07
1.89407903426e-07
8.80104148492e-08
3.12501698764e-08
9.98757551174e-09
2.98833442924e-09
7.92250941652e-10
1.75070780739e-10
2.98880973171e-11
5.0221200294e-07
7.43550469475e-07
9.74923706162e-07
1.16897098406e-06
1.29854001774e-06
1.33977402928e-06
1.27733496747e-06
1.11325590775e-06
8.7472843554e-07
6.12233063731e-07
3.82276095175e-07
2.19427740247e-07
1.13371042595e-07
4.53681398193e-08
1.5085689925e-08
4.79614860952e-09
1.43714694294e-09
3.82550269244e-10
8.49710557138e-11
1.45178031948e-11
4.55989681911e-07
6.68382610883e-07
8.6421295197e-07
1.01725101082e-06
1.10400744496e-06
1.10749248491e-06
1.02170734065e-06
8.57670883345e-07
6.46357471649e-07
4.3309032843e-07
2.60199642219e-07
1.43562625652e-07
6.64287163154e-08
2.3618375397e-08
7.62932937994e-09
2.42763996064e-09
7.27824932078e-10
1.93958938942e-10
4.30645784723e-11
7.27581809923e-12
3.92354900198e-07
5.70068059271e-07
7.27979390628e-07
8.42619697973e-07
8.94853144957e-07
8.73913979692e-07
7.80997376299e-07
6.32325129825e-07
4.58403014565e-07
2.96103437343e-07
1.7335732142e-07
9.15448140832e-08
3.77594888047e-08
1.25584192942e-08
4.0559277389e-09
1.29705991829e-09
3.88856767953e-10
1.03354267697e-10
2.27446093534e-11
3.72661355091e-12
3.20351145986e-07
4.62026663563e-07
5.83706660962e-07
6.65638708858e-07
6.93045553007e-07
6.60135379151e-07
5.72590614127e-07
4.48198519072e-07
3.13633175247e-07
1.96440219521e-07
1.12503811322e-07
5.59488328458e-08
2.10056443444e-08
6.85260262839e-09
2.24618446677e-09
7.23075479644e-10
2.16467302281e-10
5.70605927614e-11
1.22958491098e-11
1.89541828209e-12
2.48982216199e-07
3.5702448063e-07
4.47127392663e-07
5.03488680046e-07
5.15296475461e-07
4.80101757499e-07
4.05466521711e-07
3.07873704293e-07
2.08584117833e-07
1.26786644687e-07
7.04928298039e-08
3.2779232088e-08
1.15894766789e-08
3.80463239495e-09
1.26801496807e-09
4.09768654217e-10
1.21879350547e-10
3.15319679053e-11
6.52964208512e-12
9.07602299409e-13
1.89363307137e-07
2.70420246092e-07
3.36412645501e-07
3.75048890785e-07
3.78475198182e-07
3.46130733377e-07
2.85648032664e-07
2.11103239414e-07
1.3861667309e-07
8.11270992976e-08
4.28799990111e-08
1.86298901353e-08
6.33735146023e-09
2.0986854418e-09
7.05810554568e-10
2.27021309465e-10
6.63079692519e-11
1.65465379431e-11
3.19912115429e-12
3.80906391753e-13
1.83142925107e-07
2.60778721195e-07
3.22688726883e-07
3.56782536049e-07
3.55830973282e-07
3.20343915215e-07
2.59156771831e-07
1.86797472116e-07
1.18519062778e-07
6.50350781462e-08
2.99296261095e-08
1.09156694081e-08
3.40113887663e-09
1.10757363242e-09
3.69344112608e-10
1.16337434934e-10
3.27018335877e-11
7.66672341068e-12
1.34131246286e-12
1.34109062135e-13
2.30702854653e-07
3.27796918005e-07
4.04140192227e-07
4.44242031815e-07
4.39308921597e-07
3.90926158488e-07
3.11616866285e-07
2.20483919141e-07
1.36605493713e-07
7.21891110445e-08
3.06139039391e-08
9.16806561603e-09
2.12173132139e-09
5.80719598476e-10
1.83261295068e-10
5.62498749078e-11
1.5328159076e-11
3.46332086492e-12
5.79034548071e-13
5.73149940594e-14
1.91506365792e-05
3.88253563181e-06
1.22045852293e-05
2.70954026525e-06
7.1735830676e-06
1.71952455948e-06
3.99017572738e-06
1.00875935996e-06
2.13356246449e-06
5.54199771738e-07
1.11247359354e-06
2.9157729708e-07
5.69650954542e-07
1.48537576154e-07
2.88585910757e-07
7.44965032729e-08
1.45387767526e-07
3.71309678522e-08
7.31678214167e-08
1.85791265737e-08
3.6839627163e-08
9.31341600948e-09
1.85478426311e-08
4.67056165085e-09
9.31726233206e-09
2.34394898785e-09
4.65705669273e-09
1.17082168624e-09
2.30989839013e-09
5.81420982452e-10
1.13379229479e-09
2.86112976599e-10
5.49483922203e-10
1.39233289048e-10
2.63368386032e-10
6.71655091258e-11
1.24831206157e-10
3.21030247172e-11
5.85754532265e-11
1.52054738117e-11
2.72946264042e-11
7.16501046413e-12
1.26784927485e-11
3.36428821927e-12
5.91348975638e-12
1.58419935332e-12
2.80115018182e-12
7.55550287639e-13
1.35911987941e-12
3.6782097306e-13
6.74249473699e-13
1.81162135295e-13
3.35986100095e-13
8.80329104195e-14
1.61380792876e-13
4.00455480249e-14
6.9381943205e-14
1.56722618841e-14
2.41574295555e-14
4.83669331097e-15
6.55229544149e-15
1.22839794825e-15
2.37133927112e-15
5.03841780922e-16
)
;

boundaryField
{
    inletfuel
    {
        type            zeroGradient;
    }
    inletair
    {
        type            zeroGradient;
    }
    outlet
    {
        type            zeroGradient;
    }
    axis
    {
        type            empty;
    }
    leftside
    {
        type            zeroGradient;
    }
    burnerwall
    {
        type            zeroGradient;
    }
    front
    {
        type            wedge;
    }
    back
    {
        type            wedge;
    }
    procBoundary1to0
    {
        type            processor;
        value           nonuniform List<scalar> 
27
(
0.0131775880893
0.0399823322417
0.0683691422671
0.0853009568612
0.100251325463
0.0615232602278
0.0443392710071
0.0321383813663
0.0169570912634
0.00496206999966
0.000787018809532
0.347259824286
0.652808261862
1.17665623121
1.84092806341
1.52322441456
1.12651668138
0.795772606568
0.563736473606
0.405797425324
0.280056510804
0.177281914403
0.102961731819
0.0586906318605
0.0586906318605
2.86574494806e-05
5.3265217065e-06
)
;
    }
}


// ************************************************************************* //
