/*--------------------------------*- C++ -*----------------------------------*\
  =========                 |
  \\      /  F ield         | OpenFOAM: The Open Source CFD Toolbox
   \\    /   O peration     | Website:  https://openfoam.org
    \\  /    A nd           | Version:  7
     \\/     M anipulation  |
\*---------------------------------------------------------------------------*/
FoamFile
{
    version     2.0;
    format      ascii;
    class       volScalarField;
    location    "0.04";
    object      ed::R_H2;
}
// * * * * * * * * * * * * * * * * * * * * * * * * * * * * * * * * * * * * * //

dimensions      [1 -3 -1 0 0 0 0];

internalField   nonuniform List<scalar> 
815
(
-0.667560198213
-0.673807206038
-0.653978797846
-0.0605739482801
-0.0607967965982
-0.0597133197324
-0.019917397912
-0.0198151675032
-0.0195394929714
-0.00789471406403
-0.00784626267869
-0.00771881782796
-0.00253889673132
-0.00252379195518
-0.00248530702906
-0.000694222288388
-0.000691820791971
-0.000683741360065
-0.000177416477757
-0.000177017174513
-0.000175499741399
-4.43521284743e-05
-4.43422710506e-05
-4.41001449647e-05
-1.1273962415e-05
-1.1283007573e-05
-1.12567162478e-05
-3.01711262857e-06
-3.02544654642e-06
-3.02980085307e-06
-9.38873440927e-07
-9.42580342927e-07
-9.47856292693e-07
-4.18880869559e-07
-4.21033190174e-07
-4.24854890609e-07
-3.08928522708e-07
-3.10371843679e-07
-3.13066695646e-07
-3.14203173609e-07
-3.15156459703e-07
-3.17152015337e-07
-3.57359920239e-07
-3.5821736695e-07
-3.59780879403e-07
-4.18606198759e-07
-4.19113557471e-07
-4.20209521488e-07
-4.90472164027e-07
-4.9079131352e-07
-4.91364152313e-07
-5.68896635451e-07
-5.68875986285e-07
-5.68677164793e-07
-6.48027325098e-07
-6.47493522372e-07
-6.46199016666e-07
-7.19491197667e-07
-7.18249363512e-07
-7.15485599948e-07
-7.72488235205e-07
-7.70429911297e-07
-7.65936146978e-07
-7.96251969315e-07
-7.93211412355e-07
-7.86887126615e-07
-7.82272154685e-07
-7.78498395024e-07
-7.70674640851e-07
-7.29236471685e-07
-7.25040704227e-07
-7.16303851437e-07
-6.43451938481e-07
-6.39192669813e-07
-6.30356935211e-07
-5.37285738752e-07
-5.33338143392e-07
-5.25153911541e-07
-4.25041895253e-07
-4.21653762703e-07
-4.14657536831e-07
-3.19414773635e-07
-3.16733665691e-07
-3.11206180464e-07
-2.34262598148e-07
-2.32260564209e-07
-2.28144429917e-07
-2.17012117056e-07
-2.15508757246e-07
-2.12069444241e-07
-2.6325973668e-07
-2.61479004271e-07
-2.57285760351e-07
-0.618215310676
-0.0579633834615
-0.0191502834144
-0.00754414370511
-0.00243133712196
-0.000672102279447
-0.000173196563384
-4.37179129944e-05
-1.1206725534e-05
-3.03309485296e-06
-9.54738758479e-07
-4.30338346791e-07
-3.1708471477e-07
-3.20208083023e-07
-3.62230876942e-07
-4.2202666704e-07
-4.92469231173e-07
-5.68752173935e-07
-6.448089046e-07
-7.12154076448e-07
-7.60319181432e-07
-7.78882798197e-07
-7.60696460915e-07
-7.05138767996e-07
-6.19024031738e-07
-5.14630118106e-07
-4.05652459339e-07
-3.04076408032e-07
-2.22788209229e-07
-2.07243767171e-07
-2.51330531053e-07
-0.00354789246004
-0.00211359531794
-0.00142281458758
-0.000915938549362
-0.000432781265262
-0.000123093633562
-1.5075113849e-05
-0.53253052357
-0.401000982791
-0.279970765563
-0.190066426413
-0.129200345614
-0.088864994803
-0.0607997193544
-0.0402501164957
-0.0249255435445
-0.0142343896654
-0.00755215536529
-0.00402159023243
-0.00224120478064
-0.00138293137472
-0.00097245357747
-0.000719575866976
-0.00048077849277
-0.000238761945408
-7.39191418171e-05
-8.38621602495e-06
-0.0539278021067
-0.0476747584853
-0.0408643501186
-0.0339718721305
-0.0273013990664
-0.0209295609233
-0.0151527025162
-0.0102604948291
-0.00651307873797
-0.00393042828307
-0.00229535333611
-0.00135702339936
-0.00086323419988
-0.000619940897824
-0.000488628983117
-0.000380358666533
-0.000256606355012
-0.000131111106604
-3.90536269448e-05
-4.28476509416e-06
-0.0182870025655
-0.0166175571784
-0.0144170814725
-0.0118854163659
-0.00931281298734
-0.00693062158812
-0.00489536440897
-0.00328465023383
-0.00210312260906
-0.00130337759018
-0.000805450525061
-0.00052373048936
-0.000378716159365
-0.000306991342857
-0.000260013112955
-0.000206958611434
-0.000140066477541
-6.94072066659e-05
-1.83777602738e-05
-2.08160999058e-06
-0.00715642104835
-0.00639588571291
-0.00542538527154
-0.00436235949844
-0.00333287312263
-0.00242428843103
-0.00168128884911
-0.00111754217555
-0.000720860955863
-0.000462664749774
-0.000308510217485
-0.000225361957692
-0.000184928667823
-0.000163956351924
-0.000144176213959
-0.000114973347288
-7.65774846381e-05
-3.52166905859e-05
-8.24174291539e-06
-9.87722599427e-07
-0.00231186874833
-0.00207206257722
-0.00176068871007
-0.00141637074982
-0.00108164158845
-0.000787660147966
-0.000550136520246
-0.000372898039139
-0.000250748597473
-0.000173520122951
-0.00012972366576
-0.000108204253638
-9.88839556175e-05
-9.2764819229e-05
-8.26445294068e-05
-6.52480543857e-05
-4.1709418489e-05
-1.73143256447e-05
-3.72701792333e-06
-4.64340678303e-07
-0.00064502873588
-0.000587428012536
-0.000508630258541
-0.000417606309777
-0.00032599450003
-0.000243525176326
-0.000176001783196
-0.000125609040337
-9.15498497133e-05
-7.12288833454e-05
-6.12773751624e-05
-5.79047500241e-05
-5.71410973139e-05
-5.50796878071e-05
-4.88357288882e-05
-3.7623854966e-05
-2.25552101157e-05
-8.43220839874e-06
-1.7101812665e-06
-2.17105528217e-07
-0.000167723577851
-0.000155546173567
-0.000137962626807
-0.000116698353637
-9.44243498464e-05
-7.37863229673e-05
-5.67177548911e-05
-4.42517382252e-05
-3.65410059483e-05
-3.30552379957e-05
-3.27384207443e-05
-3.40423656858e-05
-3.50775366017e-05
-3.3986424475e-05
-2.96400908673e-05
-2.19997912102e-05
-1.21459164841e-05
-4.10278839573e-06
-7.91986994501e-07
-1.01318254612e-07
-4.27375663537e-05
-4.04129889122e-05
-3.68539120604e-05
-3.23457495868e-05
-2.74846336523e-05
-2.29608575298e-05
-1.94064366968e-05
-1.72686244206e-05
-1.672532406e-05
-1.76394517531e-05
-1.95161693182e-05
-2.14917473518e-05
-2.24851456509e-05
-2.15609801616e-05
-1.83276890312e-05
-1.29177073564e-05
-6.48637902217e-06
-1.98785436796e-06
-3.69218654249e-07
-4.73143970436e-08
-1.10651945965e-05
-1.06889799323e-05
-1.00664685964e-05
-9.2567783012e-06
-8.41156085497e-06
-7.74314694385e-06
-7.48928954908e-06
-7.8535912385e-06
-8.92893229147e-06
-1.06162194144e-05
-1.25625538074e-05
-1.41738224047e-05
-1.4770608783e-05
-1.38848173371e-05
-1.14208118369e-05
-7.55535732786e-06
-3.42715244895e-06
-9.58514866981e-07
-1.73118466871e-07
-2.21614452751e-08
-3.03108266044e-06
-3.00703021229e-06
-2.95404408902e-06
-2.89749752545e-06
-2.8963971225e-06
-3.0424946614e-06
-3.45105291992e-06
-4.22929854466e-06
-5.4161849969e-06
-6.91069789584e-06
-8.42731108338e-06
-9.52972594465e-06
-9.78045454335e-06
-8.95867333332e-06
-7.08455346491e-06
-4.35602833103e-06
-1.78222411468e-06
-4.6003539195e-07
-8.14855125556e-08
-1.04164232567e-08
-9.681916766e-07
-9.93945161271e-07
-1.0323296525e-06
-1.10136435345e-06
-1.2351070374e-06
-1.48665652599e-06
-1.92439955192e-06
-2.61105931206e-06
-3.55841859515e-06
-4.67284736386e-06
-5.72777343529e-06
-6.40671992109e-06
-6.43519801237e-06
-5.72368883716e-06
-4.33013596074e-06
-2.45767938759e-06
-9.08178057664e-07
-2.19510549195e-07
-3.83788778313e-08
-4.90599607232e-09
-4.41944774217e-07
-4.67048285317e-07
-5.08157304424e-07
-5.78840856947e-07
-7.01939753896e-07
-9.11666396514e-07
-1.25135364666e-06
-1.7584500906e-06
-2.43182311981e-06
-3.1928351727e-06
-3.87149901524e-06
-4.24964790234e-06
-4.16186485425e-06
-3.58492406237e-06
-2.58406652211e-06
-1.34851079907e-06
-4.5257678179e-07
-1.04030895066e-07
-1.80426968372e-08
-2.3097723804e-09
-3.2568334762e-07
-3.44395720941e-07
-3.75483969682e-07
-4.28777805613e-07
-5.19546191559e-07
-6.69591847873e-07
-9.05506628096e-07
-1.24830093419e-06
-1.69098602745e-06
-2.17335232394e-06
-2.57657395249e-06
-2.75890915628e-06
-2.62621233205e-06
-2.18517886678e-06
-1.4955893736e-06
-7.16207530894e-07
-2.20393430466e-07
-4.89074153608e-08
-8.44228563454e-09
-1.08428247848e-09
-3.26639909259e-07
-3.39924542433e-07
-3.61480183087e-07
-3.98118814208e-07
-4.59465741682e-07
-5.58264204556e-07
-7.09224244488e-07
-9.2251285491e-07
-1.18970266118e-06
-1.46873146723e-06
-1.68291465021e-06
-1.74640264854e-06
-1.6097131068e-06
-1.29042920968e-06
-8.36094128405e-07
-3.67073951454e-07
-1.04896766305e-07
-2.27508375536e-08
-3.91810474029e-09
-5.05611641972e-10
-3.67074521307e-07
-3.76051898813e-07
-3.89809757103e-07
-4.12869853286e-07
-4.50627901552e-07
-5.09215807549e-07
-5.95095214254e-07
-7.117944361e-07
-8.52189686733e-07
-9.90265441774e-07
-1.08134069314e-06
-1.07783833488e-06
-9.56706594975e-07
-7.3670654002e-07
-4.50412087484e-07
-1.8132778076e-07
-4.88138768833e-08
-1.04474146312e-08
-1.79884249096e-09
-2.33627745815e-10
-4.25387733829e-07
-4.30426306928e-07
-4.3724832879e-07
-4.4870607468e-07
-4.67123131415e-07
-4.94003086623e-07
-5.30508435025e-07
-5.76814635353e-07
-6.28758880178e-07
-6.73399324984e-07
-6.88539161613e-07
-6.50893217194e-07
-5.51946932212e-07
-4.06681778667e-07
-2.3352039645e-07
-8.6371882782e-08
-2.22405528025e-08
-4.72785323616e-09
-8.15461843911e-10
-1.06765275558e-10
-4.94069860493e-07
-4.94708283096e-07
-4.94314436024e-07
-4.94562036704e-07
-4.95678277634e-07
-4.96254403865e-07
-4.94634032523e-07
-4.90154836989e-07
-4.82321250975e-07
-4.67958022713e-07
-4.39335405763e-07
-3.8737512973e-07
-3.10385836722e-07
-2.17610613008e-07
-1.16497779091e-07
-3.97443396516e-08
-9.93477496176e-09
-2.10749773302e-09
-3.64781030183e-10
-4.82697614588e-11
-5.67964418033e-07
-5.63062893951e-07
-5.54183696559e-07
-5.42266274848e-07
-5.26367623619e-07
-5.0373874571e-07
-4.71965438199e-07
-4.31268500396e-07
-3.84676093569e-07
-3.3549176598e-07
-2.8432569391e-07
-2.29464134314e-07
-1.71357966733e-07
-1.13338705156e-07
-5.59801471832e-08
-1.77382835945e-08
-4.35996390957e-09
-9.26275347749e-10
-1.61221238815e-10
-2.1606574319e-11
-6.40761998955e-07
-6.2872890791e-07
-6.09520433394e-07
-5.83793120724e-07
-5.50372693587e-07
-5.06614044409e-07
-4.50917896782e-07
-3.85261172876e-07
-3.15395061152e-07
-2.48200657253e-07
-1.88242292494e-07
-1.3679415928e-07
-9.3810583461e-08
-5.77882849276e-08
-2.59910021691e-08
-7.72799023281e-09
-1.88636518959e-09
-4.02303758239e-10
-7.06289719443e-11
-9.59252943438e-12
-7.03928787599e-07
-6.8319655873e-07
-6.51955729061e-07
-6.11079114916e-07
-5.60082773285e-07
-4.97607845701e-07
-4.2381891154e-07
-3.4254095174e-07
-2.61069354977e-07
-1.87539013734e-07
-1.27581984423e-07
-8.27931316998e-08
-5.15130313184e-08
-2.90370494854e-08
-1.17328932087e-08
-3.31581600699e-09
-8.09006410002e-10
-1.73504281428e-10
-3.07852166376e-11
-4.23526637123e-12
-7.4728243231e-07
-7.16962373185e-07
-6.73041719057e-07
-6.17101892414e-07
-5.50101528857e-07
-4.7268427778e-07
-3.87029156206e-07
-2.98303451963e-07
-2.14157925796e-07
-1.42351868406e-07
-8.78053428734e-08
-5.1046043718e-08
-2.86682186792e-08
-1.44660649232e-08
-5.20275409282e-09
-1.41704459862e-09
-3.46746087441e-10
-7.48630928577e-11
-1.34343160763e-11
-1.87013098537e-12
-7.61022744019e-07
-7.21577420028e-07
-6.6620132039e-07
-5.97540192538e-07
-5.18355801849e-07
-4.31412886953e-07
-3.40552246995e-07
-2.51547605707e-07
-1.71468433946e-07
-1.06705370735e-07
-6.05461029434e-08
-3.19770433867e-08
-1.62592409869e-08
-7.17482318488e-09
-2.30016481257e-09
-6.11646773038e-10
-1.50208705413e-10
-3.26594389478e-11
-5.91975911184e-12
-8.32266207752e-13
-7.38904724214e-07
-6.92496306934e-07
-6.2904090197e-07
-5.52310916581e-07
-4.66726749449e-07
-3.76748944373e-07
-2.87234533433e-07
-2.03872460871e-07
-1.32587815354e-07
-7.79372285669e-08
-4.12977572803e-08
-2.02289618441e-08
-9.36258470228e-09
-3.55123619949e-09
-1.03255199058e-09
-2.70948281142e-10
-6.67306571282e-11
-1.45977522164e-11
-2.66791913972e-12
-3.77580613193e-13
-6.81104815461e-07
-6.31325510302e-07
-5.64753341048e-07
-4.86013679685e-07
-4.00631703494e-07
-3.14049504266e-07
-2.31491321791e-07
-1.58095583743e-07
-9.83784011737e-08
-5.50001152246e-08
-2.76245821484e-08
-1.28295847799e-08
-5.389166834e-09
-1.76021071607e-09
-4.79211754182e-10
-1.25080782968e-10
-3.08510323826e-11
-6.77638677863e-12
-1.24490833327e-12
-1.76335913911e-13
-5.94882147037e-07
-5.45895395866e-07
-4.81549252734e-07
-4.06812002718e-07
-3.27620769181e-07
-2.49692522016e-07
-1.78091861212e-07
-1.17144955759e-07
-6.99148246089e-08
-3.74186316134e-08
-1.80833724566e-08
-8.07237164685e-09
-3.03653145734e-09
-8.81049241023e-10
-2.32982956511e-10
-6.08611220948e-11
-1.50197532377e-11
-3.30299717065e-12
-6.06596821962e-13
-8.49677560367e-14
-4.92362709345e-07
-4.47852022149e-07
-3.90170359879e-07
-3.24118017193e-07
-2.55415652789e-07
-1.89504895536e-07
-1.30931935732e-07
-8.30642838127e-08
-4.76879223356e-08
-2.46042960703e-08
-1.15868095399e-08
-4.95019171468e-09
-1.65969866829e-09
-4.50396941141e-10
-1.19067046001e-10
-3.12590777877e-11
-7.71444380849e-12
-1.69212571187e-12
-3.08026460966e-13
-4.18433008506e-14
-3.86673907076e-07
-3.49125794678e-07
-3.00905479413e-07
-2.46265063371e-07
-1.90257790298e-07
-1.37677292239e-07
-9.23232712802e-08
-5.66251732055e-08
-3.13792937714e-08
-1.56983025738e-08
-7.23159442265e-09
-2.90937835778e-09
-8.87784057847e-10
-2.36276866212e-10
-6.33907321081e-11
-1.675285579e-11
-4.12877852007e-12
-8.98218061322e-13
-1.60112273305e-13
-2.04627413583e-14
-2.89057390079e-07
-2.5948111987e-07
-2.21694154302e-07
-1.79157729844e-07
-1.36054677501e-07
-9.63014146802e-08
-6.28763232345e-08
-3.7408715568e-08
-2.00705803801e-08
-9.74426981509e-09
-4.35769924834e-09
-1.63919747143e-09
-4.70990637117e-10
-1.26128035395e-10
-3.44057985859e-11
-9.12830844376e-12
-2.23528275818e-12
-4.77298155064e-13
-8.1761256232e-14
-9.42126872775e-15
-2.11444388443e-07
-1.89028952151e-07
-1.60425211642e-07
-1.28353187228e-07
-9.61086032497e-08
-6.67734838036e-08
-4.26014559491e-08
-2.46691071624e-08
-1.28277481573e-08
-5.99647807155e-09
-2.54928565687e-09
-8.95948624129e-10
-2.4766830296e-10
-6.69023423072e-11
-1.84161692675e-11
-4.86345526692e-12
-1.16954357999e-12
-2.40880089806e-13
-3.85230400067e-14
-3.80185806797e-15
-1.96682228214e-07
-1.75320881318e-07
-1.47997250408e-07
-1.17432633631e-07
-8.69024361804e-08
-5.94348172272e-08
-3.71718403843e-08
-2.09935660855e-08
-1.05482204443e-08
-4.62311957739e-09
-1.71130388983e-09
-5.04887485064e-10
-1.27838856643e-10
-3.39582335252e-11
-9.26904467553e-12
-2.39721655894e-12
-5.54804344971e-13
-1.07351480232e-13
-1.5533940041e-14
-1.28710745751e-15
-2.38283920377e-07
-2.11949161747e-07
-1.78264727942e-07
-1.40626244236e-07
-1.03185283306e-07
-6.97552570795e-08
-4.29861752885e-08
-2.3831293238e-08
-1.16926957972e-08
-4.93533727194e-09
-1.68349214695e-09
-4.07863838052e-10
-7.67117742027e-11
-1.71273020929e-11
-4.42411837043e-12
-1.11495716068e-12
-2.50144476544e-13
-4.66438149567e-14
-6.44931161505e-15
-5.28972991147e-16
-2.60939288525e-06
-5.18385073233e-07
-1.59984596042e-06
-3.48097213653e-07
-9.04539972608e-07
-2.12525416932e-07
-4.83925861968e-07
-1.19933131724e-07
-2.48866612285e-07
-6.33778558401e-08
-1.24800143722e-07
-3.20720069609e-08
-6.14599784338e-08
-1.57143870834e-08
-2.99441150051e-08
-7.5801115565e-09
-1.45081311688e-08
-3.63366992172e-09
-7.02173556323e-09
-1.74861912655e-09
-3.39996216194e-09
-8.43007407935e-10
-1.64619011821e-09
-4.06570504874e-10
-7.95234888455e-10
-1.9622357469e-10
-3.8223608228e-10
-9.42588535335e-11
-1.82313334065e-10
-4.50134747046e-11
-8.60511598591e-11
-2.13011005982e-11
-4.01021887216e-11
-9.96810369407e-12
-1.84824151582e-11
-4.62394958662e-12
-8.42349886565e-12
-2.1252139163e-12
-3.80059832273e-12
-9.67920474343e-13
-1.70283949015e-12
-4.38564267444e-13
-7.60534545513e-13
-1.98007332078e-13
-3.41072091176e-13
-8.96532602246e-14
-1.55341780763e-13
-4.11137098236e-14
-7.24703442732e-14
-1.92454739709e-14
-3.45683193641e-14
-9.11453263354e-15
-1.65630564709e-14
-4.25890636145e-15
-7.64963426558e-15
-1.86298886799e-15
-3.16238469707e-15
-7.01150661944e-16
-1.05879578823e-15
-2.08098787008e-16
-2.76165921691e-16
-5.08281143765e-17
-9.61185461295e-17
-2.00485869629e-17
)
;

boundaryField
{
    inletfuel
    {
        type            calculated;
        value           nonuniform 0();
    }
    inletair
    {
        type            calculated;
        value           nonuniform 0();
    }
    outlet
    {
        type            calculated;
        value           uniform 0;
    }
    axis
    {
        type            empty;
    }
    leftside
    {
        type            calculated;
        value           uniform 0;
    }
    burnerwall
    {
        type            calculated;
        value           nonuniform 0();
    }
    front
    {
        type            wedge;
    }
    back
    {
        type            wedge;
    }
    procBoundary1to0
    {
        type            processor;
        value           uniform 0;
    }
}


// ************************************************************************* //
