/*--------------------------------*- C++ -*----------------------------------*\
  =========                 |
  \\      /  F ield         | OpenFOAM: The Open Source CFD Toolbox
   \\    /   O peration     | Website:  https://openfoam.org
    \\  /    A nd           | Version:  7
     \\/     M anipulation  |
\*---------------------------------------------------------------------------*/
FoamFile
{
    version     2.0;
    format      ascii;
    class       volScalarField;
    location    "0.04";
    object      ed::R_O2;
}
// * * * * * * * * * * * * * * * * * * * * * * * * * * * * * * * * * * * * * //

dimensions      [1 -3 -1 0 0 0 0];

internalField   nonuniform List<scalar> 
815
(
-5.29776546106
-5.34734178748
-5.18998331052
-0.480715554788
-0.48248408162
-0.473885596671
-0.158064700405
-0.157253398697
-0.155065642421
-0.0626525422057
-0.0622680314507
-0.0612566276399
-0.0201487138514
-0.0200288421731
-0.0197234253539
-0.00550935611734
-0.00549029781398
-0.00542617934884
-0.00140797922135
-0.00140481034618
-0.00139276797943
-0.000351979005016
-0.000351900776388
-0.000349979260967
-8.94702962392e-05
-8.95420787179e-05
-8.93334304563e-05
-2.39438407481e-05
-2.40099788166e-05
-2.40445346446e-05
-7.45091049611e-06
-7.48032851329e-06
-7.52219851171e-06
-3.32424343001e-06
-3.34132427133e-06
-3.37165333023e-06
-2.45166033253e-06
-2.46311454447e-06
-2.48450092088e-06
-2.49352002315e-06
-2.50108531263e-06
-2.51692206524e-06
-2.83601246401e-06
-2.84281717103e-06
-2.85522522396e-06
-3.32206363936e-06
-3.32609004398e-06
-3.33478762711e-06
-3.89239277169e-06
-3.89492554576e-06
-3.89947160106e-06
-4.5147702848e-06
-4.51460641278e-06
-4.51302856312e-06
-5.14275235389e-06
-5.13851608929e-06
-5.12824287701e-06
-5.70989047391e-06
-5.70003526367e-06
-5.67810200404e-06
-6.13047557733e-06
-6.11414069497e-06
-6.07847812931e-06
-6.31906484633e-06
-6.2949349511e-06
-6.24474534625e-06
-6.20812087559e-06
-6.17817227523e-06
-6.11608287155e-06
-5.78722908133e-06
-5.75393142222e-06
-5.68459565733e-06
-5.10644203273e-06
-5.07264042728e-06
-5.00251993519e-06
-4.26390584265e-06
-4.23257768017e-06
-4.16762752146e-06
-3.37313740124e-06
-3.3462491421e-06
-3.2907270126e-06
-2.53487934129e-06
-2.5136020376e-06
-2.46973585086e-06
-1.85911069086e-06
-1.84322252634e-06
-1.81055683694e-06
-1.72221067321e-06
-1.71027999235e-06
-1.68298556453e-06
-2.08923231793e-06
-2.07510040492e-06
-2.04182277262e-06
-4.90616386233
-0.459998082166
-0.151976870871
-0.0598704117788
-0.0192951195463
-0.00533381147032
-0.00137448993204
-0.000346945863626
-8.89367035731e-05
-2.40706758658e-05
-7.57681783986e-06
-3.41517010196e-06
-2.51638796716e-06
-2.54117505377e-06
-2.87466843279e-06
-3.34920851524e-06
-3.90824151968e-06
-4.51362383653e-06
-5.11721093157e-06
-5.65166299498e-06
-6.03390182572e-06
-6.18122290327e-06
-6.03689592006e-06
-5.59598942589e-06
-4.91258188203e-06
-4.08411057493e-06
-3.21926261337e-06
-2.4131538943e-06
-1.76804980756e-06
-1.64468893543e-06
-1.99456200398e-06
-0.0281561156352
-0.0167735169113
-0.0112914730383
-0.00726889893115
-0.00343455713123
-0.000976872500949
-0.000119636278023
-4.22616839992
-3.18234844164
-2.2218512366
-1.50836936033
-1.02533543848
-0.705233627507
-0.482507276647
-0.319425390467
-0.197809402121
-0.11296428117
-0.0599339924069
-0.0319153866407
-0.0177862270846
-0.0109749593993
-0.00771740284845
-0.00571056241052
-0.00381546368437
-0.0018948175628
-0.000586623165189
-6.65531074575e-05
-0.427971661816
-0.378347435248
-0.324299955609
-0.269601170505
-0.216664219047
-0.166097237779
-0.120252022585
-0.0814274057446
-0.0516878682635
-0.0311919243552
-0.0182159506476
-0.0107693534069
-0.00685063660352
-0.0049198581419
-0.00387776526665
-0.00301853078085
-0.00203643100399
-0.00104049925982
-0.00030993003554
-3.400394539e-05
-0.14512586406
-0.131877126141
-0.114414125466
-0.0943228018716
-0.0739065916777
-0.055001493156
-0.038849668621
-0.0260670222806
-0.0166904053724
-0.0103436196443
-0.00639206469122
-0.00415633122655
-0.00300549582495
-0.00243628685082
-0.00206346707446
-0.00164242593621
-0.00111156918725
-0.000550816395596
-0.000145846118284
-1.65196809831e-05
-0.0567934402864
-0.0507578230599
-0.0430559203222
-0.0346197354807
-0.0264497196843
-0.0192391810536
-0.01334272777
-0.00886882764245
-0.00572076089081
-0.00367171281027
-0.00244834065745
-0.00178847510516
-0.00146759604868
-0.00130115950692
-0.00114418410304
-0.000912429815073
-0.000607719804591
-0.000279480064178
-6.54065671875e-05
-7.83857798347e-06
-0.0183470171502
-0.0164439126001
-0.0139728459858
-0.0112403346673
-0.00858392016765
-0.00625088005264
-0.00436588979336
-0.00295932315548
-0.00198994377235
-0.0013770577045
-0.00102948851322
-0.000858710209506
-0.000784744216515
-0.000736182679298
-0.000655867942111
-0.000517809314952
-0.00033100642798
-0.000137406688757
-2.95776573855e-05
-3.68501299847e-06
-0.00511895551515
-0.00466183550788
-0.00403649561996
-0.00331412850883
-0.00258709612613
-0.00193261861851
-0.00139675218893
-0.000996834798234
-0.000726540667156
-0.000565273242814
-0.000486297958669
-0.000459532766529
-0.000453472409779
-0.00043711304007
-0.000387560909806
-0.000298583348564
-0.00017899840859
-6.69181034683e-05
-1.3572018329e-05
-1.72295198526e-06
-0.00133105625548
-0.00123441623412
-0.00109487300347
-0.000926119485427
-0.000749352733489
-0.000585569113259
-0.000450112759412
-0.000351182306838
-0.000289989846224
-0.000262326751399
-0.000259812486025
-0.000270160608176
-0.000278375736548
-0.000269716658079
-0.000235224104253
-0.000174590597725
-9.63901338256e-05
-3.25597762046e-05
-6.28521795683e-06
-8.0406284152e-07
-0.000339165821336
-0.00032071794785
-0.000292473072753
-0.000256696243173
-0.000218118370842
-0.000182217631164
-0.000154009706286
-0.000137044003313
-0.000132732365362
-0.000139986893316
-0.000154880545639
-0.000170558755784
-0.000178442376186
-0.000171108188164
-0.000145448752323
-0.000102515075123
-5.14759790098e-05
-1.57756352766e-05
-2.9301235144e-06
-3.75487602675e-07
-8.78135124144e-05
-8.48278684844e-05
-7.98876113163e-05
-7.34618997599e-05
-6.67542443219e-05
-6.14497037853e-05
-5.94350885616e-05
-6.23261909862e-05
-7.08601100313e-05
-8.42504401721e-05
-9.96965724464e-05
-0.000112483618687
-0.000117219722295
-0.000110190071126
-9.06356949511e-05
-5.99594032189e-05
-2.71979215095e-05
-7.60678508066e-06
-1.3738701572e-06
-1.75873486256e-07
-2.40547070827e-05
-2.38638265757e-05
-2.34433280881e-05
-2.2994573905e-05
-2.29858410944e-05
-2.41452728544e-05
-2.73875959237e-05
-3.35637622111e-05
-4.29829068361e-05
-5.48433785034e-05
-6.68792383168e-05
-7.56280154181e-05
-7.76178004799e-05
-7.10961352837e-05
-5.62230983122e-05
-3.45694912628e-05
-1.41437512061e-05
-3.65084619613e-06
-6.46669970962e-07
-8.26648555516e-08
-7.68358035382e-06
-7.8879603063e-06
-8.19258007308e-06
-8.74044025899e-06
-9.8018237471e-06
-1.17981234006e-05
-1.52720571219e-05
-2.07213969275e-05
-2.82396511653e-05
-3.7083770775e-05
-4.54556762903e-05
-5.08438034614e-05
-5.10698059235e-05
-4.54232608722e-05
-3.43640091124e-05
-1.95041720713e-05
-7.20731157919e-06
-1.74203825958e-06
-3.04575218764e-07
-3.89340416244e-08
-3.50727884438e-06
-3.70650059908e-06
-4.03274225062e-06
-4.59368774171e-06
-5.57060201296e-06
-7.23499507668e-06
-9.93075702625e-06
-1.39550802758e-05
-1.92989764309e-05
-2.53383768926e-05
-3.07242610036e-05
-3.37252549492e-05
-3.30286076633e-05
-2.844999886e-05
-2.0507181834e-05
-1.07017973125e-05
-3.59165457956e-06
-8.25590387566e-07
-1.43187050972e-07
-1.83303803501e-08
-2.584626817e-06
-2.7331284283e-06
-2.9798451302e-06
-3.40278562911e-06
-4.12312459076e-06
-5.31388865628e-06
-7.18611108321e-06
-9.90653066477e-06
-1.34196846896e-05
-1.72477492027e-05
-2.04477207148e-05
-2.18947350029e-05
-2.08416514697e-05
-1.73416047836e-05
-1.18690145827e-05
-5.68383125638e-06
-1.74904481557e-06
-3.88129814482e-07
-6.69980765282e-08
-8.60487830146e-09
-2.59221810124e-06
-2.6976451039e-06
-2.86871091767e-06
-3.1594755184e-06
-3.64632544501e-06
-4.43039119013e-06
-5.62841181463e-06
-7.32107269608e-06
-9.4414940918e-06
-1.16558699267e-05
-1.33556301464e-05
-1.38594716361e-05
-1.27747018505e-05
-1.02408611467e-05
-6.6352526821e-06
-2.91310312819e-06
-8.32461951741e-07
-1.80550910202e-07
-3.10941245771e-08
-4.01253984393e-09
-2.91310765055e-06
-2.98435222236e-06
-3.09353474502e-06
-3.27653993528e-06
-3.57618824343e-06
-4.04114254367e-06
-4.72268250947e-06
-5.64880888501e-06
-6.76298721933e-06
-7.85875800977e-06
-8.58153225893e-06
-8.55373750326e-06
-7.59243461308e-06
-5.84651163011e-06
-3.57447554049e-06
-1.43901936726e-06
-3.87387492042e-07
-8.29108034578e-08
-1.42756348326e-08
-1.85407249539e-09
-3.37588198019e-06
-3.41586815463e-06
-3.4700077991e-06
-3.56093660313e-06
-3.70709457858e-06
-3.92041421429e-06
-4.21012108182e-06
-4.57760762369e-06
-4.98983775195e-06
-5.34410483871e-06
-5.46425475747e-06
-5.16549610674e-06
-4.38025724367e-06
-3.22743130347e-06
-1.85322056959e-06
-6.85448261646e-07
-1.7650128451e-07
-3.75202980144e-08
-6.47151463351e-09
-8.47290462802e-10
-3.92094413249e-06
-3.92601066167e-06
-3.92288508674e-06
-3.9248500486e-06
-3.93370854955e-06
-3.93828069398e-06
-3.92542140825e-06
-3.88987446065e-06
-3.82770703135e-06
-3.71372028559e-06
-3.48657086612e-06
-3.074213514e-06
-2.46322559342e-06
-1.72696034401e-06
-9.24527723507e-07
-3.15411539577e-07
-7.88424891069e-08
-1.67251264068e-08
-2.89490647843e-09
-3.83069385734e-10
-4.50737219658e-06
-4.46847364472e-06
-4.39800823142e-06
-4.30343143476e-06
-4.17725955456e-06
-3.99767651751e-06
-3.74552318128e-06
-3.42255181175e-06
-3.05279393178e-06
-2.66246653866e-06
-2.25641199838e-06
-1.82103002632e-06
-1.35989880773e-06
-8.99457276193e-07
-4.44259096103e-07
-1.40771223954e-07
-3.46007240597e-08
-7.3509318828e-09
-1.27945361762e-09
-1.71470023925e-10
-5.08509464152e-06
-4.98959989168e-06
-4.83716121556e-06
-4.63298896437e-06
-4.36776406772e-06
-4.02049492127e-06
-3.57848964894e-06
-3.05743712794e-06
-2.50297885649e-06
-1.96972328927e-06
-1.49389301243e-06
-1.08560003165e-06
-7.44481876349e-07
-4.58608498174e-07
-2.062648941e-07
-6.1329419951e-08
-1.49702159822e-08
-3.19268728267e-09
-5.60512338989e-10
-7.61264246396e-11
-5.58638700745e-06
-5.42185579914e-06
-5.17392821322e-06
-4.84953093016e-06
-4.44482337262e-06
-3.94902162406e-06
-3.36343178834e-06
-2.71840895845e-06
-2.07184942338e-06
-1.48831178405e-06
-1.01249210534e-06
-6.57047251628e-07
-4.08808012886e-07
-2.30438360865e-07
-9.31123763308e-08
-2.63143542172e-08
-6.42028423528e-09
-1.37693198599e-09
-2.44311835622e-10
-3.36111229518e-11
-5.93044203376e-06
-5.68982169355e-06
-5.34126687394e-06
-4.89732776211e-06
-4.36561210128e-06
-3.75122790051e-06
-3.07146786411e-06
-2.3673396481e-06
-1.69955977833e-06
-1.12970607561e-06
-6.96824217526e-07
-4.05101993883e-07
-2.27511315317e-07
-1.14802858697e-07
-4.12891167105e-08
-1.12456823391e-08
-2.75178096406e-09
-5.94114371574e-10
-1.06614887905e-10
-1.48413811496e-11
-6.03948530655e-06
-5.72644675872e-06
-5.28698139093e-06
-4.74208588543e-06
-4.11367764425e-06
-3.42369766513e-06
-2.70262657457e-06
-1.99628471094e-06
-1.36077547681e-06
-8.46815057436e-07
-4.80494573874e-07
-2.537701865e-07
-1.29033524698e-07
-5.69394798549e-08
-1.82541345805e-08
-4.85403587159e-09
-1.19205802505e-09
-2.59185685573e-10
-4.69792768419e-11
-6.60487425949e-12
-5.86395644533e-06
-5.49565870854e-06
-4.99207588015e-06
-4.38314582784e-06
-3.70394888671e-06
-2.989883984e-06
-2.27949658251e-06
-1.61793420961e-06
-1.05221843756e-06
-6.18510748151e-07
-3.27739479862e-07
-1.60537275377e-07
-7.43015805837e-08
-2.81826515902e-08
-8.19434455062e-09
-2.15024869579e-09
-5.2957526748e-10
-1.15847930581e-10
-2.11726371781e-11
-2.99648411738e-12
-5.40525570034e-06
-5.01020655833e-06
-4.48188905245e-06
-3.85701018834e-06
-3.17941783686e-06
-2.49230050146e-06
-1.8371178096e-06
-1.25464838279e-06
-7.80732130597e-07
-4.36481551134e-07
-2.19229003727e-07
-1.01815733335e-07
-4.27684903825e-08
-1.39690526199e-08
-3.8030300288e-09
-9.92642541639e-10
-2.44834150137e-10
-5.37774839224e-11
-9.87960694456e-12
-1.39940385416e-12
-4.72099160556e-06
-4.33223218117e-06
-3.82158044437e-06
-3.22846476305e-06
-2.60000221694e-06
-1.9815627453e-06
-1.41333907227e-06
-9.29663725038e-07
-5.54844857469e-07
-2.96954693662e-07
-1.43509853158e-07
-6.40624348396e-08
-2.4097948798e-08
-6.99201697627e-09
-1.84895544001e-09
-4.82994569506e-10
-1.19196935571e-10
-2.62126237836e-11
-4.81395940139e-12
-6.7430509554e-13
-3.90739616122e-06
-3.55415883235e-06
-3.09639649283e-06
-2.57220433661e-06
-2.02698157737e-06
-1.50391304479e-06
-1.03907735771e-06
-6.59199117935e-07
-3.78451903717e-07
-1.95259978447e-07
-9.1953054644e-08
-3.92847787539e-08
-1.31713878452e-08
-3.57435533894e-09
-9.44917455448e-10
-2.48072403196e-10
-6.12219153708e-11
-1.34287292384e-11
-2.44450156011e-12
-3.32068919951e-13
-3.0686486029e-06
-2.77066634824e-06
-2.38798936807e-06
-1.95436239381e-06
-1.50988802633e-06
-1.09260858504e-06
-7.32678549664e-07
-4.49378030083e-07
-2.49026438634e-07
-1.24581910958e-07
-5.7390017055e-08
-2.30888603279e-08
-7.04546456055e-09
-1.87509594553e-09
-5.03069583856e-10
-1.3295085749e-10
-3.27660341322e-11
-7.12826893291e-12
-1.2706528545e-12
-1.62392552308e-13
-2.29396279395e-06
-2.05924517119e-06
-1.75936737499e-06
-1.42179781807e-06
-1.07973149569e-06
-7.6424914174e-07
-4.98987229079e-07
-2.96875999811e-07
-1.59280358245e-07
-7.73306380575e-08
-3.45827516819e-08
-1.30086901095e-08
-3.73778714861e-09
-1.00095354902e-09
-2.73044815878e-10
-7.2442361484e-11
-1.77392298458e-11
-3.78784368405e-12
-6.4885827597e-13
-7.47672976892e-14
-1.67802511448e-06
-1.50013595257e-06
-1.27313633676e-06
-1.01861237973e-06
-7.62718987996e-07
-5.29915140472e-07
-3.3808564759e-07
-1.95774320024e-07
-1.01801157877e-07
-4.75881193943e-08
-2.02311604849e-08
-7.11025865308e-09
-1.96549851944e-09
-5.30937763048e-10
-1.46150932503e-10
-3.85964373003e-11
-9.28151139011e-12
-1.91162718126e-12
-3.05719291457e-13
-3.01715896398e-14
-1.56087244001e-06
-1.39134854375e-06
-1.17450789253e-06
-9.31946739962e-07
-6.89658739557e-07
-4.71675397565e-07
-2.94996155611e-07
-1.66605183488e-07
-8.37107995582e-08
-3.66891304859e-08
-1.35809274806e-08
-4.00679292632e-09
-1.01453064625e-09
-2.69492934375e-10
-7.35592458486e-11
-1.90243383632e-11
-4.4029337044e-12
-8.51942589884e-13
-1.23277527995e-13
-1.02144996831e-14
-1.89102395062e-06
-1.68203100126e-06
-1.41471094464e-06
-1.11601150223e-06
-8.18879602848e-07
-5.53578527708e-07
-3.41138784721e-07
-1.89125419021e-07
-9.27933692074e-08
-3.91668937243e-08
-1.33602131672e-08
-3.23681214044e-09
-6.0878552813e-10
-1.35922467684e-10
-3.51098546037e-11
-8.84831293452e-12
-1.98514946166e-12
-3.70165855471e-13
-5.11818116378e-14
-4.19793578142e-15
-2.07081721451e-05
-4.11390994228e-06
-1.26963960626e-05
-2.76250351732e-06
-7.17843969407e-06
-1.68660416908e-06
-3.84044124277e-06
-9.5179072177e-07
-1.97500831611e-06
-5.02967397644e-07
-9.90415385331e-07
-2.54523818524e-07
-4.87747100345e-07
-1.24709557812e-07
-2.3763684333e-07
-6.01558530639e-08
-1.1513669691e-07
-2.88368465641e-08
-5.57245747172e-08
-1.38770616313e-08
-2.6982139077e-08
-6.69011654849e-09
-1.30641838353e-08
-3.22654823336e-09
-6.31099328085e-09
-1.55723256033e-09
-3.03342997395e-09
-7.48039352834e-10
-1.4468407297e-09
-3.57227456357e-10
-6.82903000817e-10
-1.69045780941e-10
-3.18251433939e-10
-7.91069863124e-11
-1.46676660658e-10
-3.66957174488e-11
-6.68489845128e-11
-1.68657222424e-11
-3.0161592287e-11
-7.68142808956e-12
-1.35137539069e-11
-3.4804511035e-12
-6.03561095756e-12
-1.57138847962e-12
-2.70675206401e-12
-7.11489311018e-13
-1.23279417046e-12
-3.26278877115e-13
-5.75125491108e-13
-1.52732304229e-13
-2.74334582656e-13
-7.23330364946e-14
-1.31444607896e-13
-3.37987301879e-14
-6.0707586088e-14
-1.47847012233e-14
-2.50967215654e-14
-5.56433977009e-15
-8.40261563261e-15
-1.65147438276e-15
-2.19165595159e-15
-4.03372504106e-16
-7.62797894805e-16
-1.59105818231e-16
)
;

boundaryField
{
    inletfuel
    {
        type            calculated;
        value           nonuniform 0();
    }
    inletair
    {
        type            calculated;
        value           nonuniform 0();
    }
    outlet
    {
        type            calculated;
        value           uniform 0;
    }
    axis
    {
        type            empty;
    }
    leftside
    {
        type            calculated;
        value           uniform 0;
    }
    burnerwall
    {
        type            calculated;
        value           nonuniform 0();
    }
    front
    {
        type            wedge;
    }
    back
    {
        type            wedge;
    }
    procBoundary1to0
    {
        type            processor;
        value           uniform 0;
    }
}


// ************************************************************************* //
