/*--------------------------------*- C++ -*----------------------------------*\
  =========                 |
  \\      /  F ield         | OpenFOAM: The Open Source CFD Toolbox
   \\    /   O peration     | Website:  https://openfoam.org
    \\  /    A nd           | Version:  7
     \\/     M anipulation  |
\*---------------------------------------------------------------------------*/
FoamFile
{
    version     2.0;
    format      ascii;
    class       volScalarField;
    location    "0.04";
    object      ed::R_H2O;
}
// * * * * * * * * * * * * * * * * * * * * * * * * * * * * * * * * * * * * * //

dimensions      [1 -3 -1 0 0 0 0];

internalField   nonuniform List<scalar> 
815
(
5.96532565928
6.02114899352
5.84396210836
0.541289503068
0.543280878218
0.533598916403
0.177982098317
0.1770685662
0.174605135392
0.0705472562697
0.0701142941294
0.0689754454679
0.0226876105828
0.0225526341283
0.022208732383
0.00620357840573
0.00618211860595
0.0061099207089
0.00158539569911
0.00158182752069
0.00156826772083
0.000396331133491
0.000396243047438
0.000394079405932
0.000100744258654
0.000100825086291
0.000100590146704
2.69609533766e-05
2.7035425363e-05
2.70743354977e-05
8.38978393704e-06
8.42290885622e-06
8.47005480441e-06
3.74312429957e-06
3.7623574615e-06
3.79650822084e-06
2.76058885524e-06
2.77348638815e-06
2.79756761652e-06
2.80772319676e-06
2.81624177233e-06
2.83407408058e-06
3.19337238425e-06
3.20103453798e-06
3.21500610337e-06
3.74066983812e-06
3.74520360145e-06
3.7549971486e-06
4.38286493572e-06
4.38571685928e-06
4.39083575337e-06
5.08366692025e-06
5.08348239906e-06
5.08170572791e-06
5.79077967899e-06
5.78600961166e-06
5.77444189368e-06
6.42938167157e-06
6.41828462719e-06
6.39358760399e-06
6.90296381254e-06
6.88457060627e-06
6.84441427629e-06
7.11531681564e-06
7.08814636346e-06
7.03163247287e-06
6.99039303028e-06
6.95667067025e-06
6.8867575124e-06
6.51646555302e-06
6.47897212644e-06
6.40089950877e-06
5.74989397122e-06
5.71183309709e-06
5.6328768704e-06
4.8011915814e-06
4.76591582356e-06
4.692781433e-06
3.7981792965e-06
3.7679029048e-06
3.70538454943e-06
2.85429411492e-06
2.8303357033e-06
2.78094203132e-06
2.09337328901e-06
2.07548309055e-06
2.03870126686e-06
1.93922279027e-06
1.9257887496e-06
1.89505500877e-06
2.35249205461e-06
2.33657940919e-06
2.29910853298e-06
5.524379173
0.517961465628
0.171127154285
0.067414555484
0.0217264566683
0.00600591374976
0.00154768649542
0.00039066377662
0.000100143429107
2.71037707188e-05
8.53155659834e-06
3.84550844875e-06
2.83347268193e-06
2.86138313679e-06
3.23689930974e-06
3.77123518228e-06
4.40071075085e-06
5.08237601047e-06
5.76201983616e-06
6.36381707142e-06
6.79422100715e-06
6.96010570146e-06
6.79759238098e-06
6.30112819388e-06
5.53160591377e-06
4.59874069304e-06
3.62491507271e-06
2.71723030233e-06
1.99083801679e-06
1.85193270261e-06
2.24589253503e-06
0.0317040080952
0.0188871122292
0.0127142876259
0.00818483748051
0.00386733839649
0.00109996613451
0.000134711391873
4.75869892349
3.58334942443
2.50182200217
1.69843578674
1.1545357841
0.79409862231
0.543306996002
0.359675506963
0.222734945666
0.127198670835
0.0674861477722
0.0359369768731
0.0200274318652
0.0123578907741
0.00868985642592
0.0064301382775
0.00429624217714
0.0021335795082
0.000660542307006
7.49393234824e-05
0.481899463923
0.426022193733
0.365164305728
0.303573042635
0.243965618114
0.187026798702
0.135404725101
0.0916879005737
0.0582009470014
0.0351223526383
0.0205113039837
0.0121263768063
0.0077138708034
0.00553979903973
0.00436639424977
0.00339888944738
0.00229303735901
0.00117161036642
0.000348983662485
3.82887104842e-05
0.163412866625
0.14849468332
0.128831206939
0.106208218237
0.0832194046651
0.0619321147441
0.04374503303
0.0293516725144
0.0187935279814
0.0116469972344
0.00719751521628
0.00468006171591
0.00338421198431
0.00274327819367
0.00232348018742
0.00184938454764
0.00125163566479
0.000620223602262
0.000164223878558
1.86012909737e-05
0.0639498613347
0.0571537087728
0.0484813055937
0.0389820949791
0.0297825928069
0.0216634694846
0.0150240166192
0.009986369818
0.00644162184667
0.00413437756004
0.00275685087493
0.00201383706285
0.0016525247165
0.00146511585884
0.001288360317
0.00102740316236
0.000684297289229
0.000314696754764
7.36483101029e-05
8.8263005829e-06
0.0206588858985
0.0185159751773
0.0157335346959
0.0126567054171
0.0096655617561
0.00703854020061
0.0049160263136
0.00333222119462
0.00224069236982
0.00155057782745
0.00115921217898
0.000966914463145
0.000883628172133
0.000828947498527
0.000738512471517
0.000583057369338
0.000372715846469
0.000154721014401
3.33046753088e-05
4.14935367677e-06
0.00576398425103
0.00524926352041
0.0045451258785
0.0037317348186
0.00291309062615
0.00217614379483
0.00157275397213
0.00112244383857
0.000818090516869
0.000636502126159
0.000547575333831
0.000517437516553
0.000510613507093
0.000492192727877
0.000436396638694
0.00033620720353
0.000201553618705
7.5350311867e-05
1.52821995955e-05
1.94005751348e-06
0.00149877983333
0.00138996240768
0.00123283563028
0.00104281783906
0.000843777083335
0.000659355436226
0.000506830514303
0.000395434045063
0.000326530852172
0.000295381989395
0.000292550906769
0.000304202973862
0.000313453273149
0.000303703082554
0.00026486419512
0.000196590388936
0.00010853605031
3.66625646003e-05
7.07720495133e-06
9.05381096133e-07
0.00038190338769
0.000361130936762
0.000329326984813
0.00028904199276
0.000245603004494
0.000205178488694
0.000173416142982
0.000154312627733
0.000149457689422
0.000157626345069
0.000174396714958
0.000192050503136
0.000200927521837
0.000192669168326
0.000163776441354
0.000115432782479
5.7962358032e-05
1.77634896446e-05
3.29934216865e-06
4.22801999719e-07
9.88787070109e-05
9.55168484167e-05
8.99540799127e-05
8.27186780611e-05
7.51658051769e-05
6.91928507291e-05
6.69243781107e-05
7.01797822247e-05
7.97890423228e-05
9.48666595865e-05
0.000112259126254
0.000126657441092
0.000131990331078
0.000124074888463
0.000102056506788
6.75147605467e-05
3.06250739584e-05
8.56529994764e-06
1.54698862407e-06
1.98034931531e-07
2.70857897431e-05
2.6870856788e-05
2.63973721771e-05
2.58920714305e-05
2.58822382169e-05
2.71877675158e-05
3.08386488436e-05
3.77930607558e-05
4.8399091833e-05
6.17540763993e-05
7.53065494002e-05
8.51577413627e-05
8.73982550232e-05
8.00548086171e-05
6.33076517771e-05
3.89255195939e-05
1.59259753208e-05
4.11088158808e-06
7.28155483518e-07
9.30812788084e-08
8.65177203042e-06
8.88190546757e-06
9.22490972558e-06
9.84180461244e-06
1.10369307845e-05
1.32847799266e-05
1.71964566739e-05
2.33324562396e-05
3.17980697605e-05
4.17566181389e-05
5.11834497256e-05
5.72505233825e-05
5.75050039359e-05
5.11469497094e-05
3.86941450732e-05
2.19618514589e-05
8.11548963685e-06
1.96154880878e-06
3.42954096596e-07
4.38400376967e-08
3.94922361859e-06
4.1735488844e-06
4.54089955504e-06
5.17252859866e-06
6.27254176686e-06
8.1466614732e-06
1.11821106729e-05
1.57135303663e-05
2.17307995508e-05
2.85312120653e-05
3.45957600188e-05
3.79749028515e-05
3.71904725176e-05
3.20349229224e-05
2.30912483561e-05
1.20503081116e-05
4.04423136136e-06
9.29621282632e-07
1.61229747809e-07
2.06401527305e-08
2.91031016462e-06
3.07752414925e-06
3.35532909988e-06
3.83156343472e-06
4.64267078232e-06
5.98348050415e-06
8.0916177113e-06
1.1154831599e-05
1.5110670717e-05
1.94211015267e-05
2.30242946673e-05
2.46536441592e-05
2.34678638017e-05
1.95267836503e-05
1.33646039563e-05
6.40003878728e-06
1.96943824604e-06
4.37037229843e-07
7.54403621628e-08
9.68916077994e-09
2.9188580105e-06
3.03756964634e-06
3.23019110075e-06
3.55759433261e-06
4.10579118669e-06
4.98865539469e-06
6.33763605911e-06
8.24358555099e-06
1.0631196753e-05
1.3124601394e-05
1.50385447966e-05
1.56058742847e-05
1.43844149573e-05
1.15312903564e-05
7.47134681051e-06
3.28017707964e-06
9.37358718046e-07
2.03301747755e-07
3.50122293174e-08
4.5181514859e-09
3.28018217186e-06
3.36040412118e-06
3.48334450212e-06
3.68940978857e-06
4.02681614499e-06
4.55035835122e-06
5.31777772372e-06
6.36060332111e-06
7.61517690606e-06
8.84902345154e-06
9.66287295207e-06
9.63157583814e-06
8.54914120806e-06
6.58321817013e-06
4.02488762797e-06
1.62034714802e-06
4.36201368925e-07
9.3358218089e-08
1.60744773236e-08
2.0877002412e-09
3.80126971402e-06
3.84629446156e-06
3.90725612789e-06
4.00964267781e-06
4.17421771e-06
4.41441730091e-06
4.74062951684e-06
5.15442225904e-06
5.61859663212e-06
6.01750416369e-06
6.15279391908e-06
5.81638932394e-06
4.93220417589e-06
3.63411308214e-06
2.08674096604e-06
7.71820144428e-07
1.98741837312e-07
4.22481512505e-08
7.28697647742e-09
9.5405573836e-10
4.41501399299e-06
4.42071894476e-06
4.41719952276e-06
4.4194120853e-06
4.42938682718e-06
4.43453509785e-06
4.42005544078e-06
4.38002929764e-06
4.31002828233e-06
4.1816783083e-06
3.92590627189e-06
3.46158864373e-06
2.77361143014e-06
1.94457095701e-06
1.0410255026e-06
3.55155879229e-07
8.87772640687e-08
1.88326241398e-08
3.25968750862e-09
4.31339147193e-10
5.07533661461e-06
5.03153653867e-06
4.95219192798e-06
4.84569770961e-06
4.70362717818e-06
4.50141526322e-06
4.21748861948e-06
3.85382031214e-06
3.43747002535e-06
2.99795830464e-06
2.54073769229e-06
2.05049416063e-06
1.53125677446e-06
1.01279598135e-06
5.00239243286e-07
1.58509507548e-07
3.89606879692e-08
8.27720723055e-09
1.44067485643e-09
1.93076598244e-10
5.72585664047e-06
5.61832879959e-06
5.44668164895e-06
5.2167820851e-06
4.91813676131e-06
4.52710896568e-06
4.02940754572e-06
3.44269830081e-06
2.81837391764e-06
2.21792394652e-06
1.68213530492e-06
1.22239419093e-06
8.3829245981e-07
5.16396783102e-07
2.32255896269e-07
6.90574101838e-08
1.68565811718e-08
3.59499104091e-09
6.31141310934e-10
8.57189540739e-11
6.29031579505e-06
6.10505235787e-06
5.82588394228e-06
5.46061004508e-06
5.0049061459e-06
4.44662946976e-06
3.78725069988e-06
3.06094991019e-06
2.33291877836e-06
1.67585079778e-06
1.14007408976e-06
7.39840383328e-07
4.60321044204e-07
2.5947541035e-07
1.0484526954e-07
2.96301702242e-08
7.22929064528e-09
1.55043626742e-09
2.7509705226e-10
3.7846389323e-11
6.67772446607e-06
6.40678406673e-06
6.01430859299e-06
5.51442965452e-06
4.91571363014e-06
4.22391217829e-06
3.45849702032e-06
2.66564310007e-06
1.91371770412e-06
1.27205794402e-06
7.84629560399e-07
4.56148037601e-07
2.56179533996e-07
1.29268923621e-07
4.64918708033e-08
1.26627269377e-08
3.0985270515e-09
6.68977464432e-10
1.20049203981e-10
1.67115121349e-11
6.80050805057e-06
6.44802417875e-06
5.95318271132e-06
5.33962607797e-06
4.6320334461e-06
3.85511055208e-06
3.04317882157e-06
2.24783231665e-06
1.53224391076e-06
9.53520428172e-07
5.41040676817e-07
2.85747229887e-07
1.45292765684e-07
6.41143030398e-08
2.05542993931e-08
5.46568264463e-09
1.34226673047e-09
2.91845124521e-10
5.28990359537e-11
7.43714046724e-12
6.60286116954e-06
6.18815501548e-06
5.62111678212e-06
4.93545674442e-06
4.17067563616e-06
3.36663292837e-06
2.56673111594e-06
1.82180667048e-06
1.18480625292e-06
6.96447976718e-07
3.69037237142e-07
1.80766237221e-07
8.3664165286e-08
3.17338877897e-08
9.22689654119e-09
2.42119697693e-09
5.96305924608e-10
1.30445682797e-10
2.38405563178e-11
3.37406473057e-12
6.0863605158e-06
5.64153206863e-06
5.0466423935e-06
4.34302386802e-06
3.58004954035e-06
2.80635000573e-06
2.06860913139e-06
1.41274396653e-06
8.7911053177e-07
4.91481666358e-07
2.46853585876e-07
1.14645318115e-07
4.81576572165e-08
1.5729263336e-08
4.28224178298e-09
1.11772332461e-09
2.75685182519e-10
6.0553870701e-11
1.11245152778e-11
1.57573976807e-12
5.3158737526e-06
4.87812757704e-06
4.30312969711e-06
3.63527676576e-06
2.92762298612e-06
2.23125526731e-06
1.59143093348e-06
1.0468086808e-06
6.24759682078e-07
3.34373325276e-07
1.61593225615e-07
7.21348064864e-08
2.71344802554e-08
7.87306621729e-09
2.08193839652e-09
5.43855691601e-10
1.34216688809e-10
2.95156209542e-11
5.42055622335e-12
7.59272851577e-13
4.39975887057e-06
4.0020108545e-06
3.48656685271e-06
2.89632235381e-06
2.28239723016e-06
1.69341794032e-06
1.17000929344e-06
7.42263401748e-07
4.26139826052e-07
2.19864274517e-07
1.03539864184e-07
4.42349704685e-08
1.48310865135e-08
4.02475228008e-09
1.06398450145e-09
2.79331480983e-10
6.89363591792e-11
1.51208549503e-11
2.75252802107e-12
3.73912220801e-13
3.45532250998e-06
3.11979214291e-06
2.68889484748e-06
2.20062745718e-06
1.70014581663e-06
1.23028587728e-06
8.25001820944e-07
5.06003203289e-07
2.80405732405e-07
1.40280213532e-07
6.46216114777e-08
2.59982386857e-08
7.9332486184e-09
2.11137281174e-09
5.66460315964e-10
1.4970371328e-10
3.68948126523e-11
8.02648699423e-12
1.4307651278e-12
1.82855293666e-13
2.58302018403e-06
2.31872629106e-06
1.98106152929e-06
1.60095554791e-06
1.21578617319e-06
8.6055055642e-07
5.61863552314e-07
3.34284715379e-07
1.79350938625e-07
8.70749078726e-08
3.89404509302e-08
1.46478875809e-08
4.20877778572e-09
1.12708158442e-09
3.07450614464e-10
8.15706699277e-11
1.9974512604e-11
4.26514183911e-12
7.30619532202e-13
8.41885664169e-14
1.88946950292e-06
1.68916490472e-06
1.4335615484e-06
1.14696556696e-06
8.58827591245e-07
5.96688624275e-07
3.80687103539e-07
2.20443427187e-07
1.14628906035e-07
5.35845974658e-08
2.27804461417e-08
8.00620727721e-09
2.2131668224e-09
5.97840105355e-10
1.6456710177e-10
4.34598925672e-11
1.04510549701e-11
2.15250727106e-12
3.44242331464e-13
3.39734477077e-14
1.75755466822e-06
1.56666942507e-06
1.32250514294e-06
1.04937937359e-06
7.76561175738e-07
5.31110214792e-07
3.32167995995e-07
1.87598749573e-07
9.42590200025e-08
4.13122500633e-08
1.52922313705e-08
4.51168041138e-09
1.14236950289e-09
3.034511679e-10
8.28282905241e-11
2.14215549222e-11
4.95773804937e-12
9.59294070116e-13
1.38811468036e-13
1.15016071406e-14
2.12930787099e-06
1.89398016301e-06
1.59297567258e-06
1.25663774646e-06
9.22064886154e-07
6.23333784788e-07
3.84124960009e-07
2.12956712259e-07
1.04486065005e-07
4.41022309963e-08
1.50437053141e-08
3.64467597849e-09
6.85497302333e-10
1.53049769777e-10
3.95339729741e-11
9.96327009521e-12
2.23529393821e-12
4.16809670427e-13
5.76311232528e-14
4.72690877257e-15
2.33175650303e-05
4.63229501552e-06
1.4296242023e-05
3.11060073097e-06
8.08297966668e-06
1.89912958601e-06
4.32436710474e-06
1.07172385349e-06
2.22387492839e-06
5.66345253484e-07
1.11521552905e-06
2.86595825485e-07
5.49207078779e-07
1.40423944895e-07
2.67580958335e-07
6.77359646204e-08
1.29644828078e-07
3.24705164858e-08
6.27463102805e-08
1.56256807578e-08
3.03821012389e-08
7.53312395642e-09
1.47103739535e-08
3.63311873823e-09
7.1062281693e-09
1.75345613502e-09
3.41566605623e-09
8.42298206367e-10
1.62915406376e-09
4.02240931061e-10
7.68954160676e-10
1.90346881539e-10
3.58353622661e-10
8.90750900064e-11
1.65159075816e-10
4.13196670354e-11
7.52724833785e-11
1.89909361587e-11
3.39621906097e-11
8.64934856391e-12
1.5216593397e-11
3.91901537094e-12
6.79614550307e-12
1.76939581169e-12
3.04782415519e-12
8.01142571242e-13
1.38813595122e-12
3.67392586938e-13
6.47595835381e-13
1.719777782e-13
3.0890290202e-13
8.14475691282e-14
1.48007664367e-13
3.80576365493e-14
6.83572203535e-14
1.66476900913e-14
2.82591062625e-14
6.26549043203e-15
9.46141142085e-15
1.85957316977e-15
2.46782187328e-15
4.54200618483e-16
8.58916440934e-16
1.79154405194e-16
)
;

boundaryField
{
    inletfuel
    {
        type            calculated;
        value           nonuniform 0();
    }
    inletair
    {
        type            calculated;
        value           nonuniform 0();
    }
    outlet
    {
        type            calculated;
        value           uniform 0;
    }
    axis
    {
        type            empty;
    }
    leftside
    {
        type            calculated;
        value           uniform 0;
    }
    burnerwall
    {
        type            calculated;
        value           nonuniform 0();
    }
    front
    {
        type            wedge;
    }
    back
    {
        type            wedge;
    }
    procBoundary1to0
    {
        type            processor;
        value           uniform 0;
    }
}


// ************************************************************************* //
