/*--------------------------------*- C++ -*----------------------------------*\
  =========                 |
  \\      /  F ield         | OpenFOAM: The Open Source CFD Toolbox
   \\    /   O peration     | Website:  https://openfoam.org
    \\  /    A nd           | Version:  7
     \\/     M anipulation  |
\*---------------------------------------------------------------------------*/
FoamFile
{
    version     2.0;
    format      ascii;
    class       volScalarField;
    location    "0.04";
    object      epsilon;
}
// * * * * * * * * * * * * * * * * * * * * * * * * * * * * * * * * * * * * * //

dimensions      [0 2 -3 0 0 0 0];

internalField   nonuniform List<scalar> 
815
(
250.582001963
252.981700673
247.727181
46.4459185752
46.7452519765
46.7516188127
29.6563998115
29.8413129377
30.157497792
24.3032537845
24.4628360266
24.7352290559
21.1098089084
21.249722923
21.4885639727
19.4001453869
19.5317795428
19.7632571981
18.3166184832
18.4410750293
18.6621388755
17.2765727715
17.3991061735
17.6209721059
16.2446293012
16.3643443733
16.5828390087
15.181349164
15.2989596421
15.5178320765
14.1361517245
14.2495236122
14.461859911
13.0860858027
13.1940102355
13.3985847699
12.0432762738
12.1445039088
12.3377503665
11.0086169133
11.1005513404
11.2767951763
9.97629507685
10.0588773604
10.2183773955
8.97083356335
9.04148727241
9.17860926175
7.9914666913
8.05076203951
8.16647508351
7.06424503594
7.11125139019
7.20380233497
6.20241906637
6.2374281701
6.30727206076
5.4217202884
5.4456347871
5.49434986239
4.73512636421
4.74944861792
4.77992245442
4.15170111597
4.15816623642
4.17364172071
3.67312001706
3.67390178763
3.67849216092
3.29761688762
3.2945281617
3.29167979802
3.01581015478
3.01031422523
3.0028724999
2.81292807499
2.80613355901
2.79616702491
2.66963983418
2.66219679483
2.65095608453
2.57113667178
2.56339943398
2.55164069557
2.58887725318
2.58091482577
2.56915201649
3.91030416453
3.90627678844
3.90030954982
18.1187738939
18.1413106886
18.1634912795
238.485138461
46.6279174984
30.540202904
25.0843916866
21.8222115336
20.0964273038
18.9879867851
17.9470103669
16.9052694917
15.8371848874
14.7704947244
13.6941759791
12.6141549051
11.5294158582
10.4445692824
9.3739019549
8.33051512919
7.33532267274
6.40759113207
5.56625603591
4.82757211434
4.20187945483
3.69254630738
3.29604110741
3.00125241281
2.79126031841
2.64446224799
2.5445019399
2.56190908862
3.89555002879
18.1686602635
26.3949072006
31.5305094953
35.4241989465
27.3712392177
13.0463025592
12.1955775532
43.7916496756
214.10501658
174.607877195
135.096494487
102.790107414
79.2548376543
62.5287938759
50.0121640288
39.9543784567
31.4756607226
25.0184056876
21.2930341577
20.2454530965
21.0557510626
23.2006388601
25.6460505778
25.2404563541
18.7835536711
12.381532452
18.6398392908
62.9287981416
46.085876359
44.7752020097
42.400586732
38.956666746
34.8209163797
30.2688696564
25.7440313683
21.8436188048
19.0759591381
17.5118192865
16.9975986513
17.309098866
18.2072612516
19.3348410208
19.7775308512
18.397277742
14.9147765708
14.4565356989
27.8901225433
82.1294818482
31.1774831341
31.5053095609
30.5875779454
28.3557031363
25.3503145368
22.2526814178
19.5299509474
17.4114022203
15.9656885752
15.15365767
14.8855061404
15.031770689
15.3659057505
15.6171213283
15.3259346722
14.4010305356
13.8174813766
18.0719136031
38.1139700727
95.6013929485
25.6858648311
26.1257431074
25.6466146162
24.1677389033
22.0109703198
19.63427337
17.4191762353
15.6150921828
14.3144960637
13.4944604553
13.0635646343
12.8848173945
12.7949594398
12.6040412976
12.2603086311
12.1970152628
14.0244257952
22.3050843017
47.7882121432
103.204247366
22.4376452185
23.0650834579
22.9686165247
21.9584826405
20.2042354753
18.0988281446
16.0406895141
14.2975357555
12.9676152527
12.0277921754
11.3921366601
10.942070804
10.5670013956
10.2284105636
10.1446715117
11.0145208427
14.8011645077
26.4216085654
55.6448476398
105.899991446
20.7298881784
21.4492300344
21.5201943532
20.7039509364
19.1056793997
17.0800260672
15.0256265575
13.2244094283
11.7878212642
10.6989634872
9.87984979668
9.23833320005
8.72379749814
8.39934363939
8.63388438774
10.3494493513
15.8574315129
30.6009370895
62.8890026113
106.187874255
19.6182892663
20.3639345354
20.4903842737
19.7383283493
18.1871223163
16.1696849401
14.0810622154
12.210071863
10.6767772025
9.47236300456
8.52993424428
7.78296696048
7.22242470398
6.98561402962
7.52534309578
9.96008271755
17.0221934392
34.7579923813
69.8016455167
106.157797852
18.5820650311
19.3445192597
19.5063025787
18.7987578827
17.2854935417
15.2829591389
13.1791311534
11.2654331803
9.66963663578
8.39323761779
7.38253036712
6.59126126554
6.03887174407
5.90698387806
6.72102555062
9.8112173751
18.4583125348
39.514771078
77.1395361999
106.851061308
17.5370732404
18.3032345033
18.4840304781
17.8106102375
16.3370428352
14.3666742364
12.2774986465
10.358884171
8.74312078953
7.44143636211
6.41256912965
5.62497104229
5.11525812159
5.09102577154
6.1401869864
9.83370348981
20.1760584105
45.0750841103
85.1698679102
108.537739166
16.4633997445
17.2225284856
17.4128399818
16.7722924326
15.3489407599
13.4337319262
11.3920456464
9.50602719631
7.90971070238
6.62208208306
5.61265765095
4.86075403482
4.41251233384
4.48812698006
5.74662483449
10.0653274109
22.4115845276
51.8687698386
94.1076833355
111.36610119
15.376169828
16.1089082402
16.2920980153
15.6756243047
14.3071671637
12.4658348014
10.5011160638
8.68387034149
7.1447047342
5.90759058143
4.95068653903
4.25972475803
3.88408409085
4.05191457173
5.50596776632
10.5152131881
25.3313391794
60.0639471014
103.850852938
115.299669928
14.2723447584
14.9633864154
15.1261952938
14.5287275012
13.2215127635
11.4720723305
9.6112824158
7.894023245
6.44408162827
5.2868639778
4.40614728866
3.79137795845
3.49276106411
3.75163216042
5.41649965555
11.2745705649
29.1731703458
69.778286162
114.345352141
120.273297367
13.1527492557
13.785913446
13.9159251684
13.3335049578
12.0948172922
10.4548809973
8.72289476973
7.13313168061
5.79914018563
4.74484458789
3.95671697734
3.4276146329
3.20947034868
3.56414922415
5.48464385486
12.4433710703
34.2194950754
81.1230696583
125.605617377
126.266973482
12.0194692424
12.5825414493
12.6720477344
12.1047176067
10.9433749129
9.42980013157
7.84736528964
6.40674500488
5.20773389708
4.27148779454
3.58671947041
3.14801132492
3.01115749265
3.4726339782
5.73156060407
14.1832905972
40.8075471512
94.1649105464
137.653854729
133.247380328
10.8795061051
11.3625743026
11.407294814
10.8587418483
9.78574287964
8.41359714283
6.99719353097
5.72070433316
4.66947896213
3.86089065459
3.28418926717
2.93559479628
2.87967941381
3.46916491039
6.197395093
16.6835085576
49.2568149387
108.88813467
150.569691582
141.264394139
9.74702630992
10.145110961
10.1456547556
9.62268956145
8.6489237589
7.43018634958
6.19025399518
5.08620407014
4.18870436016
3.51028422231
3.04008360904
2.7772290075
2.80285945601
3.55693715428
6.95389681118
20.2057532675
59.902381391
125.314939106
164.530277645
150.390265976
8.64019310022
8.95279686296
8.91395372503
8.42533093523
7.5604548508
6.50278764398
5.44397427343
4.5140799787
3.76908939226
3.21668125747
2.84624424122
2.66261246667
2.77404331025
3.75141003471
8.11468930146
25.1144939985
73.1151261626
143.507130192
179.724323447
160.747567917
7.5810116674
7.81223430495
7.74189937387
7.29673421777
6.54781800299
5.65386926963
4.77413840191
4.01282954746
3.41230584144
2.97620102374
2.69547244033
2.58459387435
2.79416700175
4.09069237602
9.85305565102
31.8745849542
89.2158206477
163.599574513
196.434691491
172.491208
6.59287243378
6.75128606774
6.65956626517
6.26599443856
5.6359762137
4.90210746848
4.19220155297
3.58698168658
3.11732280381
2.78422217412
2.58177034123
2.53955097305
2.87291673214
4.64239787074
12.4433872761
41.1096762094
108.548918417
185.868689247
215.013072328
185.838918149
5.69762351586
5.79516223476
5.69287886433
5.35651052278
4.84303163906
4.25895824148
3.70333608256
3.23680004808
2.88105012378
2.63585612586
2.50076773626
2.52871354161
3.03548195711
5.53080908556
16.3347403469
53.6372834856
131.508052731
210.715992623
235.885287658
200.996758188
4.91381556674
4.96423311676
4.86134020081
4.58392062269
4.17901984743
3.72885339285
3.3075565655
2.95932704682
2.69895585443
2.52652510219
2.45048624454
2.56124194479
3.3366088672
6.98976760767
22.261439186
70.5003511217
158.620107399
238.781130572
259.596211049
218.193133431
4.25287123678
4.27006583466
4.17439770258
3.95378506559
3.64507070252
3.30937029647
3.00027971622
2.749042099
2.56566903957
2.45253883298
2.43297288598
2.66087289783
3.88750160199
9.4502663965
31.3713951542
92.9326496255
190.578490281
270.825214563
286.702719
237.494671697
3.71814655968
3.71442053898
3.63107599823
3.46196266543
3.23454740417
2.99253939811
2.77344449246
2.59872110343
2.47562208715
2.41197864986
2.45762191028
2.87961916055
4.90743659785
13.6755437182
45.3047671253
122.186390347
228.117357854
307.659040898
317.693860731
258.662533064
3.30476553917
3.28992744626
3.2213907793
3.09647720941
2.93477948607
2.76637394946
2.61659888313
2.50007976899
2.42365271221
2.40622203322
2.54704130687
3.32214373999
6.80728100011
20.9087607952
66.0093800403
159.15978867
271.814595216
349.806952544
352.658722184
280.617945649
2.9998984289
2.98106074134
2.92774636443
2.83903472045
2.72824357882
2.61536389069
2.51697629955
2.44349908198
2.4044595823
2.43995080824
2.74062965885
4.16312167742
10.2255098714
32.7115001543
94.8642343267
203.629138018
321.365249145
396.93453868
391.008540392
300.701649904
2.78467905035
2.76634968266
2.72712468771
2.66677689521
2.59388582002
2.52125593436
2.45962560469
2.41758977105
2.41139519766
2.51781504955
3.08273709237
5.60409678763
15.8427803312
50.177426916
131.322255773
253.474622966
374.675989805
446.89519876
430.187434368
314.147033523
2.63569075189
2.62015314735
2.5929276375
2.55382343154
2.50807417317
2.46354345808
2.42729462906
2.40799749638
2.4320136423
2.62685733407
3.55726270247
7.64256901875
23.6248733853
72.1678616106
171.334611727
303.589995441
426.493732137
494.264498129
464.609861084
313.963981321
2.53512575134
2.52287939891
2.50495899337
2.48091491382
2.45358033744
2.42766861276
2.40799491449
2.40402477271
2.45012287463
2.71882218877
3.98912127797
9.68398467231
31.767135021
94.029516156
207.260409602
345.280893114
466.973725104
527.841838976
483.177914419
293.303607606
2.5525826846
2.54280484989
2.53088173445
2.51611520233
2.49995694688
2.48516816797
2.47482951426
2.47812786083
2.52861566815
2.80723972841
4.17203890731
10.6708578687
36.7779127568
108.315271477
228.866177659
366.125060727
479.942803293
528.542650589
468.701311665
250.652738594
3.8877740705
3.87719852844
3.86516464119
3.85158249981
3.83726867015
3.82436086012
3.81445204444
3.81487049639
3.84845927588
4.04956951359
5.10401423184
10.7488122698
36.2031839075
108.846588596
226.412509785
350.24205539
441.682614194
467.813282404
399.595853454
198.315631009
18.1609803334
18.13985428
18.1131685363
18.0841310481
18.0549753755
18.0291408325
18.0092819483
18.0004438841
18.0250477948
18.1708831438
18.9501877713
23.1199165358
43.2208984539
103.620855923
197.186870078
282.659579313
330.355481829
328.749106419
273.307647803
162.869954455
76.4482327923
108.654211359
88.7907965092
134.325271696
97.7619420366
160.469555691
103.625421584
186.356297025
107.991883257
212.167138421
111.913000199
238.572101187
116.520833231
266.321426581
122.097178999
295.970331231
128.895585938
327.642255702
136.619793414
361.277307043
145.643444492
396.763084691
155.920597036
433.942421894
167.444016284
472.757001239
180.28121358
513.073396746
194.51405469
554.84658928
210.257441649
598.08804232
227.611955132
642.780303831
246.692881123
688.92930081
267.638472216
736.485577562
290.580815183
785.388901402
315.563536577
835.567932215
342.540294768
886.890233391
371.209222126
938.885027747
400.676102424
990.701981526
428.864634084
1039.85022709
451.745133253
1081.34491277
462.045315728
1107.47245135
451.231796725
1109.20611248
414.11383358
1081.59831379
354.927100597
1023.06325907
290.32806599
917.959291994
232.469661431
713.46467626
)
;

boundaryField
{
    inletfuel
    {
        type            turbulentMixingLengthDissipationRateInlet;
        mixingLength    0.005;
        phi             phi;
        k               k;
        value           nonuniform 0();
    }
    inletair
    {
        type            turbulentMixingLengthDissipationRateInlet;
        mixingLength    0.005;
        phi             phi;
        k               k;
        value           nonuniform 0();
    }
    outlet
    {
        type            inletOutlet;
        inletValue      uniform 200;
        value           nonuniform List<scalar> 
26
(
18.1187738939
18.1413106886
18.1634912795
18.1686602635
18.1609803334
18.13985428
18.1131685363
18.0841310481
18.0549753755
18.0291408325
18.0092819483
18.0004438841
18.0250477948
18.1708831438
18.9501877713
23.1199165358
43.2208984539
103.620855923
197.186870078
282.659579313
330.355481829
328.749106419
273.307647803
162.869954455
232.469661431
713.46467626
)
;
    }
    axis
    {
        type            empty;
    }
    leftside
    {
        type            epsilonWallFunction;
        value           nonuniform List<scalar> 
32
(
108.654211359
134.325271696
160.469555691
186.356297025
212.167138421
238.572101187
266.321426581
295.970331231
327.642255702
361.277307043
396.763084691
433.942421894
472.757001239
513.073396746
554.84658928
598.08804232
642.780303831
688.92930081
736.485577562
785.388901402
835.567932215
886.890233391
938.885027747
990.701981526
1039.85022709
1081.34491277
1107.47245135
1109.20611248
1081.59831379
1023.06325907
917.959291994
713.46467626
)
;
    }
    burnerwall
    {
        type            epsilonWallFunction;
        value           nonuniform 0();
    }
    front
    {
        type            wedge;
    }
    back
    {
        type            wedge;
    }
    procBoundary1to0
    {
        type            processor;
        value           nonuniform List<scalar> 
27
(
2287.60110026
2290.54859318
2252.52057061
2188.09157395
31.5247236361
35.360619353
46.2304752921
43.049635788
16.8517451585
8.55343052613
28.9558992654
2010.50467256
1641.23565004
1195.69498751
782.308783092
473.428776581
280.002353312
174.759494693
116.159807816
80.3905283814
55.8261429942
38.9756754128
28.917762964
25.2081438478
25.2081438478
61.7789377425
85.5220880565
)
;
    }
}


// ************************************************************************* //
