/*--------------------------------*- C++ -*----------------------------------*\
  =========                 |
  \\      /  F ield         | OpenFOAM: The Open Source CFD Toolbox
   \\    /   O peration     | Website:  https://openfoam.org
    \\  /    A nd           | Version:  7
     \\/     M anipulation  |
\*---------------------------------------------------------------------------*/
FoamFile
{
    version     2.0;
    format      ascii;
    class       volScalarField;
    location    "0.04";
    object      H2;
}
// * * * * * * * * * * * * * * * * * * * * * * * * * * * * * * * * * * * * * //

dimensions      [0 0 0 0 0 0 0];

internalField   nonuniform List<scalar> 
815
(
0.00254634341605
0.00256335145388
0.00249389033175
0.00035245878035
0.000352545016883
0.000346512423627
0.0001354969734
0.000134469200097
0.000131901099422
5.89054449898e-05
5.83378756759e-05
5.70610517817e-05
2.0479010949e-05
2.02888557479e-05
1.9848485117e-05
5.80065676731e-06
5.75616296815e-06
5.64674659516e-06
1.49297917668e-06
1.48399721564e-06
1.45993403712e-06
3.74110067712e-07
3.7237200038e-07
3.67354292754e-07
9.49979889453e-08
9.46842434807e-08
9.36821344846e-08
2.54440946551e-08
2.53925771265e-08
2.52089146414e-08
7.90686865389e-09
7.9013120727e-09
7.8753351044e-09
3.52348148353e-09
3.52482142303e-09
3.52470211592e-09
2.59763403938e-09
2.59686803044e-09
2.59561362708e-09
2.64461693767e-09
2.64088778547e-09
2.63392268939e-09
3.02155148809e-09
3.01466249746e-09
3.00121028658e-09
3.55927414345e-09
3.54912385963e-09
3.52886591581e-09
4.20985197349e-09
4.19600279949e-09
4.16809325518e-09
4.94465305021e-09
4.92686005293e-09
4.89042819495e-09
5.72678807501e-09
5.70455099016e-09
5.6584746802e-09
6.4945474717e-09
6.46750310401e-09
6.41087980696e-09
7.1575050709e-09
7.12563940851e-09
7.05825038367e-09
7.6048254708e-09
7.56852681802e-09
7.49120835488e-09
7.72803651234e-09
7.68842769062e-09
7.6035247835e-09
7.4584142557e-09
7.41730906186e-09
7.32875750307e-09
6.80143092729e-09
6.7610737259e-09
6.67393031948e-09
5.84556680511e-09
5.80832196432e-09
5.72781508769e-09
4.73421406254e-09
4.70216757028e-09
4.63278397124e-09
3.61583714301e-09
3.5903538082e-09
3.53491533291e-09
2.59203101873e-09
2.57352249775e-09
2.532744023e-09
1.6388147383e-09
1.62671451423e-09
1.60005334131e-09
7.07139024038e-10
7.01644795601e-10
6.89552343402e-10
0.00237379974437
0.000337112108706
0.000128485794905
5.53629572293e-05
1.92487890687e-05
5.49339620149e-06
1.42546737177e-06
3.60018059219e-07
9.21887648081e-08
2.49283944985e-08
7.83509128104e-09
3.52551916741e-09
2.59604179119e-09
2.62679904549e-09
2.9853890076e-09
3.50394053862e-09
4.1330091993e-09
4.84392685686e-09
5.59887812896e-09
6.33671158255e-09
6.9689142952e-09
7.38758754555e-09
7.48868471227e-09
7.20809095927e-09
6.55450965551e-09
5.61710427073e-09
4.53713475694e-09
3.45830645526e-09
2.47625286123e-09
1.56328402724e-09
6.73171469029e-10
3.56674078561e-05
2.11228400522e-05
1.31656372052e-05
7.35770777709e-06
2.98204032918e-06
7.00256290123e-07
6.40367396359e-08
0.0020923198074
0.00166587509891
0.0012578003892
0.000929783954122
0.000680981707644
0.0004949384831
0.000353793398073
0.000246547815295
0.000165349681768
0.000105417398171
6.26050903523e-05
3.60163152757e-05
2.08355760606e-05
1.2854413034e-05
8.65425847199e-06
5.8451445186e-06
3.49505607396e-06
1.5620733672e-06
3.81919256254e-07
3.47968770052e-08
0.000316003674541
0.000282711096757
0.000245795234234
0.000207782237647
0.000170525180895
0.000134984263358
0.000102709267168
7.43275134877e-05
5.06490368479e-05
3.24759126754e-05
1.97574212169e-05
1.19033014789e-05
7.54959211062e-06
5.27495953569e-06
3.93582237964e-06
2.82522962597e-06
1.76273105058e-06
7.96962336706e-07
1.91606434457e-07
1.79337986139e-08
0.000121395238014
0.000109245898838
9.50450421779e-05
7.97531951786e-05
6.44138550275e-05
4.98292740236e-05
3.67422540882e-05
2.57208436324e-05
1.7071065165e-05
1.08405366629e-05
6.76857587923e-06
4.38163394949e-06
3.10899785694e-06
2.43320800904e-06
1.96143409936e-06
1.47012412758e-06
9.2725326622e-07
3.9992253033e-07
8.98131357575e-08
8.97939889151e-09
5.1877942851e-05
4.57983409186e-05
3.87995490422e-05
3.15302818967e-05
2.45706763376e-05
1.83278985254e-05
1.30560456312e-05
8.8896702666e-06
5.83407426771e-06
3.77308123768e-06
2.50785357999e-06
1.80675941011e-06
1.44789072033e-06
1.24382858208e-06
1.0539897908e-06
8.02714424456e-07
4.94070208313e-07
1.98650235486e-07
4.11499313715e-08
4.41968174644e-09
1.80096542879e-05
1.58099183381e-05
1.32713725761e-05
1.06612039617e-05
8.20656944752e-06
6.05832116795e-06
4.2968049304e-06
2.95109645022e-06
2.00014320917e-06
1.38482310197e-06
1.02737950753e-06
8.44238940437e-07
7.56154358605e-07
6.93363201121e-07
6.01008728069e-07
4.53596199137e-07
2.65468160248e-07
9.79709661953e-08
1.9206944136e-08
2.16048480662e-09
5.17171554929e-06
4.58661708904e-06
3.89666531359e-06
3.17258816749e-06
2.4799619669e-06
1.86707603119e-06
1.36345652218e-06
9.82293406547e-07
7.20047892964e-07
5.60334956439e-07
4.79314025212e-07
4.48333232491e-07
4.36884775002e-07
4.15174567015e-07
3.59253949774e-07
2.62101695962e-07
1.42832057178e-07
4.82417021429e-08
9.06856652212e-09
1.04786333194e-09
1.35231015751e-06
1.21797698323e-06
1.05671257391e-06
8.83680401842e-07
7.14029326148e-07
5.61150800609e-07
4.35333597112e-07
3.42922657291e-07
2.85325092586e-07
2.59174511029e-07
2.56822398199e-07
2.66520284402e-07
2.73639151256e-07
2.62791105059e-07
2.22532660178e-07
1.54024920524e-07
7.69301731784e-08
2.37691301695e-08
4.29802597834e-09
5.04747443938e-10
3.44398687528e-07
3.15725570157e-07
2.81139807963e-07
2.43568427006e-07
2.06444629414e-07
1.73373425262e-07
1.47984335759e-07
1.33247236358e-07
1.30609035732e-07
1.39266022505e-07
1.55562245241e-07
1.72718192345e-07
1.81621316638e-07
1.72803425459e-07
1.40797874325e-07
9.07984398204e-08
4.10781106327e-08
1.16047766479e-08
2.03501224523e-09
2.41784539702e-10
8.9001206456e-08
8.32510833755e-08
7.64791297444e-08
6.93767034458e-08
6.2876202107e-08
5.82228648478e-08
5.69784216292e-08
6.06867295166e-08
7.02591600057e-08
8.51923330398e-08
1.02855924348e-07
1.18260027268e-07
1.24741152114e-07
1.15916253676e-07
8.97008630266e-08
5.32213847931e-08
2.16639511069e-08
5.60776601219e-09
9.62608049405e-10
1.15555249016e-10
2.43379057345e-08
2.33595933434e-08
2.23738048278e-08
2.16479876486e-08
2.15956048765e-08
2.28541076808e-08
2.63056697597e-08
3.29034342901e-08
4.32179273332e-08
5.6767455384e-08
7.13937828285e-08
8.30914832789e-08
8.67074170891e-08
7.7899695746e-08
5.66806705512e-08
3.06418199036e-08
1.12023684106e-08
2.6811037494e-09
4.54613610347e-10
5.51466343574e-11
7.75923467078e-09
7.70400920567e-09
7.80236427483e-09
8.21737227891e-09
9.21045719927e-09
1.11981454709e-08
1.47684412417e-08
2.05678967305e-08
2.89657790674e-08
3.95176931045e-08
5.04442425156e-08
5.85267135883e-08
5.98539809117e-08
5.16438925216e-08
3.51111291787e-08
1.72009211713e-08
5.65578826357e-09
1.26877990511e-09
2.14142773807e-10
2.62642595324e-11
3.53491841665e-09
3.61389563198e-09
3.83760899819e-09
4.32257131817e-09
5.25256672009e-09
6.91556123838e-09
9.71693452942e-09
1.40995507749e-08
2.02955497229e-08
2.79093732857e-08
3.55152288218e-08
4.06311168745e-08
4.04330123456e-08
3.3332477335e-08
2.10883440553e-08
9.34625749696e-09
2.78291203074e-09
5.9463438482e-10
1.00518724901e-10
1.24662614061e-11
2.60378085273e-09
2.66581280467e-09
2.84123154528e-09
3.21598923514e-09
3.91754837198e-09
5.13963796499e-09
7.15119292799e-09
1.02401835386e-08
1.45329436479e-08
1.96896692471e-08
2.46182321293e-08
2.75062212762e-08
2.64602749967e-08
2.07493762307e-08
1.21836960005e-08
4.89215216896e-09
1.3341535379e-09
2.76010029235e-10
4.6935220646e-11
5.88578611529e-12
2.61780252745e-09
2.64098869959e-09
2.75105058348e-09
3.0118063884e-09
3.50726035517e-09
4.35747181421e-09
5.72530286641e-09
7.77887575068e-09
1.05672739174e-08
1.38106287662e-08
1.67169135516e-08
1.80554385208e-08
1.66775352784e-08
1.23898026025e-08
6.73864491733e-09
2.45941538503e-09
6.23669526351e-10
1.26721551717e-10
2.17414556851e-11
2.75571549578e-12
2.95780483849e-09
2.9428734678e-09
2.99586198933e-09
3.16458494897e-09
3.49924589891e-09
4.0623169897e-09
4.93493657963e-09
6.19605701856e-09
7.84439346887e-09
9.66572256265e-09
1.11305291085e-08
1.14806709778e-08
1.01039946551e-08
7.07909291532e-09
3.55951378956e-09
1.18722985373e-09
2.84669817596e-10
5.74737943759e-11
9.96868681211e-12
1.27675579191e-12
3.45722042278e-09
3.40558887373e-09
3.40812189064e-09
3.5011678603e-09
3.70865279604e-09
4.04831887436e-09
4.54020920277e-09
5.20153506893e-09
6.00678841083e-09
6.81356519964e-09
7.31199831797e-09
7.0950140288e-09
5.89239325716e-09
3.87010166318e-09
1.79431894207e-09
5.51163996973e-10
1.27147976747e-10
2.57226834912e-11
4.51584970463e-12
5.84463326692e-13
4.06523291443e-09
3.97461622686e-09
3.92641843023e-09
3.94863959955e-09
4.04466860679e-09
4.19827131188e-09
4.38655510205e-09
4.58999822997e-09
4.78229607572e-09
4.89491754388e-09
4.78933347341e-09
4.29346086923e-09
3.32274856964e-09
2.02895554497e-09
8.6414036544e-10
2.46774872035e-10
5.56815550558e-11
1.13593454255e-11
2.01978854677e-12
2.64464009557e-13
4.7521611406e-09
4.61643582519e-09
4.50987477345e-09
4.4543098989e-09
4.43749193515e-09
4.41916976096e-09
4.35058639031e-09
4.19802619562e-09
3.95258689244e-09
3.61412909497e-09
3.1651206767e-09
2.57044033081e-09
1.82446971219e-09
1.02365315867e-09
3.98842500911e-10
1.07091628897e-10
2.39749081812e-11
4.95514451678e-12
8.92855536137e-13
1.18393884118e-13
5.47926050904e-09
5.2892208977e-09
5.1106118391e-09
4.96076920331e-09
4.81688065785e-09
4.62517136207e-09
4.32771354196e-09
3.89571503924e-09
3.34852140438e-09
2.74118128108e-09
2.12885362784e-09
1.53977826005e-09
9.84294993495e-10
4.99726811655e-10
1.77361495019e-10
4.53584799549e-11
1.01899804171e-11
2.13969736325e-12
3.91233112211e-13
5.25186147577e-14
6.18556981043e-09
5.93116961433e-09
5.66412277888e-09
5.39910825606e-09
5.10898320783e-09
4.73804596968e-09
4.23488941002e-09
3.58969433695e-09
2.85217112173e-09
2.11305762705e-09
1.4585180301e-09
9.30653697897e-10
5.26538600274e-10
2.37697207121e-10
7.65978019575e-11
1.89226096043e-11
4.30024613127e-12
9.18761832301e-13
1.70500068127e-13
2.31433954095e-14
6.78426706094e-09
6.45811361008e-09
6.08912138103e-09
5.69190227376e-09
5.24255078653e-09
4.69535114224e-09
4.01820326565e-09
3.22704952988e-09
2.39564570797e-09
1.62818430852e-09
1.0096567747e-09
5.68533113981e-10
2.81080009755e-10
1.10981126551e-10
3.24925205524e-11
7.86554351004e-12
1.81697073614e-12
3.95006107456e-13
7.43208575985e-14
1.01841766821e-14
7.17080823377e-09
6.77257667578e-09
6.29827970906e-09
5.76572197917e-09
5.16210316421e-09
4.46176637606e-09
3.65907696375e-09
2.79455967397e-09
1.95345588585e-09
1.2328033828e-09
6.96322230812e-10
3.48831466264e-10
1.49859532178e-10
5.12467688955e-11
1.37497944086e-11
3.30474849681e-12
7.77359433262e-13
1.71715886113e-13
3.26560038927e-14
4.5085334192e-15
7.24607237309e-09
6.78666833935e-09
6.22050757193e-09
5.57174209973e-09
4.84465972917e-09
4.03913128471e-09
3.1760108857e-09
2.31214437218e-09
1.52999447196e-09
9.04912060207e-10
4.71392067214e-10
2.12275782921e-10
7.93457462531e-11
2.35896544286e-11
5.91545638556e-12
1.42708934443e-12
3.41578072794e-13
7.64080321514e-14
1.46360994913e-14
2.03061330165e-15
6.9512737476e-09
6.45428210495e-09
5.828784513e-09
5.10693078724e-09
4.31196931976e-09
3.46826768764e-09
2.61676528042e-09
1.81924741622e-09
1.14382013749e-09
6.38056896944e-10
3.0926505e-10
1.261922952e-10
4.13360892467e-11
1.09260177878e-11
2.63734921406e-12
6.43678424143e-13
1.56309632833e-13
3.52346073459e-14
6.76655651761e-15
9.39711411412e-16
6.29914808408e-09
5.79788757496e-09
5.15985235418e-09
4.42424065764e-09
3.63023494431e-09
2.82001696589e-09
2.04446003605e-09
1.36016992834e-09
8.15003040718e-10
4.30665053073e-10
1.95168202499e-10
7.24478051249e-11
2.10994476336e-11
5.15831816044e-12
1.23665834051e-12
3.06840413568e-13
7.52822234252e-14
1.69999688195e-14
3.25109530733e-15
4.48452096499e-16
5.37968239837e-09
4.90989653442e-09
4.30914788802e-09
3.62034460459e-09
2.89172481361e-09
2.17387010372e-09
1.51791137879e-09
9.68885097394e-10
5.54996131223e-10
2.78702443044e-10
1.18330347386e-10
4.00871593603e-11
1.0632361183e-11
2.51492478177e-12
6.12684377975e-13
1.54738180563e-13
3.81702733082e-14
8.57767305526e-15
1.61847141113e-15
2.1876871749e-16
4.33153736217e-09
3.92301034486e-09
3.40008337337e-09
2.80487396119e-09
2.18669888425e-09
1.59575762244e-09
1.07676906145e-09
6.61784179938e-10
3.63704959744e-10
1.74133438906e-10
6.94052537056e-11
2.16005394423e-11
5.37447626909e-12
1.27249904036e-12
3.17902968957e-13
8.14714455398e-14
2.0088470281e-14
4.45614500029e-15
8.19035905712e-16
1.06001820991e-16
3.29305579065e-09
2.9635438883e-09
2.54183869479e-09
2.06483023236e-09
1.57701959436e-09
1.12189879342e-09
7.3491661255e-10
4.36939463165e-10
2.31480829333e-10
1.06185700505e-10
3.99560601673e-11
1.15507967543e-11
2.75858597344e-12
6.61696948881e-13
1.68772699608e-13
4.35355579002e-14
1.06356353588e-14
2.30030234371e-15
4.03608491848e-16
4.80704578683e-17
2.35374078963e-09
2.10825030346e-09
1.79387150797e-09
1.43990251182e-09
1.08187102965e-09
7.53844842231e-10
4.81745576998e-10
2.78493566359e-10
1.43023922971e-10
6.33108133203e-11
2.27385190886e-11
6.18588896806e-12
1.42840195982e-12
3.44136946168e-13
8.83335861059e-14
2.2623184283e-14
5.39812695241e-15
1.11656193515e-15
1.80959657516e-16
1.86349949666e-17
1.48366257611e-09
1.32390012171e-09
1.11934785487e-09
8.89863770902e-10
6.59810920629e-10
4.52034440728e-10
2.83051107107e-10
1.59847269186e-10
8.00191664855e-11
3.44994248824e-11
1.20836359609e-11
3.18331719023e-12
7.11141991369e-13
1.68919922715e-13
4.27975841025e-14
1.06921259782e-14
2.44117076826e-15
4.69193475031e-16
6.73440999677e-17
5.61553837563e-18
6.37877025148e-10
5.67279138518e-10
4.77158729993e-10
3.76474858844e-10
2.76293132135e-10
1.8681421213e-10
1.15139104705e-10
6.38463473376e-11
3.13386468259e-11
1.32781821051e-11
4.63699390631e-12
1.2600378738e-12
2.91713912581e-13
7.01876701284e-14
1.78553277038e-14
4.42748387104e-15
9.80998074603e-16
1.78788448764e-16
2.35782218699e-17
1.79141970483e-18
6.42389179028e-09
6.34433241768e-10
3.85470048827e-09
3.877362313e-10
2.1638315981e-09
2.19663558656e-10
1.15526063291e-09
1.16748033275e-10
5.90455127091e-10
5.86877463666e-11
2.9311306061e-10
2.84274423896e-11
1.41953531804e-10
1.33850968077e-11
6.78509574339e-11
6.22149724805e-12
3.22216833441e-11
2.88076753168e-12
1.53236985106e-11
1.34231201675e-12
7.2887956458e-12
6.28114749573e-13
3.46718613409e-12
2.94733351805e-13
1.64716879373e-12
1.38722729544e-13
7.79144793813e-13
6.51354745617e-14
3.66186582171e-13
3.0471219177e-14
1.70457832331e-13
1.41545829323e-14
7.84541979392e-14
6.51465468484e-15
3.57633798956e-14
2.97770519585e-15
1.61484013212e-14
1.35087249011e-15
7.22595362798e-15
6.08270196771e-16
3.21532199028e-15
2.72885816488e-16
1.42688935908e-15
1.2214759691e-16
6.36139601668e-16
5.48988700333e-17
2.88076161598e-16
2.50182520654e-17
1.3368005957e-16
1.16544240656e-17
6.33595010804e-17
5.50537531379e-18
3.01578536146e-17
2.57559190135e-18
1.38230272025e-17
1.13428567061e-18
5.64231485283e-18
4.32642305652e-19
1.85491024298e-18
1.31180759657e-19
4.80789152152e-19
3.3283736508e-20
1.79938418859e-19
1.43259859761e-20
)
;

boundaryField
{
    inletfuel
    {
        type            fixedValue;
        value           nonuniform 0();
    }
    inletair
    {
        type            fixedValue;
        value           nonuniform 0();
    }
    outlet
    {
        type            zeroGradient;
    }
    axis
    {
        type            empty;
    }
    leftside
    {
        type            zeroGradient;
    }
    burnerwall
    {
        type            zeroGradient;
    }
    front
    {
        type            wedge;
    }
    back
    {
        type            wedge;
    }
    procBoundary1to0
    {
        type            processor;
        value           nonuniform List<scalar> 
27
(
0.0289741409811
0.0288089972387
0.0280277073963
0.0268106383116
0.000103905075267
5.5813041236e-05
3.17815203323e-05
1.66354670925e-05
5.67736526197e-06
1.22463048726e-06
1.15172389205e-07
0.024014436648
0.0190797142228
0.0137359338799
0.00917838598472
0.00576765648962
0.00341030692444
0.00196572210063
0.00113646282619
0.000673106480534
0.000395078370725
0.000225437603747
0.000123892197244
6.56541836968e-05
6.56541836968e-05
1.05071160989e-08
1.01141870082e-09
)
;
    }
}


// ************************************************************************* //
