/*--------------------------------*- C++ -*----------------------------------*\
  =========                 |
  \\      /  F ield         | OpenFOAM: The Open Source CFD Toolbox
   \\    /   O peration     | Website:  https://openfoam.org
    \\  /    A nd           | Version:  7
     \\/     M anipulation  |
\*---------------------------------------------------------------------------*/
FoamFile
{
    version     2.0;
    format      ascii;
    class       volScalarField;
    location    "0.04";
    object      H2O;
}
// * * * * * * * * * * * * * * * * * * * * * * * * * * * * * * * * * * * * * //

dimensions      [0 0 0 0 0 0 0];

internalField   nonuniform List<scalar> 
815
(
0.0904779401161
0.090447503439
0.0898112112697
0.0478886880153
0.0478516620942
0.0476645013325
0.03387197223
0.0338405238549
0.0337482585266
0.0275976877988
0.0275811171353
0.0275391371032
0.024665303549
0.0246576977542
0.0246385228526
0.0231753241922
0.0231681766674
0.0231512384808
0.0221899050571
0.0221806113682
0.0221593620559
0.0213551209046
0.0213434963672
0.0213173002868
0.0205597579552
0.0205460832268
0.0205154466446
0.0197699431894
0.0197545323671
0.0197202051583
0.0189771317697
0.0189601209083
0.0189225026035
0.0181780666897
0.0181599369625
0.0181198064605
0.017375835538
0.0173565775226
0.0173142692902
0.0165712051575
0.016551382396
0.0165077155062
0.0157684746715
0.0157483267534
0.0157040002346
0.0149719585865
0.0149518221447
0.0149075556791
0.0141857927164
0.0141661653051
0.0141229131841
0.0134170313174
0.0133980751714
0.0133565257271
0.0126720967369
0.0126542384442
0.0126152247886
0.0119597437167
0.0119433659651
0.0119076764865
0.0112906483196
0.0112760375431
0.0112443111425
0.010675999703
0.0106634420729
0.0106361597239
0.0101269458657
0.0101165472302
0.0100939028012
0.00965266626164
0.00964429687958
0.00962613896401
0.00925778720265
0.00925128321095
0.00923722895598
0.0089417479848
0.00893687347235
0.00892636051833
0.00869851455108
0.00869501344755
0.00868745193749
0.00851825506159
0.00851586495841
0.00851066654904
0.00838957079397
0.00838803245482
0.00838462638814
0.00830211501738
0.00830113523578
0.00829895607761
0.00824749102892
0.00824685548509
0.00824544228582
0.0888077692157
0.0473944526692
0.0336210113206
0.0274812522409
0.0246115895661
0.0231273489264
0.0221295448806
0.0212805795812
0.0204725414675
0.0196721444822
0.0188699734661
0.0180638596018
0.0172554689727
0.0164471774747
0.0156426586674
0.0148464291831
0.0140632368774
0.0132992832326
0.0125615466791
0.011858626962
0.0112007545784
0.0105987182608
0.0100628125259
0.0096011832362
0.00921788845095
0.00891189146832
0.00867703660322
0.00850349166085
0.00837991150045
0.00829593375482
0.00824349143398
0.0527912170776
0.0549494769901
0.0531361079663
0.0420026167296
0.02444848012
0.0140894630573
0.0164791602177
0.086399124116
0.0826100309789
0.078063661395
0.0730759514456
0.0679484758838
0.0627102651465
0.057395570071
0.0522900784184
0.0477044625943
0.0440392905642
0.041817770145
0.0413271706334
0.0420942918716
0.0433199212667
0.0432509180309
0.0392023495698
0.0302335236458
0.0196565404906
0.0144088268465
0.01819329989
0.0467910966234
0.0457649940633
0.0444400652471
0.0428623716432
0.0411221956989
0.0392572212893
0.0374269475402
0.0358483980997
0.0347313143432
0.0341732596431
0.0341651970775
0.0346152060659
0.0351925185375
0.0352177854265
0.0336097603144
0.0293675375684
0.0230246732533
0.0169442995417
0.0152213188837
0.019799121025
0.0333497430321
0.032850594598
0.0322147956138
0.0314989797485
0.0307937549555
0.0301662374252
0.0296670399219
0.0293308527547
0.0291761204391
0.0291990253699
0.0293507278559
0.0295024351712
0.029381877084
0.0285383288235
0.0264665422758
0.0229915317003
0.0188723041013
0.0157426768216
0.0163096061757
0.0211227293066
0.0273601329685
0.0271431343232
0.0268855662451
0.0266178918334
0.0263709292184
0.0261628919854
0.0259982182675
0.025872358732
0.0257745497287
0.0256826231784
0.0255440668294
0.0252494773496
0.024613246654
0.0233986609738
0.0214469136014
0.0189080351941
0.016488339568
0.015435285105
0.0174630237691
0.0221746977812
0.0245549003484
0.0244507266705
0.0243224907757
0.0241792487881
0.0240270785889
0.0238644258975
0.0236804279079
0.023459842041
0.0231865043679
0.0228402020959
0.0223835490558
0.021748397913
0.0208383969323
0.0195717047321
0.0179699888446
0.0163012864278
0.0151688766464
0.0155668475133
0.0184691880071
0.0230082264468
0.0230763076893
0.0229761366623
0.0228430881421
0.0226777291463
0.0224767714682
0.0222305103071
0.0219224037207
0.0215348908912
0.0210546672171
0.0204719674376
0.0197720750249
0.0189295933435
0.0179187097782
0.0167522290251
0.0155461058245
0.0146028562409
0.0144559965147
0.0158906291494
0.0193114772191
0.0236942412104
0.0220654319922
0.0219358658485
0.0217583807453
0.0215304351154
0.0212450943778
0.0208897312176
0.0204469488996
0.0199012870707
0.0192461806701
0.0184851317781
0.0176261473971
0.0166797543639
0.0156698115149
0.0146655771769
0.0138293782201
0.0134704047424
0.0140756065715
0.0162444192953
0.0200016420977
0.0242894121086
0.0212013009165
0.0210388578864
0.0208140703881
0.0205228610732
0.0201575203573
0.0197052207894
0.019150363603
0.0184818380112
0.0177009082532
0.0168234463596
0.0158765224839
0.0148968429888
0.0139407670226
0.0131099586961
0.012591608165
0.0126985661075
0.0138887788331
0.0165935922197
0.0205886034455
0.0248427960975
0.0203796093493
0.0201878586738
0.0199215914771
0.0195764509914
0.019145071878
0.0186162025412
0.0179777498554
0.0172240307623
0.0163638725452
0.0154237067388
0.014444417564
0.0134802741975
0.0126065661792
0.0119421081375
0.0116865712621
0.0121619456157
0.0138086541506
0.0169276433123
0.0211129278977
0.0253866220572
0.0195678106888
0.0193518148017
0.0190518491542
0.018663972269
0.0181822458125
0.0175981992789
0.0169039381701
0.0160994459456
0.0152003323384
0.0142406004695
0.0132703355692
0.0123537816809
0.011575942705
0.0110632875145
0.0110238332234
0.0117953550272
0.0138116614826
0.0172705113112
0.0216177629483
0.02594937848
0.0187559237872
0.0185201394542
0.0181934515518
0.017773010022
0.0172548668941
0.0166340641918
0.0159076245814
0.0150811434101
0.0141757936157
0.0132307801771
0.0123010520816
0.0114550788987
0.0107801615094
0.0104039413757
0.0105416400467
0.0115553681669
0.0138913841265
0.0176440079248
0.0221350269778
0.0265520127569
0.0179422881862
0.0176911992854
0.0173444609195
0.0169006818979
0.0163586034902
0.0157171748917
0.0149785631485
0.0141538282845
0.0132683140754
0.0123641642305
0.0114978240294
0.0107371508825
0.0101670994687
0.00991354496624
0.0102003874762
0.0114237693783
0.0140523016062
0.0180661866786
0.0226888161293
0.0272093574329
0.017127904903
0.0168655887119
0.0165049921763
0.0160465302136
0.0154918042155
0.0148438983801
0.0141102453606
0.0133065880163
0.0124615875508
0.0116179977264
0.0108305825318
0.0101637446713
0.00969736876811
0.00955473622104
0.0099725710315
0.0113912441827
0.0143030754013
0.0185519014625
0.0232985600947
0.0279312909268
0.0163158733578
0.0160467165929
0.0156784351533
0.0152135313949
0.0146566584163
0.0140151896344
0.0133011149943
0.012534393777
0.011745397545
0.0109758621191
0.0102769147005
0.0097072132497
0.00934057681227
0.00929895345467
0.00983922044182
0.0114585335821
0.0146542915382
0.0191141847916
0.0239780312226
0.0287242864308
0.0155097491341
0.015238215671
0.0148685213551
0.0144052950872
0.0138563454208
0.013232880168
0.0125510748569
0.0118338692622
0.0111122491106
0.0104255239932
0.00981949863545
0.00934603726952
0.00907298439614
0.00912473565162
0.00978821074665
0.0116277035971
0.0151122856821
0.0197589373737
0.0247334646986
0.0295908075215
0.0147141317382
0.0144448036298
0.0140800761784
0.0136266710191
0.0130952109242
0.012500367258
0.0118615853831
0.0112037614649
0.0105572852598
0.0099576691399
0.00944455830836
0.00906283699963
0.00887618572599
0.00901706051775
0.00981482083331
0.0119035936832
0.0156783481136
0.020489515695
0.0255691517307
0.0305311190818
0.0139341491775
0.0136719362162
0.0133186244016
0.0128829390231
0.0123780556573
0.0118214261548
0.0112347268468
0.010643536582
0.0100764321716
0.00956436549046
0.00914049773196
0.00884368655198
0.00873625551259
0.00896622068902
0.00992067247035
0.0122948950459
0.016353312891
0.0213071990916
0.0264862256145
0.0315423756106
0.0131756678039
0.0129253638039
0.0125898756821
0.0121796095731
0.0117097522742
0.0111996944168
0.0106722115054
0.0101522229597
0.00966545404034
0.00923797536049
0.00889714002173
0.0086773435213
0.00864345869609
0.00896869491322
0.0101126813718
0.0128097295093
0.0171353510103
0.0222121574777
0.0274831957751
0.0326202244886
0.0124457912135
0.0122121523749
0.0119006551981
0.0115229197238
0.0110954845084
0.0106386377282
0.0101750364923
0.00972785414223
0.00931945629144
0.00897126150263
0.00870575752683
0.00855510732622
0.00859172621483
0.00902644181551
0.0104042002539
0.0134568287636
0.0180236259802
0.0232072557707
0.0285558318089
0.0337578841711
0.011752980112
0.0115403508054
0.0112583014145
0.0109190981132
0.010539794438
0.010140577817
0.00974289432189
0.00936750114759
0.00903319785885
0.00875730469367
0.00855888247237
0.00847057436218
0.00857913455192
0.00914868184615
0.0108167064293
0.0142458958416
0.019019779562
0.0242924880657
0.0296992197645
0.0349438744458
0.0111070357014
0.0109189066774
0.0106705210528
0.0103741607238
0.0100465414427
0.00970682172681
0.00937449617097
0.00906747395773
0.0088011989323
0.00858970392855
0.00845032530023
0.00841999831388
0.00860940367972
0.00935529855707
0.0113807499005
0.0151878284244
0.0201279506531
0.0254666742049
0.0309030613708
0.0361580706488
0.010518178896
0.0103568011627
0.010144600999
0.0098932489461
0.0096183754926
0.00933740898861
0.00906738955326
0.0088233623431
0.00861781094072
0.00846252425319
0.00837538565274
0.00840307415127
0.00869415951336
0.00967975167162
0.0121321487018
0.0162913367432
0.0213517648332
0.0267213963152
0.032147369917
0.0373694453077
0.00999592490976
0.00986201353059
0.00968651716487
0.00948000102229
0.00925641443465
0.00903099830896
0.00881816697455
0.00863023105481
0.00847739378627
0.00837057111329
0.0083313382115
0.00842433722536
0.00885625859974
0.0101695069206
0.0131021393188
0.0175538339236
0.0226792720768
0.0280312391102
0.0333904778048
0.0385308224621
0.00954751736506
0.00944014628495
0.00929984766582
0.00913571446552
0.00895967090227
0.00878451987726
0.00862213660155
0.00848247438954
0.00837429412175
0.00830952697768
0.00831812086601
0.00849532214739
0.00913253904904
0.0108771212996
0.0142962948295
0.0189487389745
0.0240727089555
0.0293419672634
0.0345684310119
0.0395849066618
0.00917632539363
0.00909320341361
0.00898487616885
0.00885880458678
0.00872478059398
0.00859318213848
0.00847354687458
0.00837404334299
0.00830304963047
0.0082760602356
0.00833815660752
0.00863330164544
0.0095635028196
0.0118225808678
0.015659142993
0.0203978936335
0.025440543478
0.0305509556985
0.035584713606
0.0404674815006
0.00888080956217
0.00881870549868
0.00873795521156
0.00864442724469
0.00854582946227
0.00845032650215
0.008365485039
0.00829829333413
0.00825803758893
0.00826676969386
0.00839321430403
0.0088509138264
0.0101607968778
0.0129448205496
0.0170582306385
0.0217639425261
0.0266399206301
0.0315216335148
0.0363325490198
0.0411256717332
0.00865464797472
0.00860992841314
0.00855187203732
0.00848490950538
0.00841485922973
0.00834797707661
0.00829026134233
0.00824811293797
0.00823269146514
0.00827497415977
0.00847434176127
0.00912865794584
0.0108525577957
0.0140665296092
0.018284147997
0.0228488660413
0.027484676455
0.0320980465105
0.0367064802482
0.0415333250387
0.0084880201809
0.00845705487215
0.00841687314771
0.00837064122022
0.00832262709201
0.00827745823457
0.00823989248234
0.00821596610962
0.0082186201403
0.0082869089825
0.00854946630988
0.00938547143444
0.011461306754
0.0149363038
0.0191061841368
0.0234505886418
0.0278087391919
0.032167567099
0.0366576289178
0.0417256411805
0.00836968083179
0.00834908952491
0.00832232897724
0.00829158086735
0.00825981445218
0.00823035322392
0.00820686923293
0.00819478027706
0.00820716761865
0.00828561621077
0.00857299719924
0.00950291344522
0.011770746549
0.0153213890624
0.0193393483196
0.0234317825473
0.0275302756643
0.0317077792815
0.0362239783018
0.0418006753898
0.00828936583886
0.00827606498229
0.00825874604853
0.00823885764645
0.00821840566286
0.0081996609405
0.00818523316264
0.00817924123457
0.00819214473787
0.00825836136885
0.0085045032387
0.00936483676929
0.011601177223
0.0150936208418
0.0189413631165
0.0228322988431
0.026775103036
0.0309172560132
0.0356158424131
0.0419046856234
0.00823923687957
0.00823058415343
0.00821931254561
0.00820638656613
0.00819314823789
0.00818111697106
0.00817204497561
0.00816872042647
0.00817827135725
0.00822411340325
0.00839424112676
0.00903518940524
0.0109804186702
0.0143673897342
0.0181680469366
0.0220278389798
0.0260128078803
0.0302958459349
0.0352765551538
0.0421009487248
0.0259558155507
0.0285667083835
0.0257280499491
0.0279795088034
0.0257417039792
0.0276897514458
0.02596273671
0.0276741575055
0.0263108216778
0.0278523280175
0.0267217793255
0.0281556615172
0.0271737112951
0.0285456951873
0.0276551960524
0.0290015948684
0.0281702728678
0.0295160604237
0.0287242480196
0.0300879216731
0.0293305541384
0.0307227570584
0.0299972303599
0.0314249255006
0.0307301174926
0.0321974291405
0.0315332335489
0.0330421506399
0.032407688418
0.0339588982652
0.033353318977
0.0349461001117
0.0343682322919
0.0360006601524
0.0354472676448
0.0371175691187
0.036585128331
0.0382900366427
0.0377735905933
0.039508662424
0.0389989045955
0.0407593356972
0.0402427143316
0.0420240059477
0.041479108647
0.0432797811207
0.0426751191864
0.0445037133899
0.0438010782871
0.0456795331232
0.0448436982276
0.046810710387
0.0458116028506
0.0479235614391
0.0467394229085
0.0490567391653
0.0476753133868
0.0502158430486
0.0486160384285
0.0512988997663
0.0494245930981
0.0520834712455
0.0498396882392
0.0523950716924
)
;

boundaryField
{
    inletfuel
    {
        type            fixedValue;
        value           nonuniform 0();
    }
    inletair
    {
        type            fixedValue;
        value           nonuniform 0();
    }
    outlet
    {
        type            zeroGradient;
    }
    axis
    {
        type            empty;
    }
    leftside
    {
        type            zeroGradient;
    }
    burnerwall
    {
        type            zeroGradient;
    }
    front
    {
        type            wedge;
    }
    back
    {
        type            wedge;
    }
    procBoundary1to0
    {
        type            processor;
        value           nonuniform List<scalar> 
27
(
0.204578106201
0.204317900513
0.203589546085
0.202424363036
0.0665326495869
0.0681753031979
0.0698054974541
0.0595018844157
0.0316000650979
0.0144425193003
0.0148028557437
0.199468216636
0.192781250919
0.181601282384
0.164637228995
0.145333483183
0.127039878552
0.110371522825
0.0947170338036
0.0806981159092
0.0687923953152
0.0596109672943
0.0538365595154
0.0517140540067
0.0517140540067
0.0261671541308
0.0292728435867
)
;
    }
}


// ************************************************************************* //
