/*--------------------------------*- C++ -*----------------------------------*\
  =========                 |
  \\      /  F ield         | OpenFOAM: The Open Source CFD Toolbox
   \\    /   O peration     | Website:  https://openfoam.org
    \\  /    A nd           | Version:  7
     \\/     M anipulation  |
\*---------------------------------------------------------------------------*/
FoamFile
{
    version     2.0;
    format      ascii;
    class       volScalarField;
    location    "0.04";
    object      HE;
}
// * * * * * * * * * * * * * * * * * * * * * * * * * * * * * * * * * * * * * //

dimensions      [0 0 0 0 0 0 0];

internalField   nonuniform List<scalar> 
815
(
0.000209540689901
0.000209873975639
0.000210330659759
0.000188862184399
0.000189193334476
0.000189855418657
0.000177928592336
0.00017826139217
0.000178964440689
0.000168601197563
0.000168878625875
0.000169474030669
0.000159201116344
0.000159402241969
0.000159834086183
0.000149501527107
0.000149628355326
0.000149898628556
0.000139776606043
0.000139836495212
0.000139959770916
0.000130164710471
0.000130164909413
0.000130157703573
0.000120753439639
0.000120702182558
0.00012058255667
0.000111562964514
0.000111467956516
0.000111253954834
0.000102611617765
0.000102479052659
0.000102185366797
9.38791587716e-05
9.37188799216e-05
9.33639796701e-05
8.53846777147e-05
8.52009046434e-05
8.47978121422e-05
7.71071822506e-05
7.69096885844e-05
7.64753731699e-05
6.90590839516e-05
6.88535780719e-05
6.84023431511e-05
6.12510878422e-05
6.10436390196e-05
6.05885583119e-05
5.36939704985e-05
5.34915293228e-05
5.30464885786e-05
4.64292503844e-05
4.62349317134e-05
4.58098914701e-05
3.94957397883e-05
3.93146186483e-05
3.89196531049e-05
3.29571571739e-05
3.27933439984e-05
3.24369370018e-05
2.68967535987e-05
2.67529918159e-05
2.64412170874e-05
2.14025602549e-05
2.12811740454e-05
2.1017790207e-05
1.65606541566e-05
1.64620227989e-05
1.62475404883e-05
1.24367104687e-05
1.23589427129e-05
1.21904060536e-05
9.05344107927e-06
8.99429173307e-06
8.86658443783e-06
6.3868317419e-06
6.34347530811e-06
6.2500347105e-06
4.36641531101e-06
4.33596755582e-06
4.27025826372e-06
2.89225362727e-06
2.87192938228e-06
2.82776878423e-06
1.85538974668e-06
1.84259536554e-06
1.81430854183e-06
1.1597416483e-06
1.1517751347e-06
1.13407921605e-06
7.28782588625e-07
7.23727509555e-07
7.12497571853e-07
0.000210913972542
0.000190767972203
0.000179934573442
0.00017030214695
0.000160442431537
0.0001502829907
0.000140138296123
0.000130152534576
0.000120419364809
0.000110957947249
0.000101778663365
9.28722124834e-05
8.4240261427e-05
7.58755479382e-05
6.77798261567e-05
5.99617516906e-05
5.24338268175e-05
4.52254822774e-05
3.83772161638e-05
3.19479428089e-05
2.60138708008e-05
2.06568903128e-05
1.59535183618e-05
1.19591398832e-05
8.69112390882e-06
6.12163068012e-06
4.17988639298e-06
2.76690999889e-06
1.7752108775e-06
1.10957148818e-06
6.97015978541e-07
0.000442665500376
0.000456831846114
0.000432838226553
0.000337681928955
0.00018120340779
5.54501771757e-05
8.98801042091e-06
0.000212339662026
0.000215283013801
0.000220035142307
0.000227170183269
0.000237230254606
0.000250470196597
0.000266565533991
0.000285029474348
0.000305231946415
0.000326223221337
0.000347190248151
0.000365191780986
0.000378102871659
0.000382022187364
0.00036765214871
0.000319936474061
0.000232585820926
0.000123707625119
3.89451512945e-05
6.30958714011e-06
0.000192865026612
0.000197315160933
0.000203969402127
0.000213220300943
0.000225394064946
0.000240439498272
0.000257666131196
0.000275857535777
0.000293361955721
0.000308374327488
0.000319334584144
0.000324763911786
0.000322715032469
0.000309746190909
0.000280131613716
0.000228156019889
0.00015734493965
8.09333656173e-05
2.53704795545e-05
4.12636139659e-06
0.000182089675259
0.000186746289033
0.000193613301249
0.000202985397428
0.000214955641233
0.000229107724496
0.000244350315864
0.000258999891559
0.000271094943234
0.000278817253114
0.000280843291165
0.000276288757833
0.000264062255307
0.000242178467403
0.000208149301269
0.000161162094889
0.000106150123256
5.16824061299e-05
1.53939108759e-05
2.56038928357e-06
0.000172122715206
0.000176120807178
0.000182055948093
0.000190178863093
0.000200496580876
0.000212489271836
0.000224869250618
0.000235668680576
0.000242740372734
0.000244432625866
0.000239918452482
0.000228961405989
0.000211275324289
0.000186144157376
0.000153033170299
0.000113000294157
7.05061854602e-05
3.21684611983e-05
8.91799438264e-06
1.52221370674e-06
0.000161786497832
0.000164818950937
0.000169427853316
0.00017585028983
0.000184065078339
0.000193501876454
0.000202795183208
0.000209923362608
0.000212815637402
0.000210096227997
0.000201363319504
0.0001868701135
0.000166946367392
0.000141792669474
0.000111837464719
7.88007015754e-05
4.61955412833e-05
1.94777365188e-05
5.09294653095e-06
8.76864828035e-07
0.000151142903918
0.00015316084639
0.000156342039772
0.000160909285517
0.000166849978778
0.000173638355467
0.000179993308293
0.000184015019945
0.000183805792482
0.000178220153113
0.000167134335078
0.000151124950151
0.000130942610808
0.00010731176203
8.11777828692e-05
5.43403883284e-05
2.97061393997e-05
1.15286262352e-05
2.86672342138e-06
4.92703232047e-07
0.000140551360082
0.000141617319732
0.000143435261227
0.000146207611341
0.000149941324912
0.000154199049956
0.000157874497728
0.000159299331705
0.000156814053871
0.00014947429248
0.000137323832682
0.000121121736861
0.000101864174142
8.05640191969e-05
5.83765343629e-05
3.69990690649e-05
1.87616124226e-05
6.71211715741e-06
1.59329391851e-06
2.72092049626e-07
0.000130164791672
0.000130365989579
0.000130937020057
0.000132056609884
0.000133759833695
0.000135719696537
0.000137050188764
0.000136369984462
0.000132282567843
0.000124009983449
0.000111683281298
9.61299342395e-05
7.84599027737e-05
5.98095424386e-05
4.13892352954e-05
2.46827602389e-05
1.15682498721e-05
3.82940022875e-06
8.75970397555e-07
1.48585210213e-07
0.000120084473048
0.000119531868998
0.000119011220016
0.000118680173802
0.000118595875877
0.000118539472654
0.000117848588163
0.000115445639597
0.000110216150778
0.000101550913444
8.96260251125e-05
7.52659990069e-05
5.95824166027e-05
4.3715518478e-05
2.88114520883e-05
1.61058145558e-05
6.96904687669e-06
2.14668221064e-06
4.78303613678e-07
8.07470786612e-08
0.000110330264121
0.000109140810977
0.000107697122871
0.0001061382184
0.000104541430434
0.000102785987982
0.000100415427473
9.66448398559e-05
9.06415206939e-05
8.19594874453e-05
7.08043356304e-05
5.79466073375e-05
4.44294551968e-05
3.13121618049e-05
1.95893023848e-05
1.02304372158e-05
4.09148850022e-06
1.18480169716e-06
2.59912785271e-07
4.38257735542e-08
0.000100908165756
9.91977863201e-05
9.70024416893e-05
9.44470814457e-05
9.16245384669e-05
8.84967752238e-05
8.47878170245e-05
7.99765731082e-05
7.34949697266e-05
6.50611807202e-05
5.49035669662e-05
4.37144252714e-05
3.24122076479e-05
2.19013548349e-05
1.29769916537e-05
6.32068097118e-06
2.34132663452e-06
6.45529552834e-07
1.40743161437e-07
2.3796374663e-08
9.18134420291e-05
8.96975266531e-05
8.69192887068e-05
8.35942148903e-05
7.98317821671e-05
7.56624265704e-05
7.09610700761e-05
6.54329091996e-05
5.87410326429e-05
5.07536418543e-05
4.17195747231e-05
3.22352168083e-05
2.3059142721e-05
1.490660418e-05
8.34946701391e-06
3.79188642136e-06
1.30824442736e-06
3.48230407542e-07
7.60363396286e-08
1.29325238136e-08
8.30387826293e-05
8.06244963569e-05
7.7422762105e-05
7.35455409032e-05
6.91178990466e-05
6.42278043364e-05
5.88735403767e-05
5.29408860931e-05
4.6286624688e-05
3.89025690863e-05
3.10435797954e-05
2.32043734172e-05
1.59702426223e-05
9.85378543042e-06
5.20973630824e-06
2.20847734012e-06
7.15671854166e-07
1.86462310252e-07
4.09922036714e-08
7.0335072462e-09
7.45808754692e-05
7.19710633868e-05
6.84946662351e-05
6.42663364411e-05
5.94284258482e-05
5.41185572003e-05
4.84280582936e-05
4.23839336353e-05
3.59874379744e-05
2.93213470646e-05
2.26325964805e-05
1.63086898516e-05
1.07669225874e-05
6.32620178265e-06
3.15283714634e-06
1.24949942786e-06
3.84486729237e-07
9.92182202506e-08
2.20425268498e-08
3.82464610362e-09
6.64360182527e-05
6.37251692911e-05
6.0110741839e-05
5.57138620257e-05
5.06959661275e-05
4.52336085068e-05
3.94895751864e-05
3.35892435769e-05
2.76337950905e-05
2.17611101983e-05
1.61918423341e-05
1.12091974912e-05
7.07602165721e-06
3.949091586e-06
1.85289276053e-06
6.88372851879e-07
2.03559071033e-07
5.2529953562e-08
1.1825488828e-08
2.0797321067e-09
5.86091508599e-05
5.58828991112e-05
5.22532618902e-05
4.7850365638e-05
4.28523956726e-05
3.74670260423e-05
3.19055204906e-05
2.6356338886e-05
2.09787917687e-05
1.59306395501e-05
1.13931920814e-05
7.55230510036e-06
4.54390163653e-06
2.4019399425e-06
1.05946401841e-06
3.70595878466e-07
1.06667268313e-07
2.77174414596e-08
6.33536537794e-09
1.13195249185e-09
5.11119284365e-05
4.84490552429e-05
4.49126129896e-05
4.0642908732e-05
3.58330655154e-05
3.07120077125e-05
2.55188518733e-05
2.04734385679e-05
1.57576483968e-05
1.15233765309e-05
7.90392276294e-06
5.00292339033e-06
2.86006483313e-06
1.42789610312e-06
5.91175428811e-07
1.95851690932e-07
5.55657852151e-08
1.46147277087e-08
3.39652273355e-09
6.18263419958e-10
4.39662289919e-05
4.14348670596e-05
3.80853726782e-05
3.40662907984e-05
2.95806539066e-05
2.48680145547e-05
2.01769099649e-05
1.57320832449e-05
1.17111092463e-05
8.24327023407e-06
5.41547522257e-06
3.26635142727e-06
1.76976416581e-06
8.32153951237e-07
3.232019366e-07
1.02231298032e-07
2.89211292112e-08
7.72866824683e-09
1.82849962858e-09
3.39849763375e-10
3.72097931701e-05
3.48690066692e-05
3.17849890763e-05
2.81105186548e-05
2.40520585701e-05
1.98480884619e-05
1.57402304749e-05
1.1939308062e-05
8.60278213631e-06
5.83020908004e-06
3.667093617e-06
2.10556963538e-06
1.07940143398e-06
4.76928978257e-07
1.73929673938e-07
5.30911581778e-08
1.51225815281e-08
4.11545821284e-09
9.92835909138e-10
1.88521533869e-10
3.08966675901e-05
2.87939949924e-05
2.60361730933e-05
2.27748827751e-05
1.92118752926e-05
1.55742041729e-05
1.20839290584e-05
8.92705609789e-06
6.23277511416e-06
4.070225229e-06
2.45236657276e-06
1.3405067101e-06
6.49760356546e-07
2.69484256122e-07
9.25934094381e-08
2.76429923709e-08
7.98794025717e-09
2.2168575671e-09
5.45583485229e-10
1.05757456102e-10
2.5095990473e-05
2.32645704316e-05
2.08730169832e-05
1.80659640019e-05
1.50324843773e-05
1.19795138711e-05
9.10211196107e-06
6.55575493266e-06
4.44010877239e-06
2.79718323787e-06
1.61624225034e-06
8.41751720797e-07
3.8583859231e-07
1.50282483671e-07
4.90165450027e-08
1.45322750334e-08
4.28326081423e-09
1.21273302957e-09
3.04217258781e-10
6.00841123956e-11
1.98819295366e-05
1.8338398021e-05
1.63307126137e-05
1.39907784215e-05
1.14885173322e-05
9.00504779571e-06
6.70456693207e-06
4.71174414548e-06
3.09868571538e-06
1.88543484806e-06
1.04620978877e-06
5.19917628993e-07
2.25533664746e-07
8.27166379341e-08
2.59491423295e-08
7.75718456311e-09
2.33936905548e-09
6.75356116268e-10
1.72211498023e-10
3.45502265959e-11
1.53220907186e-05
1.40655293868e-05
1.24364954229e-05
1.05500827262e-05
8.55252365596e-06
6.5963189995e-06
4.81464547366e-06
3.30317744005e-06
2.11099790853e-06
1.24202766733e-06
6.62864775642e-07
3.14755333394e-07
1.29366887258e-07
4.49500203772e-08
1.38205815107e-08
4.21928654744e-09
1.30344227245e-09
3.82895423899e-10
9.89333470634e-11
2.00773498381e-11
1.14626991062e-05
1.04754421033e-05
9.19928464186e-06
7.72999350219e-06
6.18827651263e-06
4.69746832098e-06
3.36205164311e-06
2.25250578056e-06
1.39966449909e-06
7.97057183615e-07
4.09669875726e-07
1.86059797907e-07
7.25995928768e-08
2.41708673801e-08
7.44681404197e-09
2.34069714063e-09
7.39896459054e-10
2.20440463954e-10
5.74758819199e-11
1.17313808444e-11
8.31472110537e-06
7.56650745341e-06
6.60183190811e-06
5.49677181116e-06
4.34703714322e-06
3.24862649674e-06
2.28048867117e-06
1.49267471571e-06
9.0241328058e-07
4.97904332122e-07
2.46706053694e-07
1.07225325519e-07
3.9876020985e-08
1.29491993548e-08
4.07781158774e-09
1.32331700091e-09
4.2667744694e-10
1.28369376997e-10
3.35796221778e-11
6.82962432124e-12
5.84627738176e-06
5.29940132439e-06
4.59583669945e-06
3.7934956257e-06
2.96505556978e-06
2.18259068576e-06
1.5036838606e-06
9.62256914917e-07
5.66655140589e-07
3.03326253868e-07
1.45038672476e-07
6.03925913805e-08
2.15680260281e-08
6.9763399621e-09
2.27146125076e-09
7.59247895075e-10
2.48503282813e-10
7.50889472592e-11
1.95501646692e-11
3.90501690622e-12
3.98595816135e-06
3.60089096144e-06
3.10613866516e-06
2.54395803774e-06
1.96713336191e-06
1.42785230602e-06
9.66662706686e-07
6.05745522903e-07
3.48077278719e-07
1.81117039022e-07
8.3704775952e-08
3.34676458016e-08
1.16026030968e-08
3.80125174667e-09
1.28116918803e-09
4.38463067299e-10
1.44825280297e-10
4.36577315226e-11
1.11945743801e-11
2.14646720773e-12
2.63590327847e-06
2.37522462804e-06
2.04030763048e-06
1.66033547196e-06
1.27238260002e-06
9.1254424286e-07
6.08495850595e-07
3.74321434019e-07
2.10457480037e-07
1.06756810673e-07
4.78228941706e-08
1.84261061575e-08
6.257434006e-09
2.08757569621e-09
7.231158874e-10
2.51285929898e-10
8.31549272671e-11
2.47789478203e-11
6.16294730819e-12
1.09577465019e-12
1.69052319472e-06
1.52104722132e-06
1.30286075154e-06
1.055355565e-06
8.03215284932e-07
5.70570841349e-07
3.75701453292e-07
2.27544292379e-07
1.25579481242e-07
6.23149781534e-08
2.71613939258e-08
1.01202457788e-08
3.37325837439e-09
1.1384712041e-09
4.00617865061e-10
1.39975680895e-10
4.59952358247e-11
1.33948175858e-11
3.16567441368e-12
4.99230826479e-13
1.05640095092e-06
9.4933382699e-07
8.11173988163e-07
6.54390384478e-07
4.95038444136e-07
3.48722160668e-07
2.27134350483e-07
1.35706122281e-07
7.36869330192e-08
3.58736932735e-08
1.52884810258e-08
5.52587138201e-09
1.7914132611e-09
6.01541048707e-10
2.12141519075e-10
7.38806077231e-11
2.39264478332e-11
6.74711535678e-12
1.4978764022e-12
2.06494550171e-13
6.63308157642e-07
5.9514233751e-07
5.07126486809e-07
4.07343606769e-07
3.06240158124e-07
2.1391836668e-07
1.37847896306e-07
8.12810712718e-08
4.34562147746e-08
2.07925158531e-08
8.70922544626e-09
3.0773137265e-09
9.5661224e-10
3.13369040635e-10
1.10965067387e-10
3.9165753451e-11
1.27851611861e-11
3.60852054361e-12
7.92503198273e-13
1.0838451499e-13
1.93666077911e-06
6.63218056453e-07
1.44959314498e-06
5.14155193765e-07
1.00413078397e-06
3.67276724534e-07
6.48998396002e-07
2.41937316525e-07
3.95024120094e-07
1.48640090725e-07
2.29872823934e-07
8.66748706322e-08
1.29190359482e-07
4.85881681219e-08
7.10567953557e-08
2.65599136733e-08
3.86024546184e-08
1.4317635999e-08
2.09020818685e-08
7.69126345815e-09
1.13161013286e-08
4.13427895014e-09
6.13997630351e-09
2.22995348146e-09
3.34135583886e-09
1.20838962854e-09
1.82268128024e-09
6.57759913e-10
9.96582677546e-10
3.5970770978e-10
5.46097742135e-10
1.97703322693e-10
3.00163317674e-10
1.09321137089e-10
1.65957822368e-10
6.09483382771e-11
9.24907263721e-11
3.43270566982e-11
5.20553387926e-11
1.95593910943e-11
2.96415586881e-11
1.12854803998e-11
1.70663451387e-11
6.58287797565e-12
9.91663364922e-12
3.86941953757e-12
5.79885978662e-12
2.2797451684e-12
3.39094724468e-12
1.33567223035e-12
1.95618592371e-12
7.66222993117e-13
1.09056694861e-12
4.19992016494e-13
5.69871954993e-13
2.12315766322e-13
2.66802654969e-13
9.46325540662e-14
1.07574099314e-13
3.62337897419e-14
4.06103870734e-14
1.35394962999e-14
2.28776208827e-14
8.07786484829e-15
)
;

boundaryField
{
    inletfuel
    {
        type            fixedValue;
        value           nonuniform 0();
    }
    inletair
    {
        type            fixedValue;
        value           nonuniform 0();
    }
    outlet
    {
        type            zeroGradient;
    }
    axis
    {
        type            empty;
    }
    leftside
    {
        type            zeroGradient;
    }
    burnerwall
    {
        type            zeroGradient;
    }
    front
    {
        type            wedge;
    }
    back
    {
        type            wedge;
    }
    procBoundary1to0
    {
        type            processor;
        value           nonuniform List<scalar> 
27
(
0.000266370513638
0.000266775099358
0.000267236059669
0.000267671280359
0.000480441169271
0.000521281086899
0.000540595144921
0.000471191092109
0.000251482441656
7.54582699305e-05
1.22102986752e-05
0.000268411637154
0.000268578973009
0.000267987485942
0.000267639597701
0.000269523591774
0.000275525744772
0.000286404048946
0.000301107099913
0.000318612772959
0.00033842613587
0.00036156288291
0.000387849768387
0.000416277877415
0.000416277877415
2.47722436114e-06
8.13570744667e-07
)
;
    }
}


// ************************************************************************* //
