/*--------------------------------*- C++ -*----------------------------------*\
  =========                 |
  \\      /  F ield         | OpenFOAM: The Open Source CFD Toolbox
   \\    /   O peration     | Website:  https://openfoam.org
    \\  /    A nd           | Version:  7
     \\/     M anipulation  |
\*---------------------------------------------------------------------------*/
FoamFile
{
    version     2.0;
    format      ascii;
    class       volScalarField;
    location    "0.04";
    object      k;
}
// * * * * * * * * * * * * * * * * * * * * * * * * * * * * * * * * * * * * * //

dimensions      [0 2 -2 0 0 0 0];

internalField   nonuniform List<scalar> 
815
(
0.93114846206
0.936026222775
0.924153307158
0.41598386369
0.417459365668
0.419257231067
0.390873194247
0.392449587932
0.395415165127
0.394652176166
0.396172880492
0.398857767723
0.393186271404
0.394488730258
0.396674146891
0.384958376865
0.386166386112
0.388202367974
0.373292943922
0.374452279099
0.376410107372
0.358383336278
0.35957276291
0.36164246449
0.342320038332
0.343531863061
0.345670165149
0.325261297661
0.326507594257
0.32877579117
0.308078739276
0.309331280185
0.311636610728
0.290486522788
0.291728917457
0.294056703862
0.272656969216
0.273871169672
0.276172005762
0.254620661493
0.255768756928
0.257957525385
0.236306802504
0.23738429293
0.239460229817
0.218139754451
0.21910319895
0.220970554083
0.200176476612
0.201025395243
0.202683219237
0.182923819543
0.183632974024
0.185032843337
0.166712621364
0.167273219983
0.168396019166
0.151929167652
0.152340541315
0.153182061585
0.138916501932
0.139187913112
0.139765719524
0.127937123667
0.128082980029
0.128422942888
0.119085341374
0.119131099766
0.119281651272
0.112349789237
0.11231943043
0.112325540729
0.107526367329
0.107442089977
0.107346303441
0.104263585194
0.104144616707
0.103982195753
0.102078840062
0.101937620387
0.101732064356
0.100467435891
0.100311490726
0.100078956146
0.0992565018717
0.0990863415004
0.098836902977
0.102555386853
0.102417580961
0.102227041766
0.169248844323
0.169277756844
0.16928775769
0.903295199522
0.421261302644
0.399132302281
0.402364502623
0.399780188398
0.39120558432
0.379388401786
0.364762580253
0.348901336919
0.332141747644
0.315036116431
0.297460103764
0.27949270281
0.26112317027
0.242424385127
0.223649381204
0.205049233944
0.187035718783
0.170019874251
0.154431379302
0.140668345458
0.129023069685
0.119639825821
0.112500026406
0.107392283822
0.103944816515
0.101642881917
0.0999576454128
0.0986943593517
0.102095339223
0.169240942996
0.390328127862
0.447602227311
0.473776494009
0.372800679234
0.21169886477
0.213717851307
0.555478103347
0.848873299874
0.758992072686
0.66527758117
0.581881273048
0.512688798392
0.455271884001
0.406531223338
0.365174205351
0.331487224608
0.309597767755
0.303981733067
0.313357395051
0.333030587941
0.358788407383
0.378933327526
0.362439063418
0.284251940624
0.214081212377
0.296789543766
0.754381400463
0.424398695312
0.425325682186
0.418491360958
0.401958832303
0.378003346628
0.350233997078
0.322813233033
0.300379622378
0.286510540735
0.281427792263
0.283730681812
0.291234104158
0.301641991492
0.310990874401
0.309769182338
0.288521884091
0.248981331502
0.250445939955
0.416550124593
0.965202617767
0.405765098643
0.410831113459
0.405807046512
0.388946445371
0.363713855953
0.335971308631
0.310555750221
0.290273907468
0.276102539599
0.267710993903
0.264231732611
0.264314739047
0.265436794757
0.264850338207
0.258533663134
0.24788637938
0.246642298878
0.308739243016
0.556359896581
1.13399494457
0.408614898487
0.413366201343
0.408441273058
0.391960280449
0.366424756182
0.336708336219
0.30764339955
0.282783920345
0.263723248654
0.250438490061
0.24191098783
0.236524948685
0.232509114816
0.228227040733
0.224441834766
0.228208057777
0.260791334493
0.378959526511
0.698377491253
1.25178334816
0.405516679795
0.41019799099
0.405688447984
0.389366820946
0.362823689787
0.330797509613
0.298750373399
0.270779456072
0.248627613571
0.232138959545
0.220189388636
0.211311718686
0.204420076386
0.199801719673
0.201544709426
0.220153730787
0.282617474779
0.451641575425
0.825265925636
1.32279943733
0.396880194331
0.401817571484
0.397841664057
0.381920307105
0.355146366416
0.322036249852
0.28824596504
0.258186662573
0.233799456412
0.214956579527
0.200573092804
0.189491455719
0.181395032737
0.177889087202
0.185204512264
0.217579999799
0.308329616969
0.527287223255
0.946954876024
1.36652541339
0.385120959084
0.390432137865
0.387001826214
0.371547521908
0.344895447915
0.311364201738
0.276646899165
0.245325662178
0.219497451516
0.199134053519
0.183259534392
0.171008145877
0.162573489965
0.16061089769
0.172882324566
0.217523321202
0.335425587341
0.603655145556
1.06471318305
1.4026714098
0.370815177524
0.376733651511
0.374093004382
0.359449257263
0.333418707982
0.300118191127
0.265179459732
0.233272544841
0.206643065156
0.185406481639
0.168725362174
0.155942893646
0.147593842302
0.147058279741
0.163688868134
0.220048100119
0.366279087126
0.688072730256
1.18547497483
1.44147514666
0.355221225868
0.361699423302
0.35981139349
0.346048912912
0.320876454833
0.288229955822
0.253620175382
0.221725665722
0.194893172995
0.173380668272
0.156484780752
0.143686550879
0.135724127156
0.13649885687
0.156901146391
0.224477918602
0.401129160036
0.782843731941
1.31172694437
1.48731179358
0.33873553216
0.345697993972
0.344519405546
0.331711894395
0.307626985366
0.276022411098
0.242240502793
0.210885218645
0.184363098782
0.163054748846
0.146383400623
0.133936093575
0.126571410734
0.128525077104
0.15240687233
0.231832391142
0.443699197669
0.89306997862
1.44551441383
1.54196090856
0.321712416431
0.328925927449
0.328270305388
0.31633790343
0.293437428758
0.263156838502
0.230622898735
0.200300599299
0.174578359594
0.153929967174
0.137900850933
0.126146852792
0.119571668298
0.122664499728
0.149968953963
0.242583564325
0.496692412695
1.0203697966
1.58582161704
1.60565759713
0.304131402188
0.311399857959
0.311099469547
0.299981954625
0.278358709659
0.249656541587
0.21875043795
0.189893964186
0.165403958774
0.145804105081
0.130738489533
0.119917608612
0.114268668119
0.11862947512
0.149836529592
0.258545100585
0.563665039413
1.16546143109
1.73235081804
1.67818823364
0.285987998985
0.293079366201
0.292951441729
0.282577703053
0.262315789411
0.235429436074
0.206505072366
0.179512507466
0.156639968772
0.138420773145
0.12456860261
0.114871515561
0.11031254316
0.116198175267
0.152334908752
0.281608670529
0.648503919881
1.32884370138
1.88560266429
1.75956318847
0.267302205102
0.274018552759
0.273919642961
0.264250207438
0.245439677885
0.220593412452
0.193955773787
0.169163402306
0.148212306435
0.131625752407
0.119196328
0.110775108969
0.107438682635
0.11521686496
0.158010303308
0.314588764036
0.755436534815
1.51051527923
2.04612531792
1.84949034819
0.248171866243
0.25432431099
0.254133516167
0.245159629843
0.227911838349
0.205306496467
0.181212941414
0.158883166298
0.140100586127
0.125360090027
0.114506099174
0.107449510524
0.105446721389
0.115664416696
0.167721345909
0.360568221884
0.887909117341
1.70962102601
2.2150348975
1.94853994868
0.228828159763
0.234271452054
0.233914735728
0.225658933733
0.210082805056
0.189885308943
0.16852334799
0.148846090703
0.132409097596
0.119651119707
0.110446929268
0.104778574941
0.104225390195
0.117704232205
0.182860699197
0.423519774966
1.04898353875
1.92593424968
2.39423655936
2.05734220177
0.209586043661
0.214219167834
0.21366610923
0.206173931719
0.192367726901
0.174696973571
0.156188082612
0.139276577301
0.12527349012
0.114543914504
0.106982162475
0.102680109368
0.103744633155
0.121715737193
0.205515715521
0.508623577351
1.24167175273
2.15983909193
2.58557334378
2.17698802882
0.190855806538
0.194626584536
0.193884590839
0.187212011471
0.175251110464
0.160170001675
0.144550731002
0.130416192537
0.118830937885
0.110080372721
0.104084173976
0.101109552239
0.104098224593
0.128494507331
0.238725354575
0.621951217227
1.46792497097
2.41256449027
2.79156142471
2.3086068613
0.173102616623
0.176018922955
0.175131282201
0.169333714574
0.159250892935
0.14674293383
0.133943745603
0.122481505877
0.113191808339
0.106288919004
0.101733272574
0.100069823012
0.105532042083
0.139372483217
0.287073072084
0.770991358835
1.72971351448
2.68669307381
3.01498414004
2.45348360735
0.156798399716
0.158923247457
0.157957250775
0.15307135973
0.144835812242
0.134787245941
0.124630071083
0.115634527535
0.10843346804
0.103184135166
0.099924330498
0.0996401781894
0.108578874559
0.156702610358
0.357664229297
0.964688083571
2.0294189082
2.98560915024
3.25874592041
2.61233406796
0.142383184476
0.143823536885
0.142854226748
0.13887664339
0.132379606761
0.124581256371
0.116794483961
0.109978589216
0.104596006356
0.100770353196
0.0986807524231
0.100038106771
0.114325584808
0.184745844811
0.461382362591
1.21331767919
2.3706813211
3.31421307338
3.52590642622
2.78550559732
0.13017980968
0.131070631898
0.130164925479
0.127047028494
0.12210887555
0.116276903618
0.110524018872
0.105549133529
0.101681438643
0.0990480138316
0.0980848332398
0.101747303987
0.124906565868
0.230994022365
0.613824950743
1.52745297463
2.7583506604
3.67718082689
3.81819079397
2.97105709732
0.120352697124
0.120833733082
0.120039317264
0.117691660776
0.114084860874
0.109891209669
0.105804260318
0.102315086363
0.0996586125678
0.0980276709992
0.0983432097888
0.105778060924
0.144409807558
0.307910946024
0.834781522878
1.91549441902
3.1963099583
4.07757873056
4.13487543764
3.16414565771
0.11288149986
0.113081856407
0.112425280025
0.110731172528
0.108206294015
0.105314538709
0.102528207375
0.10018476681
0.098472332881
0.097758395149
0.0998939890237
0.114113961031
0.180211020432
0.434063675614
1.14354966683
2.37953156733
3.68456440343
4.51296707751
4.46916427347
3.35126970504
0.107545011527
0.107574734709
0.107064968103
0.105899000113
0.104210223729
0.102303611903
0.10048633305
0.0989925497793
0.0980252086446
0.0983214032149
0.103471943745
0.13000563042
0.243097557112
0.629364774049
1.54640363127
2.90759076733
4.21125642865
4.9698763981
4.80613868882
3.50631002805
0.103951993241
0.103894741338
0.103525016786
0.102765356683
0.101692623989
0.100495938029
0.0993691881732
0.0984901569102
0.0981549584936
0.0997720057088
0.109896358189
0.15711368162
0.343224444162
0.901739335855
2.02260876791
3.46708059016
4.7445029237
5.41495270603
5.10907553548
3.5807388327
0.101563161201
0.101472922462
0.101224507579
0.100761419493
0.100122019882
0.0994147407444
0.0987598528633
0.0983175386604
0.098546693654
0.101809932762
0.118865022961
0.195253476871
0.477276049312
1.22472546813
2.51262062836
3.99536257328
5.22095936771
5.78282363889
5.31081723763
3.50250558063
0.0998264681042
0.099728133016
0.0995722803925
0.099312751074
0.0989592402606
0.0985704499247
0.0982210665115
0.0980743654981
0.0987174022214
0.103383253525
0.127030222449
0.233504792496
0.613571648679
1.52805103408
2.92296032901
4.39505437951
5.53332857553
5.95345108012
5.28982417507
3.18689168895
0.0985287016321
0.0984274318273
0.0983297271638
0.0981935240152
0.098014695096
0.0978218775742
0.0976544688826
0.0976655238307
0.0984128953064
0.103314863358
0.129046084423
0.25132701087
0.694852684984
1.71061145803
3.13294373707
4.52579109333
5.5072519162
5.72866609258
4.86720964109
2.5898767737
0.101924843996
0.10181205881
0.101730391143
0.101644866276
0.101543098958
0.101441115855
0.101348357423
0.101375826552
0.101871620129
0.105318039738
0.125039917295
0.231561318215
0.661011758164
1.66576683503
2.99435252769
4.17379786592
4.86100522884
4.80293854929
3.83022920228
1.80916688886
0.169107289951
0.168942893638
0.168784348216
0.168625540166
0.168465553875
0.168322687767
0.168207511127
0.16817942405
0.168446845454
0.170309867954
0.181286538696
0.245332478617
0.545183174377
1.32204993044
2.30574362641
3.03088093012
3.26843428048
2.97579748557
2.21085836016
1.14880951521
0.490191852766
0.344710009869
0.565990559548
0.397060291712
0.624063598851
0.447040745448
0.662738691109
0.493904925828
0.687511419961
0.538505040927
0.705556882673
0.582285521011
0.722063771071
0.626582386847
0.741542652957
0.672238182098
0.765866672289
0.719353770476
0.795643569868
0.767754041987
0.830286317131
0.817214063879
0.869647771638
0.867474792757
0.913631039901
0.918435754282
0.962261553976
0.969910018406
1.01577522654
1.02183792983
1.07437576271
1.0742317706
1.13838558265
1.12706687639
1.20854518076
1.18034809272
1.28508978011
1.23401615173
1.36805607335
1.28800380543
1.4574358479
1.34223663422
1.55211748933
1.39658013782
1.65017787231
1.45056050123
1.74792876235
1.50335069847
1.83707013063
1.5525451073
1.89928001432
1.59342540748
1.90786812459
1.6188039685
1.82957061946
1.62027377257
1.64250495148
1.59304117713
1.37123872947
1.5348451366
1.10931724162
1.42778909766
0.953523490276
1.20715227689
)
;

boundaryField
{
    inletfuel
    {
        type            turbulentIntensityKineticEnergyInlet;
        intensity       0.05;
        value           nonuniform 0();
    }
    inletair
    {
        type            turbulentIntensityKineticEnergyInlet;
        intensity       0.05;
        value           nonuniform 0();
    }
    outlet
    {
        type            inletOutlet;
        inletValue      uniform 1;
        value           nonuniform List<scalar> 
26
(
0.169248844323
0.169277756844
0.16928775769
0.169240942996
0.169107289951
0.168942893638
0.168784348216
0.168625540166
0.168465553875
0.168322687767
0.168207511127
0.16817942405
0.168446845454
0.170309867954
0.181286538696
0.245332478617
0.545183174377
1.32204993044
2.30574362641
3.03088093012
3.26843428048
2.97579748557
2.21085836016
1.14880951521
0.953523490276
1.20715227689
)
;
    }
    axis
    {
        type            empty;
    }
    leftside
    {
        type            kqRWallFunction;
        value           nonuniform List<scalar> 
32
(
0.344710009869
0.397060291712
0.447040745448
0.493904925828
0.538505040927
0.582285521011
0.626582386847
0.672238182098
0.719353770476
0.767754041987
0.817214063879
0.867474792757
0.918435754282
0.969910018406
1.02183792983
1.0742317706
1.12706687639
1.18034809272
1.23401615173
1.28800380543
1.34223663422
1.39658013782
1.45056050123
1.50335069847
1.5525451073
1.59342540748
1.6188039685
1.62027377257
1.59304117713
1.5348451366
1.42778909766
1.20715227689
)
;
    }
    burnerwall
    {
        type            kqRWallFunction;
        value           nonuniform 0();
    }
    front
    {
        type            wedge;
    }
    back
    {
        type            wedge;
    }
    procBoundary1to0
    {
        type            processor;
        value           nonuniform List<scalar> 
27
(
5.7200774765
5.71664342179
5.62443042726
5.47150795841
0.411292038002
0.480115761293
0.586118273262
0.532820277252
0.245404409215
0.16354816842
0.403865669533
5.07188694128
4.26505068317
3.2868431013
2.35309069109
1.61996410221
1.12631950782
0.83069407267
0.647869880378
0.525082222774
0.435506437959
0.376050548414
0.348619873013
0.355333405923
0.355333405923
0.407869276312
0.293873673619
)
;
    }
}


// ************************************************************************* //
