/*--------------------------------*- C++ -*----------------------------------*\
  =========                 |
  \\      /  F ield         | OpenFOAM: The Open Source CFD Toolbox
   \\    /   O peration     | Website:  https://openfoam.org
    \\  /    A nd           | Version:  7
     \\/     M anipulation  |
\*---------------------------------------------------------------------------*/
FoamFile
{
    version     2.0;
    format      ascii;
    class       volScalarField;
    location    "0.04";
    object      N2;
}
// * * * * * * * * * * * * * * * * * * * * * * * * * * * * * * * * * * * * * //

dimensions      [0 0 0 0 0 0 0];

internalField   nonuniform List<scalar> 
815
(
0.757540301372
0.757529013123
0.757635332801
0.762913504188
0.76291573391
0.762934622297
0.764304666761
0.764307257921
0.764315246499
0.764922575276
0.764923672213
0.764926624694
0.765226164138
0.765226392047
0.765227153202
0.765389449364
0.765389706515
0.765390413697
0.765502064337
0.76550263855
0.765504001819
0.765599345578
0.765600257477
0.765602343543
0.765692333998
0.765693545529
0.765696282107
0.765784330668
0.76578579927
0.76578908525
0.76587611176
0.765877813199
0.765881583971
0.765968016851
0.765969887268
0.765974034764
0.766059708494
0.766061740694
0.766066208543
0.766151155684
0.766153277962
0.766157956655
0.766241929832
0.766244108762
0.766248905218
0.766331608451
0.766333800852
0.766338622552
0.766419787612
0.766421933576
0.766426664517
0.766505731615
0.766507809987
0.766512366573
0.766588772731
0.766590733725
0.766595018365
0.766667979217
0.766669778825
0.76667370077
0.766742204494
0.766743810079
0.766747296632
0.766810245566
0.766811625008
0.766814622032
0.76687090555
0.766872047052
0.766874532906
0.766923207059
0.766924125026
0.766926116613
0.7669666755
0.766967388158
0.766968928074
0.767001405939
0.767001939462
0.767003090073
0.767028091265
0.76702847401
0.767029300607
0.767047835382
0.767048096342
0.767048663905
0.767061907319
0.767062075059
0.767062446458
0.76707145511
0.76707156181
0.767071799121
0.767077409013
0.767077478139
0.767077631846
0.757811444392
0.762962534563
0.764326182742
0.764930646354
0.765228219718
0.765391416828
0.765505913116
0.765605265915
0.765700113062
0.765793685549
0.76588684845
0.76597981615
0.766072417038
0.766164442126
0.766255542296
0.766345280395
0.766433191915
0.766518644241
0.766600913629
0.766679090963
0.76675208332
0.766818735095
0.766877945947
0.766928853805
0.766971047205
0.767004673658
0.767030439164
0.767049447255
0.767062960567
0.767072128252
0.767077844026
0.762208000977
0.762016729657
0.762248986536
0.763436920106
0.765293395554
0.766412802694
0.766151709787
0.758228930357
0.758871379614
0.759561270168
0.760222702409
0.760829095745
0.761390288482
0.761918282074
0.762398746292
0.762812943369
0.763132736079
0.763318523348
0.763351880424
0.763280275271
0.763183469544
0.763234852248
0.763699283156
0.764667296625
0.765801503783
0.766376300419
0.765960634671
0.763024860633
0.763126802793
0.763251974177
0.763393911513
0.763543211534
0.763696676915
0.763841703028
0.76396251844
0.764044450413
0.764082176461
0.764079017616
0.764045260974
0.764013236838
0.764049061101
0.764258413162
0.764738429075
0.765431069841
0.766092599506
0.766286666226
0.765781775017
0.764349166895
0.764389255753
0.764437515141
0.7644881495
0.764533015818
0.764567422182
0.764589584914
0.764600234503
0.764601785727
0.764597770051
0.76459415169
0.764602740524
0.764648374818
0.764773478529
0.765026055345
0.765420728025
0.765876922257
0.76622382904
0.766167152553
0.765634397402
0.764938819879
0.764951680975
0.764964290623
0.764973460036
0.764976743117
0.764974194464
0.764968795706
0.764965505985
0.764969636887
0.764985747797
0.765018755568
0.765077105454
0.765176104405
0.765336537771
0.765571736629
0.76586379441
0.766137344077
0.766259495103
0.766040406294
0.76551724808
0.76523031481
0.765232853914
0.765234100754
0.765233010826
0.765229591994
0.765225908869
0.765226549586
0.765237521048
0.765264317662
0.765310543871
0.765378713295
0.765472498327
0.765597975803
0.765760278228
0.765954674245
0.766151219223
0.766284860058
0.766247657215
0.765929631141
0.765424368384
0.765393484693
0.765396835565
0.765400386796
0.765403969919
0.765408469406
0.765416604705
0.765433289004
0.765464459011
0.765514952527
0.765586925306
0.765680290061
0.76579426462
0.765927781788
0.766076398595
0.766225721014
0.766342105592
0.766367228137
0.766214392239
0.76583665443
0.765347856603
0.765509972171
0.765517729841
0.765527831817
0.765540422735
0.765556644886
0.765579250908
0.765612826508
0.765662630857
0.765732442814
0.765822898737
0.765931644379
0.766054403193
0.766185185865
0.766313801029
0.766420961611
0.766472062419
0.766413179742
0.766177206083
0.765760255494
0.765281415381
0.765611536532
0.765624070363
0.765641023104
0.765662688962
0.765690162052
0.765725912192
0.765773850647
0.765838251912
0.765921728396
0.766023609543
0.766139816194
0.766263707198
0.766386167724
0.766493699314
0.766564260646
0.766562564491
0.766437334693
0.766139887417
0.765695089556
0.765219593288
0.765708382218
0.765725211468
0.765748265413
0.765777868632
0.765814977368
0.765861618439
0.765920858558
0.765995845605
0.766088009209
0.766195540144
0.766313211156
0.766432953428
0.766543985421
0.766631112829
0.766670860835
0.766626690363
0.766448965964
0.76610368833
0.765636728234
0.765158809855
0.765803650769
0.76582410636
0.765852256662
0.76588839396
0.765933249225
0.76598832272
0.766055808751
0.76613771937
0.766234355835
0.766343036615
0.766457823768
0.766570007026
0.766668118122
0.766736308689
0.766750174162
0.766671269554
0.766450624722
0.766066074587
0.765580425516
0.765095892204
0.765898260288
0.765921715208
0.765954004507
0.765995325218
0.766046151097
0.766107429863
0.766180472014
0.766266206048
0.766363925222
0.76647025708
0.766578934045
0.766681163672
0.766765589484
0.766816462962
0.766808643506
0.766700946898
0.766443090325
0.766024743113
0.765522662895
0.765028503512
0.765992366459
0.766018185207
0.766053678243
0.766098910383
0.766154041113
0.766219468382
0.766295663251
0.766382552647
0.766478593184
0.766579921184
0.766680216535
0.766771062001
0.766841702198
0.766876835911
0.766850490413
0.766717756551
0.766425991349
0.765977781888
0.765460775262
0.764954986706
0.766085875135
0.766113471826
0.766151288224
0.766199217902
0.766257099574
0.766324790888
0.766401973719
0.766487733358
0.766579823832
0.766674125898
0.766764554637
0.766843313287
0.766900513421
0.766921401628
0.766878751242
0.766722838753
0.766398498566
0.765923603669
0.765392605342
0.764874236964
0.76617850175
0.766207267488
0.766246543692
0.76629601712
0.766355189317
0.766423385697
0.766499630207
0.766582286743
0.766668641209
0.766754510379
0.766834223323
0.766900802092
0.766945291108
0.766953331772
0.766895632962
0.766716254662
0.766359545899
0.765860796835
0.765316620309
0.764785529789
0.766269918332
0.766299252068
0.766339135963
0.766389039865
0.766448117689
0.766515230011
0.766588824122
0.76666674306
0.766745987742
0.766822496619
0.766891184921
0.766945965075
0.766978759798
0.766975148727
0.766902647915
0.76669791738
0.766308510626
0.765788727419
0.765232126055
0.764688589287
0.766359687293
0.7663889935
0.766428647632
0.766477900682
0.766535595874
0.76660018091
0.766669660136
0.766741522808
0.766812677534
0.766879373442
0.766937202542
0.76698095535
0.767003182986
0.766988731248
0.766900498114
0.766667407072
0.766245304275
0.76570703357
0.765138643798
0.764583385868
0.766447310276
0.766475975632
0.766514582482
0.766562167803
0.766617291658
0.766678072714
0.766742212154
0.766807029734
0.766869526649
0.766926381911
0.766973904755
0.767007630141
0.767020379384
0.766995378337
0.766889156762
0.766623840564
0.766169866562
0.765615578792
0.765036047292
0.7644702382
0.766532200175
0.766559642002
0.766596414701
0.766641373515
0.766692854474
0.766748746661
0.766806592171
0.766863722869
0.766917386603
0.76696475633
0.767002786806
0.767027560293
0.767031692852
0.766995672253
0.766867969655
0.766566367436
0.766082420013
0.765514347218
0.764924503745
0.764349633744
0.766613626241
0.76663928147
0.766673483039
0.766714953872
0.766761878745
0.766812037371
0.766862961486
0.766912139103
0.766957148862
0.766995652119
0.767025145632
0.767041991779
0.767038012972
0.766989537833
0.766835525341
0.766494045389
0.765983067386
0.765403019914
0.764804487033
0.764222331847
0.766690700598
0.76671406471
0.766745056119
0.766782326977
0.766824003695
0.766867870955
0.766911580842
0.766952867644
0.766989681817
0.767020123826
0.767042071703
0.767051851395
0.767039710089
0.766976042821
0.766789472535
0.766405807843
0.765871629742
0.76528159868
0.764676547597
0.764089617652
0.766762382479
0.766783055578
0.766810350141
0.766842916682
0.766878918064
0.766916249385
0.766952771331
0.766986522113
0.767015811294
0.767039095026
0.767054441639
0.767057705263
0.767036471839
0.766953025354
0.766726422948
0.766300445504
0.765747646716
0.765150216542
0.764541838436
0.763953743652
0.766827582479
0.766845309187
0.766868618457
0.766896228256
0.766926420943
0.766957281309
0.766986937908
0.767013740089
0.767036318283
0.767053371487
0.767062903682
0.767059682077
0.767027061689
0.766916778557
0.766642385083
0.7661769892
0.765610714547
0.765009816422
0.764402596811
0.763818182435
0.766885288671
0.766899988265
0.766919252297
0.766941920649
0.766966461198
0.766991199809
0.767014553608
0.76703517131
0.767051931413
0.767063624488
0.76706783823
0.767057330958
0.767008959446
0.766862011769
0.766533872176
0.766035731662
0.765462171964
0.764863243245
0.764263486186
0.763688213956
0.766934739875
0.766946515575
0.766961901869
0.766979900955
0.766999204152
0.767018406249
0.767036203949
0.767051504486
0.767063342364
0.767070389852
0.767069295141
0.767049392718
0.76697806347
0.766782854683
0.766400264929
0.765879649586
0.765306246137
0.764716567165
0.764131664282
0.763570250836
0.766975601144
0.76698470788
0.766996575275
0.767010385309
0.767025064345
0.767039474434
0.767052569495
0.76706345202
0.767071194975
0.767074068446
0.76706702558
0.767033950797
0.766929852003
0.766677075728
0.766247773028
0.765717490911
0.765153181283
0.764581273819
0.764017933199
0.763471480533
0.767008075362
0.767014871623
0.767023707619
0.767033940546
0.767044726162
0.76705517006
0.767064442566
0.767071774267
0.767076133146
0.767075053162
0.767060841397
0.767009598262
0.766863026074
0.766551509836
0.766091220034
0.76556462811
0.765018965391
0.764472648133
0.763934243723
0.763397821573
0.767032886509
0.767037774397
0.767044119325
0.767051436492
0.767059089271
0.767066392868
0.767072689278
0.767077271475
0.767078895288
0.767074094721
0.767051747031
0.766978519275
0.766785628042
0.766425999067
0.765954041584
0.765443222687
0.76492443352
0.764408144669
0.763892399329
0.763352201947
0.767051136365
0.767054516656
0.767058902495
0.767063947797
0.76706918602
0.767074110841
0.767078199725
0.767080783771
0.767080417814
0.767072731658
0.767043330322
0.766949783791
0.766717517208
0.766328677108
0.765862057332
0.765375890257
0.764888172463
0.764400369444
0.763897871591
0.763330683086
0.767064076082
0.767066321032
0.76706923816
0.767072589242
0.767076049982
0.767079256816
0.767081805926
0.767083095657
0.767081664097
0.76707285792
0.767040690218
0.766936643134
0.766682896496
0.766285590942
0.765835970402
0.76537800045
0.764919341663
0.764451832317
0.763946410396
0.763322290933
0.76707284347
0.767074291707
0.767076177144
0.767078341772
0.767080566728
0.767082603731
0.767084165664
0.767084794693
0.767083321559
0.76707589498
0.767048348212
0.766952091498
0.76670187339
0.76631108331
0.765880512796
0.765445094289
0.765003861138
0.764540310278
0.764014477846
0.763310655711
0.767078306742
0.767079247676
0.767080473184
0.767081878185
0.767083316419
0.767084621927
0.767085602015
0.767085946708
0.767084859056
0.767079718804
0.767060680444
0.766988972489
0.766771333518
0.766392353469
0.7659670565
0.76553512624
0.76508917685
0.764609860937
0.764052455476
0.763288694251
0.765094214309
0.764802694545
0.765119816408
0.76486838882
0.765118457228
0.764900835482
0.765093895186
0.76490262393
0.765055089286
0.764882734412
0.765009211379
0.764848835264
0.764958718308
0.764805230681
0.764904898872
0.764754254392
0.76484731019
0.764696724669
0.764785363476
0.764632771983
0.764717557313
0.764561770653
0.764642992
0.764483231234
0.764561013139
0.764396816521
0.764471170491
0.764302315167
0.764373339545
0.764199748476
0.764267538607
0.764089292579
0.764153979807
0.763971294376
0.764033241027
0.763846314901
0.763905915428
0.763715114477
0.763772923695
0.763578745409
0.763635804812
0.763438787053
0.763496613262
0.763297259627
0.763358248945
0.763156725178
0.763224401712
0.763019752036
0.76309839212
0.762888161246
0.762981707633
0.762761564683
0.762873383474
0.762637017234
0.762769544108
0.76251019281
0.762664800174
0.762380464389
0.762559513744
0.762259244789
0.762469018812
0.762171430666
0.762422560066
0.762136553334
)
;

boundaryField
{
    inletfuel
    {
        type            fixedValue;
        value           nonuniform 0();
    }
    inletair
    {
        type            fixedValue;
        value           nonuniform 0();
    }
    outlet
    {
        type            zeroGradient;
    }
    axis
    {
        type            empty;
    }
    leftside
    {
        type            zeroGradient;
    }
    burnerwall
    {
        type            zeroGradient;
    }
    front
    {
        type            wedge;
    }
    back
    {
        type            wedge;
    }
    procBoundary1to0
    {
        type            processor;
        value           nonuniform List<scalar> 
27
(
0.727392870931
0.727540817023
0.7282008906
0.729232298698
0.76088227061
0.760701095011
0.760557822483
0.761639201868
0.764547225425
0.766378016208
0.766338580357
0.731626409406
0.735979717783
0.741032465958
0.74597749061
0.750239272721
0.753598478983
0.756108756807
0.758052748833
0.759570562766
0.760761126881
0.76163026632
0.762151644362
0.762324997497
0.762324997497
0.765070361219
0.764723653991
)
;
    }
}


// ************************************************************************* //
