/*--------------------------------*- C++ -*----------------------------------*\
  =========                 |
  \\      /  F ield         | OpenFOAM: The Open Source CFD Toolbox
   \\    /   O peration     | Website:  https://openfoam.org
    \\  /    A nd           | Version:  7
     \\/     M anipulation  |
\*---------------------------------------------------------------------------*/
FoamFile
{
    version     2.0;
    format      ascii;
    class       volScalarField;
    location    "0.04";
    object      nut;
}
// * * * * * * * * * * * * * * * * * * * * * * * * * * * * * * * * * * * * * //

dimensions      [0 2 -1 0 0 0 0];

internalField   nonuniform List<scalar> 
815
(
0.000311408523534
0.000311694710982
0.000310282221965
0.000335311093295
0.000335531595518
0.000338381787069
0.000463655971247
0.000464507079333
0.000466609791375
0.000576775881042
0.000577437775243
0.000578845527009
0.000659105443456
0.000659110817484
0.000659026545982
0.000687487923759
0.000687146963199
0.00068627842714
0.000684694393228
0.000684304240343
0.000683287767223
0.000669083826279
0.000668789037113
0.000667992345728
0.000649228159188
0.000649049692561
0.000648496175536
0.000627186816875
0.000627143874104
0.00062691855598
0.000604275196667
0.00060435183066
0.000604387263943
0.000580342961786
0.000580529981299
0.000580825601465
0.000555560123796
0.000555847124978
0.0005563727345
0.0005300258297
0.000530387090814
0.000531071775945
0.00050376230887
0.000504193166493
0.000505041842753
0.000477396631232
0.000477859331209
0.000478778276114
0.000451275854646
0.000451759577553
0.000452734359024
0.000426301908095
0.000426773862558
0.000427738524313
0.000403290845753
0.000403728851447
0.000404636062915
0.000383166664456
0.0003835526489
0.000384363393689
0.000366790951757
0.000367115196806
0.000367809538469
0.000354821227238
0.000355077790458
0.000355641620134
0.000347475351144
0.000347668440169
0.000348112773848
0.00034449810316
0.000344634753435
0.000344970504026
0.000345039215663
0.00034512750668
0.000345366177768
0.000347815707226
0.000347862668148
0.000348014522868
0.000351286361161
0.000351294488195
0.000351362728362
0.000353319806249
0.000353286949135
0.000353271435618
0.000342490855313
0.000342370568626
0.000342208635171
0.000242074433013
0.000241673217545
0.000241143200077
0.000142286968893
0.000142158764096
0.000142001942338
0.000307921910971
0.000342530795205
0.000469466217047
0.000580869073861
0.000659153078554
0.000685383656511
0.000682231375737
0.000667222916294
0.000648075611378
0.000626919033785
0.000604739251168
0.000581519195603
0.000557346523491
0.000532262690508
0.000506412689919
0.000480239086755
0.000454241651569
0.000429212530863
0.000406019693515
0.000385611902925
0.000368898167666
0.000356560853803
0.000348873597185
0.000345585202857
0.000345848696959
0.000348375689942
0.000351608267691
0.000353404241821
0.00034218696323
0.000240816120768
0.00014188303779
0.000519495831593
0.000571868267879
0.000570281772506
0.000456984467524
0.000309166280848
0.000337071268592
0.000634139917142
0.000302901492769
0.00029692937002
0.000294852087407
0.0002964557991
0.000298486288785
0.000298334939733
0.00029740939006
0.000300385051311
0.000314196429242
0.000344808942249
0.000390570944556
0.00043651071136
0.000474067322306
0.000499366460741
0.00050390378685
0.000468398295037
0.000387143191577
0.000333138802514
0.000425302110835
0.000813907436266
0.000351740793778
0.000363620341231
0.000371743717305
0.000373270674127
0.0003693121561
0.000364722795041
0.000364307919522
0.000371756742835
0.000387290937364
0.000407047610906
0.000426253092028
0.000441014137554
0.000449760679524
0.000450191400441
0.000436663465948
0.000407236281857
0.000374075554054
0.000390486719169
0.00055992083013
0.00102089342967
0.0004752814174
0.00048215359736
0.000484547757797
0.000480155272383
0.000469654891022
0.000456524974646
0.00044444754024
0.000435536703255
0.000429729985104
0.000425654716739
0.000422132556825
0.000418287735029
0.000412673511342
0.000404243074998
0.00039250910801
0.000384020374356
0.000396231264903
0.000474703067115
0.000730920186325
0.00121059960026
0.000585028079559
0.000588631887481
0.000585425594879
0.00057212458252
0.00054900074823
0.000519679294409
0.000489001397122
0.000460900711969
0.000437283690701
0.00041830122635
0.000403173520431
0.000390767247013
0.000380262554594
0.000371934864405
0.000369784520422
0.000384282751647
0.000436459282011
0.000579461116185
0.000918548714366
0.00136647999636
0.000659603083978
0.000656560176367
0.000644900858463
0.000621381137133
0.000586396486166
0.000544147346683
0.000500767794145
0.000461543608464
0.000429023533801
0.000403229837841
0.000383027622324
0.000367273973351
0.00035590807135
0.000351263319381
0.000360368917473
0.000396030833155
0.000485673767817
0.000694818034763
0.00110155295452
0.00148708087203
0.000683855593272
0.000677467789962
0.000661937287163
0.000634066460477
0.000594148185187
0.000546466447002
0.000497664190174
0.000453663490857
0.000417345717533
0.000388689035377
0.000366469225204
0.000349806722833
0.000339459302188
0.000339075001974
0.000357552161232
0.000411683261931
0.000539560504239
0.000817715593135
0.00128329461431
0.00158271605556
0.000680417828495
0.00067370835735
0.000657837209606
0.000629449478872
0.000588644982593
0.000539607913419
0.00048916875078
0.000443619112798
0.000406126467542
0.000376769071526
0.000354347998299
0.000338166762036
0.000329350967996
0.000332344076162
0.000357451720009
0.000427554237728
0.000594866299342
0.000943551565587
0.00146164569386
0.00166802478133
0.000665983603474
0.000660318398447
0.000645693963921
0.000618569548149
0.000578816168065
0.000530419763895
0.000480214746638
0.000434732259071
0.000397442243042
0.000368606353107
0.000347054760122
0.000332051281071
0.000324655811346
0.000329500203118
0.000358794068172
0.000444175763959
0.000654146106108
0.00107833010868
0.00163964665418
0.00175016093964
0.000647564766481
0.000643295181043
0.000630370173511
0.000605116072258
0.000567211154887
0.00052043260298
0.000471520101054
0.000427131368838
0.00039099327134
0.000363569198214
0.000343680317525
0.00033033489903
0.000324107492311
0.00032937849633
0.000360838730385
0.000461182324571
0.00071775239634
0.00122364691861
0.00181820737419
0.00183428063776
0.000627255526051
0.00062450988438
0.000613479816216
0.000590435107145
0.0005548977434
0.000510428037884
0.000463590269152
0.000421052002818
0.000386749631237
0.000361339012548
0.000343603532936
0.000332149895475
0.000326759195733
0.000331247889512
0.000363779955403
0.000480576834209
0.000790582566766
0.0013839090271
0.001998307324
0.00192148156064
0.000605801002715
0.000604467029803
0.000595290145989
0.000574539810863
0.000541651406245
0.000499977502332
0.000455839445903
0.000415808800129
0.000383918500417
0.000360976120818
0.000345709228088
0.000336212465262
0.000331291629447
0.000334210440631
0.000367630529212
0.000503671263389
0.000876515118184
0.00156006908444
0.00217942088769
0.00201242786622
0.0005832700949
0.000583242870032
0.00057585262034
0.000557449066233
0.000527437482881
0.000488974862303
0.000448083583748
0.000411117941554
0.000382096690274
0.000361896077392
0.000349132617977
0.000341358991677
0.000336455756537
0.000337603917145
0.000373043262719
0.000533599144967
0.000980169263749
0.00175193513608
0.00236208588327
0.00210743716874
0.000559656544622
0.000560760545223
0.000555036704751
0.000538981630594
0.00051202605662
0.0004771390267
0.000439990524185
0.00040658532047
0.000380788722609
0.000363431911726
0.000352959364053
0.000346477648465
0.000341239216153
0.000340945723023
0.00038079650265
0.000573583304578
0.00110609931519
0.00195905188391
0.0025476150937
0.00220679745144
0.000535010495644
0.000537073935365
0.000532895512511
0.000519180677815
0.000495428260148
0.000464435169826
0.000431443633848
0.000401992446902
0.000379631513278
0.000365043881125
0.000356509290823
0.000350825049548
0.000345008970773
0.000344045282316
0.000392049075436
0.00062798883518
0.00125862973439
0.00218073882935
0.00273727600464
0.00231040421633
0.000509493235625
0.000512320255024
0.000509546396263
0.000498150894917
0.000477729959071
0.000450885407257
0.000422373870204
0.000397144707301
0.000378315374224
0.000366330938111
0.000359311876181
0.000353960893848
0.000347507778071
0.000347070026122
0.000408516876949
0.00070134227441
0.00144049984043
0.00241580375612
0.00293268956787
0.00241895854882
0.000483492016253
0.000486882815894
0.000485375211534
0.000476267665538
0.000459262997219
0.000436742579129
0.000412908855694
0.000392033873807
0.000376702456342
0.000367057212078
0.000361130586465
0.000355775298445
0.00034880945401
0.00035055040644
0.000432767879605
0.0007989412603
0.00165323947916
0.00266392856627
0.00313567320605
0.00253300385963
0.00045755549985
0.000461318036285
0.000460938960167
0.000454070248425
0.000440513286239
0.000422390070552
0.000403294437708
0.00038674920623
0.000374735144863
0.000367095045162
0.000361903754778
0.000356374969793
0.000349188997227
0.000355419655248
0.000468447244021
0.00092706685274
0.00189779316566
0.00292557896399
0.00334772191603
0.00265344555139
0.000432440239361
0.000436386766404
0.000437000140075
0.000432296183108
0.000422150654376
0.000408374962206
0.000393901912066
0.000381465117499
0.000372437677319
0.000366437600334
0.000361723740861
0.000355987356077
0.000349041282105
0.0003632576886
0.000520557451839
0.00109222123347
0.00217374377579
0.00320197695705
0.00357041498929
0.00278083685057
0.000409048780548
0.000413023457079
0.000414499508013
0.000411850288976
0.000404983295621
0.000395343021152
0.000385163596823
0.000376404133987
0.000369905449431
0.000365186405282
0.000360787043102
0.000354888428134
0.000348889705134
0.000376577377836
0.000596058389879
0.00130136006213
0.00248064927521
0.00349520284018
0.00380493908563
0.00291522555358
0.000388357782444
0.000392239902925
0.000394447946289
0.000393684600505
0.000389831672889
0.000383916455023
0.000377480975116
0.000371793418923
0.000367297854511
0.000363535364507
0.000359345032833
0.000353355508706
0.000349546956638
0.00039958235661
0.000704824982715
0.0015615272331
0.00281860077577
0.00380724580908
0.00405175014149
0.00305570120121
0.000371313775445
0.000375016409342
0.000377809335103
0.000378672566567
0.000377407258961
0.000374604175156
0.000371176005376
0.000367845827956
0.000364818567703
0.000361729937571
0.000357647459905
0.000351659886878
0.000352552722712
0.000439469896308
0.000860619632263
0.00187931803245
0.0031888245548
0.00414002875456
0.00431008390632
0.00320043861124
0.000358630762944
0.000362091829262
0.000365289033988
0.000367416348216
0.000368155265962
0.000367691898861
0.000366432596716
0.000364729140871
0.000362681363988
0.000360012980054
0.000355884404236
0.000350158118767
0.000361195611344
0.000508159373679
0.00108093045104
0.00225948720841
0.00359308572496
0.0044934859444
0.00457642079259
0.00334511178345
0.000350612713225
0.00035377555685
0.000357152919044
0.000360090374141
0.000362147109589
0.000363185533098
0.000363269839318
0.000362545222543
0.000361067030362
0.000358563781396
0.000354173609211
0.000349702436121
0.00038245574635
0.000623947664321
0.00138434476467
0.00270259803319
0.00403071370853
0.00486382049096
0.00484349158051
0.00348354895553
0.000347014321402
0.000349817915795
0.000353123852683
0.000356380898878
0.000359064178692
0.000360834689725
0.000361569747572
0.000361320021172
0.000360081304751
0.000357449700035
0.000352602374941
0.000352778127899
0.000429369827631
0.000811000463871
0.00178298183644
0.00320178449252
0.0044951277723
0.00524008586024
0.00509730377903
0.00360201759334
0.000346989633168
0.000349375343094
0.00035237398911
0.000355513031585
0.000358244906453
0.000360157381584
0.00036105833887
0.000360940279686
0.00035966698881
0.000356580487924
0.000351590693659
0.0003653824876
0.000520138171252
0.00108980026978
0.0022687452094
0.00373653581079
0.00496668904913
0.00560034517154
0.00531678212595
0.0036796569008
0.000349247257332
0.000351174170452
0.000353694359261
0.000356409518092
0.000358814976536
0.000360514380171
0.000361307508973
0.000361115025051
0.000359582547798
0.000355824698579
0.000352592136895
0.000396428521826
0.000669217870519
0.00145846547307
0.00280367679001
0.00426811288256
0.00540714583932
0.00590508504028
0.00546096553912
0.00367328680453
0.000352225242477
0.000353684615844
0.0003556505283
0.00035779988466
0.000359717311205
0.000361063718213
0.000361643682589
0.000361283787898
0.000359385555866
0.00035512915175
0.000357465989408
0.000448952807923
0.000867785325993
0.00187057950026
0.00331628041911
0.00473224747143
0.00575215371264
0.00608923854102
0.00546357360972
0.00351657880043
0.000353780926093
0.000354798190799
0.000356220406957
0.000357800270531
0.000359215387211
0.000360202384814
0.000360575517154
0.000360092922059
0.000357966249042
0.00035380347557
0.000364065383375
0.000506733963005
0.00106658391143
0.00223487905967
0.00370998368249
0.00503498833722
0.00590096425793
0.00604332954146
0.00521216203624
0.00311644675905
0.000342285270267
0.00034289549994
0.000343827275737
0.000344887679811
0.000345853652402
0.000346544264888
0.000346801899444
0.000346418731103
0.000344717794646
0.000342206787484
0.000359239284374
0.000532747605233
0.00118151954767
0.00243139528562
0.00385981139898
0.00503502996538
0.00568751966157
0.00558816845668
0.00454890058778
0.00240839799578
0.000240492535617
0.000240615117302
0.0002409771924
0.000241420531866
0.000241836098774
0.000242165170235
0.000242350421223
0.000242455213015
0.000242695676877
0.000246512635758
0.000275694427685
0.000448966625085
0.00108621079017
0.00229433119222
0.00356408414082
0.00447648405488
0.00481486795448
0.00443796651748
0.00330423603089
0.00148539796564
0.000141718935271
0.000141608255409
0.000141550830994
0.000141511446962
0.000141471134836
0.000141433664158
0.00014139592124
0.000141418105966
0.000141674552322
0.000143663386108
0.000156084618042
0.000234296791142
0.000618918703291
0.00151806738392
0.0024265349421
0.00292493723772
0.00291031840247
0.00242429057662
0.00160957999353
0.00072928550633
0.000282883252323
9.84246173946e-05
0.000324707957899
0.000105632533579
0.000358534037447
0.000112084117456
0.000381470405022
0.000117810812774
0.000393922899099
0.000123010996489
0.000400337282016
0.000127907154132
0.000402707796996
0.000132676121216
0.000405330376669
0.00013741706962
0.000409553655317
0.000142143711406
0.000417028753308
0.000146840565889
0.000425997774041
0.000151489633681
0.000436541762271
0.000156071688384
0.000448657124953
0.000160583938319
0.00046225147473
0.000165015942123
0.000477404772239
0.000169368884573
0.000494087126431
0.000173649435165
0.000512420167308
0.00017786042333
0.0005328582254
0.000182006986279
0.000555342494796
0.000186088678205
0.000579673395433
0.000190104344466
0.000605807421989
0.000194052356666
0.000632965482816
0.00019792668891
0.000660214823111
0.000201698092416
0.000686272389544
0.000205314719083
0.000708229067399
0.000208622032545
0.000718665875192
0.000211320555478
0.000709013724677
0.000212960029543
0.000667638186915
0.000213013466271
0.000586321940295
0.000211169169154
0.000476792582202
0.000207237882429
0.000381474062636
0.000199869814781
0.000351997046333
0.000183820587237
)
;

boundaryField
{
    inletfuel
    {
        type            calculated;
        value           nonuniform 0();
    }
    inletair
    {
        type            calculated;
        value           nonuniform 0();
    }
    outlet
    {
        type            calculated;
        value           nonuniform List<scalar> 
26
(
0.000142286968893
0.000142158764096
0.000142001942338
0.00014188303779
0.000141718935271
0.000141608255409
0.000141550830994
0.000141511446962
0.000141471134836
0.000141433664158
0.00014139592124
0.000141418105966
0.000141674552322
0.000143663386108
0.000156084618042
0.000234296791142
0.000618918703291
0.00151806738392
0.0024265349421
0.00292493723772
0.00291031840247
0.00242429057662
0.00160957999353
0.00072928550633
0.000351997046333
0.000183820587237
)
;
    }
    axis
    {
        type            empty;
    }
    leftside
    {
        type            nutkWallFunction;
        Cmu             0.09;
        kappa           0.41;
        E               9.8;
        value           nonuniform List<scalar> 
32
(
4.61080152442e-06
5.74651332059e-06
6.75015312551e-06
7.63120588194e-06
8.42358265573e-06
9.16358994173e-06
9.87905927969e-06
1.05855898634e-05
1.12853691177e-05
1.19763143601e-05
1.26559749404e-05
1.33218080796e-05
1.39736742133e-05
1.46102789646e-05
1.52320422476e-05
1.58401798604e-05
1.64353404118e-05
1.70185491654e-05
1.75900225196e-05
1.81498431445e-05
1.86981139447e-05
1.9234372812e-05
1.97548242755e-05
2.02526470692e-05
2.07062918073e-05
2.10735426797e-05
2.12904932718e-05
2.12819092016e-05
2.10023951789e-05
2.04223259872e-05
1.93423267658e-05
1.69859539974e-05
)
;
    }
    burnerwall
    {
        type            nutkWallFunction;
        Cmu             0.09;
        kappa           0.41;
        E               9.8;
        value           nonuniform 0();
    }
    front
    {
        type            wedge;
    }
    back
    {
        type            wedge;
    }
    procBoundary1to0
    {
        type            processor;
        value           nonuniform List<scalar> 
27
(
0.00128725929097
0.00128405967454
0.00126395275761
0.00123137713822
0.000482938496872
0.000586697952734
0.000668782151325
0.000593518849552
0.000321634294525
0.000281445005963
0.000506966576238
0.00115153343072
0.000997516206562
0.000813167565046
0.000637003230457
0.000498882923906
0.00040775945517
0.000355372610354
0.000325208736838
0.000308668460827
0.000305769416618
0.000326543702241
0.000378252752156
0.000450789423905
0.000450789423905
0.000242350576708
9.08836117173e-05
)
;
    }
}


// ************************************************************************* //
