/*--------------------------------*- C++ -*----------------------------------*\
  =========                 |
  \\      /  F ield         | OpenFOAM: The Open Source CFD Toolbox
   \\    /   O peration     | Website:  https://openfoam.org
    \\  /    A nd           | Version:  7
     \\/     M anipulation  |
\*---------------------------------------------------------------------------*/
FoamFile
{
    version     2.0;
    format      ascii;
    class       volScalarField;
    location    "0.04";
    object      O2;
}
// * * * * * * * * * * * * * * * * * * * * * * * * * * * * * * * * * * * * * //

dimensions      [0 0 0 0 0 0 0];

internalField   nonuniform List<scalar> 
815
(
0.149225874406
0.149250258009
0.149849234938
0.188656486832
0.188690865645
0.188864508528
0.201509935443
0.201539487632
0.201625629434
0.207252230282
0.20726799415
0.20730770312
0.209928852186
0.209936219102
0.209954641374
0.21127992426
0.211286732299
0.211302802447
0.212166761021
0.212175429589
0.212195216421
0.212914994697
0.212925708874
0.212949831112
0.213627059609
0.213639574377
0.21366759501
0.214334137734
0.214348175013
0.214379430428
0.215044136946
0.215059578939
0.215093720183
0.215760033777
0.215776453364
0.215812791271
0.216479068693
0.216496478282
0.21653472176
0.217200529332
0.217218427312
0.217257849832
0.217920533391
0.217938707892
0.217978689203
0.218635178315
0.218653329815
0.218693229681
0.219340721491
0.219358405393
0.219397371642
0.220030802873
0.220047874983
0.220085292918
0.220699629065
0.220715707508
0.220750831535
0.221339313414
0.221354055398
0.221386179396
0.221940243275
0.22195339226
0.22198194395
0.222492344566
0.222503644176
0.222528192962
0.222985580202
0.222994936006
0.223015309148
0.22341168251
0.223419211734
0.223435546688
0.223766477055
0.223772327578
0.223784969711
0.224050453399
0.224054837782
0.224064293647
0.224269023035
0.224272171873
0.224278972565
0.224431013687
0.22443316318
0.224437838242
0.224546663905
0.224548047317
0.224551110313
0.224625268492
0.224626149552
0.224628109122
0.224674370468
0.224674941946
0.224676212681
0.150796072676
0.189115132687
0.201744385569
0.207362436301
0.209980499495
0.211325457859
0.21222297824
0.212983641952
0.213706833917
0.214423187093
0.215141391585
0.215863448511
0.216587871132
0.217312502224
0.218034016226
0.218748325166
0.219451133248
0.220136842201
0.220799156877
0.221430327796
0.222021141262
0.222561882366
0.22304328052
0.223457996611
0.223802366665
0.224077307626
0.224288339809
0.224444290716
0.224555350245
0.224630826858
0.224677966851
0.184522449037
0.182555838666
0.184168901634
0.194215423528
0.210073938878
0.219441583815
0.217360077948
0.153067286058
0.156637431294
0.160897232906
0.165544392008
0.170304216409
0.175154037692
0.180065788923
0.184779598
0.189012012408
0.192396332737
0.194453911168
0.194919740846
0.19422649441
0.193101732589
0.193137923314
0.196772585655
0.204863098852
0.214416686028
0.219175545664
0.215839721055
0.189675174042
0.190628176887
0.19185819594
0.193322714306
0.194938673521
0.196670678034
0.198370974034
0.199838898411
0.200880224251
0.201403713656
0.201416693301
0.201002865747
0.20046398
0.200418132322
0.201847759088
0.205663052107
0.211385149235
0.216881370624
0.218466452804
0.214414959662
0.20199760516
0.202464157461
0.203059030901
0.203730132159
0.204393859731
0.204987403394
0.205462282595
0.205784192007
0.205933927825
0.205913546789
0.205767508587
0.205614153913
0.205702576845
0.206443580973
0.208297291644
0.211425108056
0.215143696265
0.21798141181
0.217507757548
0.213240303923
0.207477046494
0.207683265554
0.207929287635
0.208186938986
0.208427260407
0.20863209638
0.20879506073
0.208917576932
0.209007238937
0.209083423317
0.209194751296
0.209442649031
0.209997925726
0.21107741327
0.21282726261
0.215114367388
0.217303316099
0.218272852681
0.216487610793
0.212306527505
0.210034988689
0.210135790547
0.210260709244
0.210401228892
0.21055105777
0.210710105036
0.210885930518
0.211089762452
0.21133436219
0.211637772982
0.21203534695
0.212591389408
0.213395924743
0.214525531007
0.215962898437
0.217468240051
0.218499802286
0.218165919565
0.215596068698
0.211566526144
0.211373892998
0.21146928031
0.211596286356
0.211754219061
0.211945429185
0.212177379557
0.212462950511
0.212815652784
0.213245854415
0.213762326768
0.214380021265
0.215124568753
0.216022128938
0.217063645444
0.218146636124
0.219000435677
0.219146926376
0.217883401743
0.214848992559
0.210957408436
0.212282692167
0.212403569013
0.212569295464
0.212782050858
0.213047605382
0.213376257674
0.213781914761
0.214276439818
0.214864277137
0.215542236018
0.216304627569
0.217144454186
0.218042864807
0.218939794984
0.219691061102
0.220020379745
0.219492375144
0.217571638736
0.214236504817
0.210428899914
0.213056653361
0.213206390035
0.213413688348
0.213682149786
0.214018351312
0.214432973948
0.214938587577
0.215543406845
0.216244950174
0.217028794847
0.217871822479
0.218743147161
0.219594423729
0.220336359644
0.220802601155
0.220714095843
0.219662277146
0.217262679358
0.213715428993
0.209937461787
0.213791834958
0.213967314738
0.214211055411
0.214526930826
0.214921292002
0.215403581325
0.21598348602
0.216664617306
0.217437831836
0.218279117011
0.219152642399
0.220011388115
0.220789741242
0.221382947599
0.22161366675
0.221195204986
0.219735389174
0.216966516067
0.213249864602
0.209454487225
0.21451818394
0.214714914668
0.214988174687
0.215341473904
0.215779941937
0.216310669159
0.216939811346
0.217666156941
0.218474627088
0.219334346661
0.220200964933
0.221018181595
0.221711423011
0.222169013735
0.222206346632
0.221523114339
0.219733611104
0.216662226619
0.212801551168
0.208954685436
0.2152449
0.215458939847
0.215755533697
0.216137209461
0.21660734826
0.217169997972
0.217827100819
0.218572653401
0.219386757226
0.220233862045
0.221065059862
0.221819984477
0.222421776945
0.222757642664
0.222636704345
0.221737347054
0.219663178566
0.216330602164
0.21234216917
0.208419459908
0.215973528377
0.216200914367
0.216514937711
0.216916809182
0.217407518362
0.217987687384
0.218654802813
0.21939817206
0.220194331412
0.221005133035
0.221780204345
0.222459511268
0.222968098758
0.223194679186
0.222940751556
0.221854672838
0.219520396017
0.215955682608
0.211850332472
0.207835642916
0.216703178576
0.2169403123
0.217266293997
0.217680703128
0.218181974394
0.218767077788
0.219428900229
0.2201527275
0.220912287459
0.221668954117
0.222373794633
0.222969710162
0.223386121108
0.223513987617
0.223143455806
0.221883703694
0.219297709027
0.21552430813
0.211308793524
0.20719446507
0.217431041399
0.217674042215
0.218006523737
0.218426182137
0.218928720334
0.219507301754
0.220150821016
0.220840927768
0.22154996324
0.222240292345
0.222866212663
0.223375657914
0.22370334848
0.223741376181
0.22326198702
0.221823959797
0.218985777452
0.215024919028
0.210705326404
0.206490179953
0.218153893558
0.218398804149
0.218732228944
0.219149948022
0.219644837425
0.220206652151
0.220820606511
0.221465792238
0.222114121508
0.222730208612
0.22327311347
0.223696776978
0.22394116968
0.223896159451
0.223307284886
0.221673689463
0.218578999848
0.214452282619
0.21003439741
0.205720601111
0.218867568361
0.219110316566
0.219439019519
0.219847574432
0.220326337098
0.220861980757
0.22143684442
0.222028354187
0.222609052408
0.223147019965
0.223606838646
0.22394864825
0.224116081494
0.223991802425
0.223283619794
0.221428628098
0.218076240817
0.213803422991
0.209292198131
0.204885493917
0.219567424553
0.219803635122
0.220121876577
0.220514246316
0.220968815575
0.221469784925
0.221997537761
0.222528955655
0.223038278749
0.223497724327
0.2238776888
0.22414367609
0.224240501716
0.224036971049
0.223189578728
0.221081068291
0.217476764926
0.213077207491
0.208477723695
0.203987385571
0.22024816104
0.220473554711
0.220775619734
0.221144946167
0.22156780816
0.222026686489
0.222501015063
0.22296831789
0.223405444295
0.223789021425
0.224094654532
0.224291827264
0.224323076864
0.224034799656
0.223019025372
0.220623800716
0.216782200031
0.212273487571
0.207592298651
0.203030141427
0.220903367273
0.221113691859
0.221394071663
0.221734010925
0.222118579871
0.222529472187
0.222946257464
0.223348063551
0.223714788716
0.224027253429
0.224265427619
0.224400793785
0.224369180428
0.223983542922
0.222760100298
0.220049072711
0.215993291501
0.211389720197
0.206639680165
0.202019783793
0.221525416437
0.221716784559
0.221970600629
0.222275794628
0.222616984883
0.222975972286
0.223333436672
0.223670700563
0.223970884697
0.224218499142
0.224396591999
0.224476232806
0.224380505072
0.223875005611
0.222393728366
0.219348268653
0.215108582704
0.210425911037
0.205624232092
0.200966507796
0.222105479044
0.222274766716
0.2224982497
0.222764850938
0.223059502767
0.223364944679
0.223663626368
0.223939444947
0.224178547269
0.224368402234
0.224493615809
0.224521454103
0.224353738361
0.223691525695
0.221892778102
0.218511711531
0.214124398346
0.20938310804
0.204555099889
0.199888185639
0.222634349524
0.22277954448
0.222970443533
0.223196526254
0.223443709885
0.223696300193
0.223938964313
0.224158183029
0.224342770137
0.224482217592
0.224560663759
0.224536723505
0.224278553114
0.223403387003
0.221225440252
0.217531666296
0.21303751828
0.208268786588
0.2034500331
0.198812372223
0.223103457083
0.223223925888
0.223381787822
0.223567522674
0.223768566999
0.223971201524
0.224162461596
0.224331292146
0.224468562273
0.224564561467
0.224600160223
0.224518016849
0.224134652508
0.222968436336
0.220363974678
0.216410430194
0.211858554655
0.207105517262
0.20234603591
0.197780963562
0.223506273109
0.223602856243
0.223729045352
0.223876649479
0.224034932357
0.224192372937
0.224338294781
0.224463766799
0.224560962706
0.224619285475
0.224612174014
0.224455098949
0.22388932484
0.222339999836
0.219303432792
0.215171609098
0.210621044167
0.205941465351
0.201299904649
0.19684484249
0.223839752442
0.223914516401
0.224011941565
0.224125308908
0.224245804394
0.224364091981
0.224471601097
0.224561010602
0.224624852166
0.224649372983
0.224594570911
0.22433264026
0.22350660528
0.221500330449
0.2180930799
0.213884614132
0.209406274813
0.204867770354
0.200397353162
0.196061037959
0.224105263419
0.224161118567
0.224233737023
0.224317835093
0.224406476429
0.224492318673
0.224568567193
0.224628969173
0.224665262055
0.224657873539
0.224545799142
0.224139427479
0.222976155469
0.220503662635
0.216850547055
0.212671428605
0.20834111373
0.204005718277
0.199733207238
0.19547650669
0.224308475226
0.224348692376
0.224400899099
0.22446110724
0.224524082179
0.224584200607
0.224636081641
0.22467400918
0.224688064806
0.224650749829
0.224473827434
0.22389278929
0.222361802555
0.219507467522
0.215761809137
0.211707910833
0.20759088988
0.203493808777
0.199401120412
0.195114473012
0.224458204258
0.224486050283
0.224522181508
0.224563748582
0.224606912929
0.224647517258
0.224681298562
0.224702875361
0.224700751357
0.224640252496
0.224407155505
0.223664726337
0.221821169778
0.218735017004
0.215031757808
0.21117352085
0.207303088262
0.203432063433
0.199444499485
0.194943675733
0.224564550209
0.224583066287
0.224607128208
0.224634773095
0.224663331269
0.224689818635
0.224710948658
0.224721896243
0.224711042562
0.224641463491
0.224386285399
0.223560433295
0.221546353581
0.218393018856
0.214824680878
0.211190216863
0.207550382627
0.203840388388
0.199829611299
0.194877033677
0.224636732807
0.224648692653
0.224664264515
0.224682145301
0.224700531911
0.224717386154
0.224730373756
0.224735828207
0.224724459936
0.224665707743
0.224447133249
0.223683066204
0.221696947595
0.218595295247
0.215178123875
0.211722606794
0.208221035802
0.204542433702
0.20036967974
0.194784658665
0.224681792433
0.224689572461
0.224699706666
0.224711327529
0.224723228827
0.224734046997
0.224742215047
0.224745251521
0.224736826099
0.224696146987
0.224545069715
0.223975835027
0.222248246855
0.219240256483
0.215864896452
0.212437034741
0.208898015256
0.205094293124
0.200670989369
0.194610357024
0.208948027056
0.20662993322
0.209150680195
0.207151587833
0.209138832498
0.207409045576
0.20894271795
0.207422976511
0.208633693422
0.207264788871
0.20826877913
0.206995416516
0.207867441065
0.20664902553
0.207439833951
0.206244124174
0.206982378308
0.205787200587
0.206490367587
0.205279298651
0.205951877225
0.204715468154
0.205359771497
0.204091841036
0.204708866025
0.20340575313
0.203995594136
0.202655533535
0.20321897104
0.201841352899
0.20237914187
0.200964607111
0.201477787601
0.200028045362
0.200519491162
0.199036115919
0.199508956149
0.197994848846
0.19845348566
0.196912592148
0.197365290563
0.195801877239
0.19626067239
0.194678734418
0.195162642398
0.193563493697
0.194100479095
0.192476534572
0.19310052959
0.19143230563
0.192174594138
0.190427724929
0.191315013674
0.189439421326
0.190491032983
0.188433068024
0.189659886439
0.187403692562
0.188824447827
0.186441855445
0.18810638809
0.185745098088
0.187737751695
0.185468374974
)
;

boundaryField
{
    inletfuel
    {
        type            fixedValue;
        value           nonuniform 0();
    }
    inletair
    {
        type            fixedValue;
        value           nonuniform 0();
    }
    outlet
    {
        type            zeroGradient;
    }
    axis
    {
        type            empty;
    }
    leftside
    {
        type            zeroGradient;
    }
    burnerwall
    {
        type            zeroGradient;
    }
    front
    {
        type            wedge;
    }
    back
    {
        type            wedge;
    }
    procBoundary1to0
    {
        type            processor;
        value           nonuniform List<scalar> 
27
(
0.038788511373
0.0390655101265
0.0399146198593
0.041265028674
0.172000733559
0.170546507663
0.169064303397
0.178371087158
0.20359554967
0.219102781592
0.218846238428
0.0446225256727
0.0518907381028
0.0633623302919
0.0799392548126
0.098390064015
0.115675809795
0.131267594218
0.145792647438
0.158739602071
0.169712973297
0.178171765899
0.183500054157
0.185479016435
0.185479016435
0.208759996918
0.20600268784
)
;
    }
}


// ************************************************************************* //
