/*--------------------------------*- C++ -*----------------------------------*\
  =========                 |
  \\      /  F ield         | OpenFOAM: The Open Source CFD Toolbox
   \\    /   O peration     | Website:  https://openfoam.org
    \\  /    A nd           | Version:  7
     \\/     M anipulation  |
\*---------------------------------------------------------------------------*/
FoamFile
{
    version     2.0;
    format      ascii;
    class       volScalarField;
    location    "0.04";
    object      one_over_tauStar;
}
// * * * * * * * * * * * * * * * * * * * * * * * * * * * * * * * * * * * * * //

dimensions      [0 0 -1 0 0 0 0];

internalField   nonuniform List<scalar> 
815
(
267.242991313
268.392680967
266.154750859
111.029976449
111.338117783
110.890910786
75.8286248695
75.9942155174
76.2254794834
61.571401276
61.7379647901
62.0057894491
53.6827940271
53.86031801
54.1661758333
50.3936251921
50.5770066183
50.9085698998
49.0685740774
49.2491597824
49.5808464967
48.2086553148
48.3901448325
48.7272744115
47.4563913898
47.6376581658
47.9756639334
46.6761222228
46.8584026675
47.2014597739
45.8866130015
46.0675502291
46.408720918
45.0503838597
45.2287278594
45.5669828663
44.1714495001
44.3454856111
44.6763165913
43.2365058001
43.4020992028
43.7175806616
42.218468074
42.3749425431
42.674131122
41.124921607
41.2667404487
41.5389601664
39.9224407817
40.0489829243
40.2926625849
38.6185268537
38.7255071208
38.9329919499
37.2039534604
37.2886674277
37.4550096617
35.6852347307
35.7459280561
35.8677231489
34.0852731801
34.1217590848
34.198828536
32.4501218701
32.4636704698
32.4982976608
30.8434752398
30.8382040076
30.8378064886
29.3505579572
29.3309997659
29.3040772586
28.0466847177
28.0175364497
27.9732402337
26.9788917262
26.944469855
26.8907346014
26.1529977939
26.1162052719
26.0585023067
25.5924593732
25.5550975095
25.4969962297
26.0852615164
26.0496879362
25.9964440532
38.150904671
38.1630946319
38.1760284859
107.150883241
107.266104454
107.391007512
262.081206779
110.099638051
76.4767363431
62.3336263118
54.5803889849
51.3698697039
50.0509334906
49.2047514305
48.4559559714
47.6850890862
46.8880818516
46.0398078243
45.1348925927
44.1554222377
43.0857435175
41.914923591
40.6279809614
39.2194393193
37.6874405136
36.0432460399
34.3181487267
32.5659942708
30.8629430749
29.297382276
27.946172197
26.8532007132
26.0174814161
25.4565256429
25.9606099718
38.1787066819
107.451256874
67.6077466465
70.4441470814
74.7710305993
73.405430392
61.6107727602
57.081411921
78.8603943595
250.243658363
228.14523763
201.432800274
175.442763414
153.814911277
136.898107388
122.758137295
109.230007643
94.81187115
80.7011697376
69.9769937359
64.5745500428
63.2140151644
64.6640142831
67.6815116771
69.6371677164
66.0666090082
57.8339827423
62.8261203056
83.4387655476
108.087995502
104.89553966
101.054685566
96.7385680059
91.9934322746
86.3320500051
79.6713744925
72.6540397743
66.5305220883
62.1944152541
59.8933814029
59.4293288917
60.3604380329
62.1725707718
63.8445879427
63.7570966884
59.8940844056
57.7319064718
66.9739262359
85.1060934608
76.8013931412
76.6579418348
75.3493612169
72.8798322278
69.6741793686
66.2103316822
62.8667791604
59.9677073483
57.8161275
56.6004179068
56.3339855195
56.8710433524
57.8894384884
58.9648080561
59.2759300274
58.087702896
56.0198405921
58.5447000185
68.5199062121
84.3148796154
62.8522749841
63.1941576909
62.7834453031
61.6512956682
60.0632742717
58.3074903974
56.6178883222
55.21723897
54.2778645551
53.8835990211
54.0020972519
54.4756741888
55.029019666
55.2228891835
54.6201963905
53.4410483203
53.7773520927
58.8673265938
68.4376028358
82.4526040055
55.326417692
56.2254420742
56.6136254045
56.3935386536
55.6851158378
54.712465189
53.6930305039
52.8023029773
52.1578413969
51.813701403
51.7380033906
51.7805980793
51.6898325181
51.1880043567
50.3287913851
50.0275277917
52.3741574639
58.5080406939
67.43417834
80.0624560393
52.2320393778
53.3812100765
54.0937012464
54.2119713844
53.7988004121
53.0399286891
52.1301348124
51.2224274821
50.4200116638
49.7732197688
49.2573423914
48.7509025546
48.088596993
47.2110389826
46.6127499154
47.5644083669
51.4334239254
58.0410408019
66.4189986268
77.7109811043
50.9430730621
52.160467129
52.9498767467
53.1281748711
52.7357646437
51.9350278967
50.9019502174
49.7731351846
48.6431978671
47.5677100807
46.5439403517
45.5087171852
44.4203508492
43.4880307997
43.5241901833
45.7881745918
50.7519712071
57.5856292597
65.5663944085
75.6873881137
50.114739149
51.3518616787
52.1470478397
52.3029131747
51.8471339841
50.9267022045
49.7019275911
48.2951923818
46.7949054357
45.2688461314
43.7523861366
42.2629948915
40.9099102769
40.1619906215
41.0563945668
44.5876003785
50.3988890902
57.4353190127
65.0784982314
74.1316091716
49.3730418733
50.6075457801
51.3757603743
51.4727184215
50.9177468379
49.8479442046
48.411784683
46.7212184881
44.8616609619
42.9186263642
40.976108087
39.1431336467
37.6832643191
37.2922966294
39.1319103802
43.808984669
50.3037048249
57.5865575118
64.9381530285
72.9816813293
48.6061198873
49.823669366
50.5466644456
50.5669481953
49.8983819473
48.6721563802
47.0302516298
45.0782164009
42.9030609758
40.6113007847
38.3393026343
36.2874392973
34.8571267624
34.9163509374
37.704744891
43.4193700462
50.5171394281
58.087931177
65.112445095
72.2300570472
47.7982506835
48.9782027341
49.6341637402
49.5572302678
48.7604702425
47.3730519872
45.5355917435
43.3550825416
40.9251978949
38.3768457977
35.8975380333
33.7643360006
32.4795227575
33.0297333153
36.7140552279
43.350610878
51.0072099413
58.8743689885
65.4967466954
71.8151053321
46.9314833979
48.0556625385
48.6254312098
48.435406241
47.5009618605
45.95355642
43.9385062697
41.5710472609
38.9589839983
36.2583587586
33.6994753694
31.6135859361
30.5634702191
31.6231871464
36.1504538143
43.6124824741
51.7641282645
59.8819311476
66.0158835718
71.6755404095
45.9935463988
47.0414640934
47.5057644129
47.1881625771
46.1101295155
44.4092296777
42.2412825185
39.7359685106
37.0211097496
34.2767258344
31.7612320451
29.8365192387
29.0926342022
30.6725325715
36.0059481584
44.1923317406
52.775455878
61.0585323392
66.6232083198
71.7676212624
44.9684646093
45.9214451113
46.2646728035
45.810105938
44.5884782469
42.7483185405
40.4596768407
37.8725067481
35.1357767754
32.4501683171
30.0891837422
28.4166392289
28.0259862256
30.1404619451
36.2763759351
45.0915596606
54.0277815528
62.3506862072
67.2857768828
72.0528224296
43.8408216691
44.6798864082
44.8892132768
44.2942471254
42.9375609719
40.9809636551
38.6127062962
36.0047716835
33.3281577114
30.7970023478
28.6801639132
27.31998561
27.3093465123
29.9946807182
36.9544558054
46.2771215405
55.4849084744
63.7027981174
67.9867636556
72.5050274682
42.597169673
43.3067859665
43.3749007943
42.6437106782
41.1695438887
39.1296232587
36.7315194813
34.169721212
31.6332811616
29.3365523781
27.5246008756
26.5055912764
26.8929381013
30.2213203977
38.0330842271
47.7168015373
57.1155336176
65.0787841426
68.7299806265
73.1068463768
41.2262815618
41.7939277371
41.7200195134
40.8655934529
39.30193027
37.2225249163
34.8541410956
32.4096469548
30.0857491632
28.081748169
26.6046178288
25.9315191543
26.7402885729
30.8237422689
39.4899103325
49.3856090963
58.8952832993
66.4553844505
69.5212511347
73.8470648538
39.7218365421
40.1402082573
39.9307426343
38.9756055051
37.3618209866
35.2981148589
33.0261723878
30.7682212048
28.7147517975
27.0362249722
25.8972190732
25.5630680945
26.843176289
31.8387780382
41.2795556176
51.2580558739
60.7881288903
67.8236604481
70.3782910107
74.7242998856
38.0866473656
38.3554636205
38.0258410416
37.0031363252
35.3895085143
33.4048445327
31.296994548
29.2849182962
27.5396274543
26.1948322257
25.3783606595
25.3788488072
27.225061472
33.3130608524
43.3521564319
53.3297602147
62.7671714734
69.1936250478
71.3259738871
75.7527492061
36.3369090145
36.4646454
36.0398464769
34.9924902032
33.436831967
31.596372984
29.7135596788
27.9909521673
26.5695581689
25.5454997115
25.0274261646
25.3797580829
27.9587070445
35.2992247396
45.6775060467
55.6104092107
64.813024251
70.5898906943
72.3966714521
76.9494377237
34.5104628393
34.5152223961
34.0289615525
33.0058764283
31.5671761305
29.9299741665
28.3186710374
26.9078778249
25.8037884131
25.0727413561
24.8335069399
25.6041896427
29.1877628199
37.8392961963
48.2568334275
58.1158019502
66.9217260128
72.0605831775
73.6370498437
78.3397749084
32.668237716
32.5772440646
32.068838448
31.1193969118
29.8498730496
28.4602864627
27.1455344013
26.0451913906
25.232926203
24.7620051887
24.8060222398
26.1535387878
31.1263293231
40.9166000687
51.1160118869
60.8526177849
69.1045863686
73.6635552139
75.1006455573
79.9443055933
30.8927713096
30.7388522591
30.2479486356
29.4145147112
28.3513342594
27.2314083155
26.2129732369
25.3996242043
24.8418294009
24.6061936347
24.9916752547
27.225243146
33.9862179586
44.4197615278
54.2800356079
63.8001987766
71.3825881035
75.4651511243
76.8452029731
81.7562172805
29.2756114369
29.0924823729
28.6528145952
27.9632797673
27.1217254338
26.2677448982
25.5211744601
24.9554516933
24.6135789317
24.6152584173
25.4990146225
29.1147718971
37.777833527
48.1761041773
57.7326034576
66.8994997893
73.7852607605
77.5257320078
78.9222978572
83.7430103464
27.8938705656
27.7110562159
27.345127918
26.8087043321
26.1802906511
25.5651569204
25.0486992946
24.6846938621
24.5302260925
24.8174599305
26.4882880338
32.0248935069
42.0674848084
51.9821715624
61.3551725919
70.0466988629
76.3255338896
79.8827770761
81.3696607257
85.7681021231
26.788032545
26.6264088583
26.3427196251
25.950404167
25.5076197747
25.0889077472
24.7534116818
24.5477172255
24.568549993
25.2370341777
28.0526176084
35.6709383021
46.1627637955
55.6522837554
64.9378714144
73.1224037597
78.9853669894
82.544999638
84.2149885333
87.7402105333
25.9515461235
25.8215539364
25.6160681069
25.3458723859
25.050996262
24.7814848169
24.5789353613
24.4933443197
24.6801001573
25.8026542293
29.9274202712
39.1429102042
49.5033117652
58.9330875029
68.2006339871
75.9991860435
81.7037652409
85.4867530151
87.4989931414
89.6477518739
25.3960628144
25.2983549152
25.1580669565
24.9818307114
24.794992843
24.6300486305
24.5174606092
24.5136917408
24.8208630083
26.29915228
31.402277706
41.4724297085
51.7775969469
61.542889724
70.9187748634
78.5748223599
84.4080546349
88.677651596
91.3576894438
92.0439309482
25.9096111194
25.8369587258
25.7414283942
25.6268249853
25.5088057197
25.4079758873
25.3457045435
25.3765864253
25.6966673615
27.1733860037
32.329122627
42.4575317937
52.9321050238
63.3268056021
73.0626058901
80.91127704
87.1630692554
92.2801509127
96.3169678496
96.796566268
38.1663000245
38.1046864412
38.0169637236
37.9153027255
37.8123113041
37.7230444108
37.65975333
37.6536040044
37.7999318857
38.472167202
40.8363869614
46.4289513941
54.7763706178
65.3525006578
75.6263343858
83.930675893
90.8810996671
97.4232877499
104.353047057
109.646370322
107.490688687
107.470160772
107.412934406
107.341805122
107.270588997
107.20806192
107.16333964
107.128664785
107.104902129
106.791182383
104.632465626
94.3400852918
79.3451770639
78.4183353739
85.5530842215
93.2937404814
101.111776272
110.517595977
123.672981156
141.834000677
155.995177918
315.246491083
156.911055259
338.346567689
156.686582372
359.009886897
156.39309136
377.367701496
157.112795792
394.05561253
158.655042378
409.789378421
161.41339983
425.12149609
164.695518392
440.371031495
168.34345279
455.574175323
171.752077278
470.68221807
175.457359964
485.636903044
179.336698797
500.377968663
183.319449836
514.894493596
187.399752729
529.155248521
191.543657466
543.165206922
195.754922816
556.947667477
199.997940716
570.514835623
204.181793752
583.883116522
208.325432482
597.052722539
212.468300631
610.022240356
216.587474108
622.788338727
220.763884846
635.335007933
225.026846592
647.571659577
229.309257984
659.338642272
233.534696745
670.146058014
237.940384803
679.040810735
242.273763397
684.583976866
246.732283328
685.079479155
252.22532622
679.497202863
258.931561557
667.133667573
261.789191048
643.48897385
243.833019611
591.506230954
)
;

boundaryField
{
    inletfuel
    {
        type            calculated;
        value           nonuniform 0();
    }
    inletair
    {
        type            calculated;
        value           nonuniform 0();
    }
    outlet
    {
        type            calculated;
        value           nonuniform List<scalar> 
26
(
107.150883241
107.266104454
107.391007512
107.451256874
107.490688687
107.470160772
107.412934406
107.341805122
107.270588997
107.20806192
107.16333964
107.128664785
107.104902129
106.791182383
104.632465626
94.3400852918
79.3451770639
78.4183353739
85.5530842215
93.2937404814
101.111776272
110.517595977
123.672981156
141.834000677
243.833019611
591.506230954
)
;
    }
    axis
    {
        type            empty;
    }
    leftside
    {
        type            calculated;
        value           nonuniform List<scalar> 
32
(
315.246491083
338.346567689
359.009886897
377.367701496
394.05561253
409.789378421
425.12149609
440.371031495
455.574175323
470.68221807
485.636903044
500.377968663
514.894493596
529.155248521
543.165206922
556.947667477
570.514835623
583.883116522
597.052722539
610.022240356
622.788338727
635.335007933
647.571659577
659.338642272
670.146058014
679.040810735
684.583976866
685.079479155
679.497202863
667.133667573
643.48897385
591.506230954
)
;
    }
    burnerwall
    {
        type            calculated;
        value           nonuniform 0();
    }
    front
    {
        type            wedge;
    }
    back
    {
        type            wedge;
    }
    procBoundary1to0
    {
        type            processor;
        value           nonuniform List<scalar> 
27
(
399.773203096
400.526719504
400.311982151
399.696337671
76.6037004918
73.6382641575
78.8738898839
80.7875864938
68.6484186033
52.3009151834
71.7212825251
396.096242137
384.335493543
363.096217364
331.595394768
291.268423217
247.74393907
209.791225015
178.940508642
152.871321548
128.016667787
103.509391181
82.8546724212
70.8949225067
70.8949225067
151.513100595
291.048523978
)
;
    }
}


// ************************************************************************* //
