/*--------------------------------*- C++ -*----------------------------------*\
  =========                 |
  \\      /  F ield         | OpenFOAM: The Open Source CFD Toolbox
   \\    /   O peration     | Website:  https://openfoam.org
    \\  /    A nd           | Version:  7
     \\/     M anipulation  |
\*---------------------------------------------------------------------------*/
FoamFile
{
    version     2.0;
    format      ascii;
    class       volScalarField;
    location    "0.04";
    object      p;
}
// * * * * * * * * * * * * * * * * * * * * * * * * * * * * * * * * * * * * * //

dimensions      [1 -1 -2 0 0 0 0];

internalField   nonuniform List<scalar> 
815
(
105828.627338
105828.477632
105828.199813
105764.346351
105764.265548
105764.101531
105691.744688
105691.673827
105691.521756
105603.423868
105603.403536
105603.319664
105512.873109
105512.852506
105512.803859
105415.656937
105415.652941
105415.635061
105312.67617
105312.676283
105312.667807
105203.462768
105203.462485
105203.452718
105087.014298
105087.013782
105087.00449
104962.897327
104962.897939
104962.88803
104830.387911
104830.381624
104830.366912
104689.165224
104689.164396
104689.15254
104540.636154
104540.628554
104540.611725
104384.817716
104384.813603
104384.803108
104223.00684
104223.004794
104222.997195
104056.928339
104056.922947
104056.912546
103883.929119
103883.928273
103883.920706
103703.735435
103703.733858
103703.726739
103518.662287
103518.65992
103518.651792
103329.376836
103329.374792
103329.36682
103136.447338
103136.443743
103136.434658
102940.903526
102940.899396
102940.889814
102744.661203
102744.658421
102744.648179
102550.649638
102550.647906
102550.640424
102361.727422
102361.727111
102361.723352
102179.705538
102179.707265
102179.708486
102006.120435
102006.123353
102006.128018
101842.1901
101842.194648
101842.204318
101687.765502
101687.768617
101687.772485
101542.036054
101542.030435
101542.016502
101397.417623
101397.416494
101397.414445
105827.787612
105763.864747
105691.304869
105603.222963
105512.737293
105415.609264
105312.655975
105203.440247
105086.99224
104962.874848
104830.346424
104689.135731
104540.588691
104384.788437
104222.986461
104056.898248
103883.910105
103703.716823
103518.640543
103329.355881
103136.422346
102940.876715
102744.634423
102550.630629
102361.718098
102179.710329
102006.134888
101842.217446
101687.778283
101541.99778
101397.411529
105805.575731
105799.594202
105796.894598
105793.463227
105784.789295
105777.820581
105769.270535
105826.841199
105824.681589
105821.52117
105817.501907
105812.865089
105807.95198
105803.061419
105798.464814
105793.108408
105787.083618
105780.633786
105774.107795
105767.796755
105762.733312
105758.415508
105754.295382
105749.796197
105739.084684
105729.625433
105721.723814
105763.315934
105762.147838
105760.510072
105758.379361
105755.530699
105751.919179
105747.797161
105742.934123
105737.46013
105731.683639
105725.841653
105720.141508
105716.101441
105711.601173
105707.721845
105702.234182
105696.12449
105683.347667
105673.728657
105666.733213
105690.811751
105689.681415
105688.000205
105685.676137
105682.830872
105679.563458
105675.942529
105672.06317
105667.954283
105664.132585
105660.099865
105656.163429
105652.380494
105648.540965
105644.168607
105637.464718
105629.792507
105618.5738
105609.237974
105603.620827
105602.963703
105602.340565
105601.510948
105600.401678
105598.998553
105597.316251
105595.383058
105593.224173
105590.865614
105588.336906
105585.630578
105582.719135
105579.477291
105575.572488
105570.282045
105563.193844
105554.892214
105545.000523
105536.728304
105532.426373
105512.588611
105512.266885
105511.799743
105511.177805
105510.390473
105509.435941
105508.304974
105506.989439
105505.473389
105503.724712
105501.676993
105499.208851
105496.133833
105492.124211
105486.400489
105479.602669
105471.537902
105463.208507
105456.317232
105452.997636
105415.551008
105415.4199
105415.218039
105414.938681
105414.563606
105414.078007
105413.458469
105412.673494
105411.677084
105410.401362
105408.745512
105406.555005
105403.602166
105399.577403
105394.003581
105387.649689
105380.455267
105373.403402
105367.977139
105365.294492
105312.627285
105312.567046
105312.468
105312.324833
105312.121272
105311.836226
105311.439279
105310.886855
105310.116275
105309.038004
105307.530003
105305.423447
105302.503494
105298.538232
105293.341991
105287.552857
105281.369696
105275.397406
105271.077129
105268.807166
105203.412618
105203.356014
105203.265474
105203.131929
105202.936454
105202.655167
105202.254149
105201.684738
105200.880451
105199.75367
105198.187559
105196.039487
105193.147416
105189.384907
105184.753654
105179.661857
105174.250581
105169.196726
105165.511439
105163.371578
105086.96402
105086.901214
105086.800247
105086.64945
105086.430285
105086.118798
105085.678963
105085.065477
105084.219083
105083.059776
105081.490777
105079.395575
105076.653486
105073.17731
105068.989541
105064.35128
105059.346227
105054.712813
105051.243798
105049.079525
104962.843907
104962.769643
104962.650361
104962.473948
104962.21953
104961.862561
104961.368587
104960.69345
104959.779574
104958.556558
104956.937877
104954.827672
104952.136856
104948.809525
104944.880776
104940.520754
104935.922691
104931.687363
104928.486679
104926.452466
104830.302824
104830.208909
104830.063444
104829.851573
104829.551327
104829.136018
104828.568923
104827.806741
104826.790752
104825.457711
104823.735109
104821.552509
104818.859615
104815.658889
104812.001885
104808.053713
104804.094624
104800.522723
104797.90766
104796.216669
104689.094161
104688.99273
104688.830726
104688.594157
104688.259224
104687.801041
104687.185455
104686.372033
104685.31431
104683.963032
104682.269345
104680.201331
104677.744713
104674.951684
104671.876036
104668.615637
104665.496335
104662.700435
104660.709464
104659.365396
104540.539435
104540.435524
104540.275971
104540.04771
104539.72914
104539.297987
104538.722683
104537.97194
104537.008587
104535.798516
104534.314826
104532.54282
104530.486172
104528.201546
104525.712995
104523.057284
104520.564863
104518.379806
104516.663931
104515.771943
104384.75578
104384.682676
104384.568292
104384.402526
104384.169305
104383.850791
104383.423797
104382.862897
104382.139563
104381.228532
104380.107111
104378.761451
104377.179754
104375.396241
104373.389163
104371.183194
104369.070435
104367.326981
104365.90713
104365.286487
104222.961652
104222.903601
104222.812704
104222.680801
104222.494948
104222.242231
104221.904102
104221.460493
104220.888926
104220.166062
104219.2718
104218.190024
104216.90028
104215.439793
104213.77818
104211.983216
104210.270967
104208.754008
104208.203226
104207.726175
104056.867585
104056.80039
104056.696712
104056.546905
104056.336394
104056.049342
104055.664183
104055.158751
104054.508753
104053.693518
104052.699269
104051.529441
104050.196648
104048.78022
104047.312361
104045.902559
104044.690033
104043.570738
104043.14792
104042.780042
103883.883882
103883.819607
103883.718288
103883.570696
103883.363777
103883.083572
103882.712127
103882.231463
103881.62327
103880.875953
103879.985115
103878.965741
103877.829909
103876.645493
103875.406969
103874.190724
103873.144657
103872.133028
103871.721845
103871.328701
103703.693117
103703.636896
103703.549606
103703.42454
103703.252446
103703.024251
103702.728528
103702.355471
103701.894996
103701.342138
103700.692729
103699.956765
103699.123973
103698.246869
103697.290096
103696.327574
103695.484483
103694.667473
103694.295193
103693.967025
103518.614174
103518.553603
103518.461096
103518.331128
103518.155737
103517.929176
103517.643356
103517.294575
103516.877452
103516.394198
103515.842546
103515.236596
103514.554485
103513.846459
103513.065775
103512.317216
103511.703177
103511.201587
103510.976493
103510.810754
103329.330112
103329.271217
103329.181786
103329.057472
103328.89142
103328.679731
103328.416228
103328.098453
103327.721798
103327.288628
103326.790829
103326.244953
103325.62231
103324.977713
103324.275778
103323.655562
103323.189732
103322.968249
103322.826151
103322.845067
103136.394779
103136.334175
103136.243725
103136.119504
103135.955752
103135.750122
103135.498136
103135.200668
103134.855912
103134.470395
103134.038481
103133.57954
103133.065173
103132.521948
103131.953471
103131.456173
103131.148269
103131.095626
103131.113805
103131.277119
102940.847627
102940.784213
102940.69013
102940.56189
102940.394446
102940.186537
102939.935232
102939.642591
102939.3097
102938.94521
102938.546749
102938.143106
102937.716022
102937.277334
102936.874383
102936.597131
102936.54602
102936.729855
102936.93747
102937.258731
102744.602597
102744.532963
102744.429596
102744.291191
102744.114226
102743.901469
102743.654912
102743.382941
102743.093516
102742.799828
102742.509248
102742.242292
102742.008369
102741.780354
102741.620419
102741.663144
102741.906999
102742.346481
102742.740639
102743.189034
102550.608247
102550.560094
102550.489207
102550.395479
102550.277052
102550.136747
102549.976219
102549.802095
102549.619948
102549.438031
102549.271183
102549.123512
102549.028738
102548.969803
102548.990982
102549.302111
102549.778899
102550.430909
102550.991965
102551.533904
102361.706077
102361.679224
102361.640507
102361.5903
102361.529483
102361.461721
102361.390797
102361.324434
102361.268306
102361.235115
102361.232896
102361.266966
102361.354062
102361.485273
102361.713425
102362.248052
102362.900712
102363.693295
102364.36661
102364.985405
102179.714688
102179.724909
102179.741113
102179.766164
102179.80216
102179.852753
102179.919867
102180.007171
102180.115802
102180.254633
102180.417784
102180.630801
102180.868377
102181.132933
102181.50303
102182.154487
102182.882355
102183.71779
102184.428167
102185.050347
102006.15093
102006.188879
102006.247435
102006.332852
102006.45079
102006.607268
102006.805588
102007.049549
102007.334801
102007.659255
102007.978928
102008.347181
102008.66133
102009.003134
102009.430144
102010.122452
102010.831065
102011.648778
102012.337512
102012.931134
101842.247442
101842.31252
101842.407109
101842.533926
101842.693128
101842.883281
101843.100203
101843.340598
101843.593421
101843.881306
101844.147303
101844.542986
101844.868612
101845.347553
101845.796245
101846.447083
101847.1094
101847.789703
101848.407508
101848.8846
101687.790771
101687.819124
101687.861829
101687.923861
101688.00949
101688.123939
101688.268943
101688.446597
101688.641752
101688.881648
101689.062517
101689.374146
101689.475821
101689.872699
101690.123323
101690.75041
101691.234479
101691.837275
101692.302198
101692.569631
101541.955779
101541.867446
101541.74019
101541.573715
101541.369806
101541.139042
101540.894156
101540.669691
101540.470185
101540.385986
101540.322267
101540.509169
101540.547908
101540.951442
101541.029574
101541.508481
101541.647245
101542.154861
101542.386237
101542.505265
101397.404924
101397.390289
101397.367905
101397.336937
101397.291647
101397.234709
101397.149004
101397.049712
101396.893913
101396.742099
101396.491725
101396.35756
101396.074533
101395.987227
101395.741301
101395.892412
101395.628193
101395.899722
101395.605803
101395.748311
105768.65198
105768.547945
105720.9669
105720.845644
105665.819355
105665.72586
105602.903063
105602.779027
105531.768604
105531.706405
105452.511126
105452.470995
105365.010477
105364.961811
105268.663928
105268.612693
105163.289174
105163.235319
105048.905547
105048.869203
104926.214403
104926.183417
104796.019105
104795.994884
104659.223047
104659.206824
104515.65823
104515.643593
104365.205001
104365.20309
104207.687692
104207.688918
104042.767423
104042.774466
103871.310559
103871.31325
103693.942893
103693.947539
103510.801013
103510.806023
103322.822454
103322.839001
103131.290334
103131.301952
102937.245384
102937.263771
102743.172014
102743.188187
102551.496428
102551.516884
102364.953717
102364.967833
102184.993616
102185.009503
102012.868807
102012.88343
101848.840426
101848.853006
101692.55638
101692.563994
101542.5728
101542.570807
101395.710631
101395.724664
)
;

boundaryField
{
    inletfuel
    {
        type            zeroGradient;
    }
    inletair
    {
        type            zeroGradient;
    }
    outlet
    {
        type            fixedValue;
        value           uniform 101325;
    }
    axis
    {
        type            empty;
    }
    leftside
    {
        type            zeroGradient;
    }
    burnerwall
    {
        type            zeroGradient;
    }
    front
    {
        type            wedge;
    }
    back
    {
        type            wedge;
    }
    procBoundary1to0
    {
        type            processor;
        value           nonuniform List<scalar> 
27
(
105841.402668
105841.432928
105841.537359
105841.683938
105838.336336
105833.095196
105828.289841
105825.621038
105823.560447
105817.075997
105809.678612
105842.015581
105842.69528
105843.770426
105845.232314
105844.946242
105844.121092
105842.002236
105838.561217
105834.900511
105830.422968
105825.06604
105818.842761
105812.302618
105812.302618
105809.357043
105809.360772
)
;
    }
}


// ************************************************************************* //
