/*--------------------------------*- C++ -*----------------------------------*\
  =========                 |
  \\      /  F ield         | OpenFOAM: The Open Source CFD Toolbox
   \\    /   O peration     | Website:  https://openfoam.org
    \\  /    A nd           | Version:  7
     \\/     M anipulation  |
\*---------------------------------------------------------------------------*/
FoamFile
{
    version     2.0;
    format      ascii;
    class       volScalarField;
    location    "0.04";
    object      PaSR<psiReactionThermo>:kappa;
}
// * * * * * * * * * * * * * * * * * * * * * * * * * * * * * * * * * * * * * //

dimensions      [0 0 0 0 0 0 0];

internalField   nonuniform List<scalar> 
815
(
1.51895018152e-12
1.52535844394e-12
1.51408122378e-12
7.14989412227e-13
7.17165289784e-13
7.15459951661e-13
5.20292028172e-13
5.21531386679e-13
5.23423300352e-13
4.32855935751e-13
4.34078635343e-13
4.3606605875e-13
3.81315726656e-13
3.8258256091e-13
3.84777959096e-13
3.59214505011e-13
3.60527031179e-13
3.62894662438e-13
3.50156085518e-13
3.51443302345e-13
3.53813849898e-13
3.44083927272e-13
3.4538688288e-13
3.47802961807e-13
3.38703361663e-13
3.40002548966e-13
3.42430905448e-13
3.33058550605e-13
3.34374428572e-13
3.36846923956e-13
3.27346404343e-13
3.28652789527e-13
3.3111783927e-13
3.21273060547e-13
3.22564027084e-13
3.25014693138e-13
3.14875388958e-13
3.16140194944e-13
3.18543362768e-13
3.08067562871e-13
3.09268910637e-13
3.11565800119e-13
3.00631373295e-13
3.01773036894e-13
3.03957773442e-13
2.9265447268e-13
2.93688227448e-13
2.95681511962e-13
2.83884118395e-13
2.84810953174e-13
2.86601723059e-13
2.74403496864e-13
2.75190707205e-13
2.76722284781e-13
2.64165601622e-13
2.64793001756e-13
2.66028608764e-13
2.53241607715e-13
2.53695786949e-13
2.54609471274e-13
2.41815074184e-13
2.42094560585e-13
2.42684051353e-13
2.30228553988e-13
2.30340513098e-13
2.30620834719e-13
2.18924783225e-13
2.18899609757e-13
2.18923793868e-13
2.08489703509e-13
2.08359947703e-13
2.0818852371e-13
1.99425084411e-13
1.99224268888e-13
1.98923290402e-13
1.92032064273e-13
1.91791420971e-13
1.91418316491e-13
1.86326170217e-13
1.86066418834e-13
1.85660871826e-13
1.82444977194e-13
1.82179281943e-13
1.81767577701e-13
1.85800433754e-13
1.85544668205e-13
1.8516399104e-13
2.67731531261e-13
2.67796956976e-13
2.67860350495e-13
7.26867686046e-13
7.27594790608e-13
7.28384189795e-13
1.49265717605e-12
7.12002895117e-13
5.25549073863e-13
4.38519059682e-13
3.87754883512e-13
3.6619546215e-13
3.57177405916e-13
3.51232127373e-13
3.4588671264e-13
3.40339778795e-13
3.34587053235e-13
3.28446319826e-13
3.21880388669e-13
3.14758754327e-13
3.0696873026e-13
2.98438924165e-13
2.89070046241e-13
2.78840168438e-13
2.67757231636e-13
2.55926192323e-13
2.4359246717e-13
2.31152114958e-13
2.19142671561e-13
2.08171772254e-13
1.98753398796e-13
1.91167083476e-13
1.85379180987e-13
1.81485352361e-13
1.84910728436e-13
2.67864382955e-13
7.28751970932e-13
4.51440118287e-13
4.72024051587e-13
5.02099903322e-13
4.94564631898e-13
4.20325188534e-13
4.02380387112e-13
5.67605704834e-13
1.43071430271e-12
1.31339274167e-12
1.17331236075e-12
1.03764935515e-12
9.24166982907e-13
8.34873778279e-13
7.59874141078e-13
6.87214466574e-13
6.07911593306e-13
5.28161459848e-13
4.66137251462e-13
4.34686298447e-13
4.27516883809e-13
4.37816225697e-13
4.58405805103e-13
4.72767815431e-13
4.51325486461e-13
4.01807725589e-13
4.4722684842e-13
6.03443392653e-13
7.02452688487e-13
6.86257891021e-13
6.65139638e-13
6.39712549597e-13
6.1048295019e-13
5.75008577792e-13
5.33057278174e-13
4.88826086611e-13
4.5025165666e-13
4.22962223937e-13
4.08580670854e-13
4.05872450506e-13
4.12161683328e-13
4.24420405385e-13
4.36341077259e-13
4.37857049147e-13
4.15444991751e-13
4.0722608427e-13
4.80830107313e-13
6.17789564769e-13
5.28608674474e-13
5.28806213305e-13
5.20759239674e-13
5.04238801329e-13
4.82140090618e-13
4.57954342511e-13
4.3450721311e-13
4.14156765904e-13
3.98985399609e-13
3.90218976329e-13
3.87920036185e-13
3.91135608698e-13
3.97798954338e-13
4.0537010157e-13
4.08728813744e-13
4.03423106104e-13
3.93627652151e-13
4.17432975117e-13
4.95001451764e-13
6.13527979411e-13
4.42463404906e-13
4.4524861366e-13
4.42521264438e-13
4.3434325695e-13
4.22549159291e-13
4.09252272164e-13
3.96247110948e-13
3.85248725872e-13
3.77563244029e-13
3.73819359611e-13
3.73820612569e-13
3.76538694376e-13
3.80235738829e-13
3.82174690321e-13
3.79749015141e-13
3.74726732231e-13
3.81486693729e-13
4.22839538223e-13
4.96484613072e-13
6.00908983988e-13
3.93135171998e-13
3.99578105259e-13
4.02201762093e-13
4.00194924002e-13
3.94360272343e-13
3.86331890624e-13
3.77780697049e-13
3.70121727186e-13
3.64331452777e-13
3.60874021565e-13
3.5957663211e-13
3.59464614823e-13
3.58942982637e-13
3.56340577386e-13
3.5233274788e-13
3.53350418781e-13
3.74008960698e-13
4.22363635002e-13
4.90573214339e-13
5.84080487966e-13
3.72371226907e-13
3.80548001965e-13
3.8544146421e-13
3.85821803367e-13
3.82081555275e-13
3.75573245118e-13
3.67806701285e-13
3.60055377308e-13
3.53220104169e-13
3.47754240072e-13
3.43532747846e-13
3.39764648242e-13
3.35423103998e-13
3.30292194943e-13
3.28049359105e-13
3.37708053283e-13
3.69030200351e-13
4.20494203627e-13
4.84190993361e-13
5.67330601694e-13
3.63573989866e-13
3.72259099371e-13
3.77736275786e-13
3.78594846927e-13
3.75067830913e-13
3.68340222485e-13
3.59791596892e-13
3.50588871542e-13
3.41582971361e-13
3.3326479599e-13
3.2564712903e-13
3.18314736468e-13
3.11053375159e-13
3.05477828097e-13
3.07503164205e-13
3.26292134111e-13
3.65400005489e-13
4.18307947589e-13
4.78742323007e-13
5.52881939923e-13
3.57776376429e-13
3.66643324343e-13
3.7221753597e-13
3.7298714218e-13
3.69095381887e-13
3.61618679174e-13
3.51827051716e-13
3.40790518026e-13
3.29319220419e-13
3.17984328754e-13
3.0704421481e-13
2.96610122929e-13
2.87473745429e-13
2.83041694274e-13
2.90897765676e-13
3.18615664387e-13
3.63863050713e-13
4.18124807926e-13
4.75797885464e-13
5.41799813039e-13
3.52502200904e-13
3.61393205302e-13
3.6683209682e-13
3.67253058668e-13
3.62742133419e-13
3.54307347418e-13
3.43135364548e-13
3.30221503639e-13
3.16351603916e-13
3.02211754588e-13
2.88379376997e-13
2.75571787543e-13
2.6562184915e-13
2.63520318633e-13
2.7785006888e-13
3.13728275229e-13
3.64019394681e-13
4.19994307716e-13
4.75283266093e-13
5.33657294339e-13
3.470061238e-13
3.55818273292e-13
3.60989554858e-13
3.6093284231e-13
3.55697834574e-13
3.46252837998e-13
3.33737479429e-13
3.19096135096e-13
3.03117542212e-13
2.86623345474e-13
2.70539520351e-13
2.56198537632e-13
2.46375393773e-13
2.47272516005e-13
2.68156017695e-13
3.11521358077e-13
3.66334835637e-13
4.24324509114e-13
4.76989979309e-13
5.28404609783e-13
3.41194517348e-13
3.49775727839e-13
3.54518195486e-13
3.53830958933e-13
3.47761746021e-13
3.37267005954e-13
3.23474247111e-13
3.073289593e-13
2.8965322742e-13
2.71426342742e-13
2.53919763335e-13
2.38989863471e-13
2.30109885561e-13
2.34326246714e-13
2.61454723692e-13
3.11573887245e-13
3.70620587047e-13
4.30661148688e-13
4.80170382381e-13
5.25595857084e-13
3.34939612924e-13
3.43156108356e-13
3.4732757577e-13
3.45890774156e-13
3.38913949111e-13
3.27372489845e-13
3.12423538446e-13
2.95058275896e-13
2.76181297311e-13
2.56933800751e-13
2.38879268677e-13
2.24251982548e-13
2.1695296395e-13
2.24662707434e-13
2.57740692324e-13
3.14024984974e-13
3.76829475373e-13
4.38549348967e-13
4.84288527856e-13
5.24784884817e-13
3.28152292919e-13
3.35852479482e-13
3.39309298943e-13
3.37013481118e-13
3.29081399249e-13
3.1653428388e-13
3.00598728173e-13
2.82352547717e-13
2.62821379238e-13
2.43300569191e-13
2.25547943323e-13
2.12020671566e-13
2.06823207186e-13
2.18145504826e-13
2.57003403381e-13
3.18826012844e-13
3.84878375644e-13
4.47618111741e-13
4.89013733932e-13
5.25654692095e-13
3.20716057325e-13
3.27761305569e-13
3.30386514407e-13
3.27159460173e-13
3.18267467234e-13
3.04811805149e-13
2.8811316574e-13
2.69374900954e-13
2.49749965641e-13
2.30666629435e-13
2.13991700609e-13
2.02208793588e-13
1.99461424444e-13
2.1453865445e-13
2.59256557814e-13
3.26018271343e-13
3.94667710473e-13
4.57483779121e-13
4.94112475555e-13
5.27923995963e-13
3.12520701749e-13
3.18769750122e-13
3.20466090763e-13
3.16278793089e-13
3.06484365328e-13
2.92279323169e-13
2.7510471367e-13
2.56300035111e-13
2.37152446147e-13
2.19175431299e-13
2.04209491444e-13
1.94602228501e-13
1.94510006174e-13
2.13638978186e-13
2.64493398996e-13
3.35368466039e-13
4.05924363047e-13
4.67745234028e-13
4.99467910187e-13
5.31405105427e-13
3.03474842362e-13
3.08810750986e-13
3.09520736888e-13
3.04399249397e-13
2.93825211465e-13
2.79103805491e-13
2.61802134716e-13
2.43398532013e-13
2.25288128274e-13
2.08979437699e-13
1.9615394196e-13
1.8893363328e-13
1.91637793534e-13
2.15374273888e-13
2.72712633665e-13
3.4663235444e-13
4.18412116074e-13
4.78144547269e-13
5.05113355843e-13
5.35972294487e-13
2.93507236745e-13
2.97834339068e-13
2.97547019969e-13
2.91580793817e-13
2.80424525327e-13
2.65495928481e-13
2.48485296513e-13
2.30980652879e-13
2.14414209436e-13
2.00185022082e-13
1.89715720403e-13
1.8492374832e-13
1.90603476326e-13
2.1979879297e-13
2.83802763787e-13
3.59606622591e-13
4.3194969823e-13
4.88517234009e-13
5.11095369876e-13
5.41546449421e-13
2.82588549962e-13
2.85848012476e-13
2.84604160207e-13
2.77950433624e-13
2.66489915603e-13
2.51742834121e-13
2.35490531654e-13
2.19367948697e-13
2.04749929897e-13
1.92831656877e-13
1.84746239325e-13
1.82340283585e-13
1.91363434372e-13
2.27216607654e-13
2.9747436555e-13
3.74075904816e-13
4.46272409806e-13
4.9880313107e-13
5.17547376064e-13
5.48118474291e-13
2.70760414455e-13
2.72943447977e-13
2.70847053236e-13
2.63737633496e-13
2.52326441869e-13
2.38204774767e-13
2.23181835051e-13
2.08852386877e-13
1.96444204897e-13
1.86894880989e-13
1.81086650167e-13
1.81042136178e-13
1.94099003807e-13
2.38020426306e-13
3.13381647647e-13
3.89981974648e-13
4.6118568265e-13
5.09080446277e-13
5.24654522868e-13
5.55793486223e-13
2.58163189173e-13
2.59323556247e-13
2.56545965672e-13
2.49279990253e-13
2.38321718044e-13
2.25278043569e-13
2.11904491081e-13
1.99666063628e-13
1.89572741965e-13
1.82299489072e-13
1.78600118136e-13
1.81044300343e-13
1.99347230837e-13
2.52675157011e-13
3.31290435983e-13
4.07377244855e-13
4.76551782868e-13
5.19533690094e-13
5.32656273431e-13
5.64695382666e-13
2.45089932133e-13
2.45350466853e-13
2.42124060104e-13
2.35040186657e-13
2.24942198166e-13
2.1338129463e-13
2.01971742357e-13
1.91970813483e-13
1.84139254308e-13
1.78944301967e-13
1.7721674772e-13
1.82627167854e-13
2.08166091712e-13
2.71601498237e-13
3.51164893228e-13
4.26367667336e-13
4.92347046203e-13
5.30519708837e-13
5.41896587463e-13
5.75009940066e-13
2.31988152394e-13
2.31537694385e-13
2.28133939031e-13
2.21571289218e-13
2.12689237635e-13
2.02908897753e-13
1.93625238896e-13
1.85840773022e-13
1.80084516739e-13
1.76733104945e-13
1.77009226551e-13
1.86520565931e-13
2.22158146437e-13
2.94798212073e-13
3.73126935794e-13
4.46998808132e-13
5.0865958146e-13
5.42465836823e-13
5.52768997823e-13
5.86884254247e-13
2.19442588121e-13
2.18511555471e-13
2.15204803676e-13
2.09452052946e-13
2.02034091231e-13
1.94174263025e-13
1.87000882855e-13
1.81257249158e-13
1.77306661919e-13
1.75620760202e-13
1.78313969695e-13
1.94147797935e-13
2.42998474505e-13
3.21497621237e-13
3.97288035369e-13
4.69119278203e-13
5.25647219969e-13
5.55861163354e-13
5.65697451414e-13
6.00264348704e-13
2.08084572901e-13
2.0691214238e-13
2.03937189059e-13
1.99182755793e-13
1.93324706879e-13
1.87346380966e-13
1.82099665758e-13
1.78111146015e-13
1.75689319817e-13
1.75681328783e-13
1.81907009463e-13
2.07666893723e-13
2.71024177677e-13
3.50324225148e-13
4.23470805215e-13
4.92297016289e-13
5.43529066946e-13
5.71149569624e-13
5.81058482113e-13
6.14898176638e-13
1.98431246178e-13
1.9722946826e-13
1.9474530715e-13
1.91049896923e-13
1.8668439708e-13
1.82388019504e-13
1.78766118149e-13
1.76203390321e-13
1.75105648776e-13
1.77116346468e-13
1.88938189707e-13
2.28666044825e-13
3.03295988588e-13
3.79543719911e-13
4.5077022805e-13
5.15769875832e-13
5.62400014885e-13
5.88605286257e-13
5.99125037919e-13
6.29759855529e-13
1.90738592656e-13
1.89660222946e-13
1.87730121141e-13
1.85030206927e-13
1.81960491034e-13
1.7904280327e-13
1.76695095258e-13
1.75248818932e-13
1.75387979328e-13
1.80097631325e-13
2.00100343237e-13
2.5533233012e-13
3.34603733401e-13
4.07579051029e-13
4.77635248168e-13
5.38659939919e-13
5.8212410047e-13
6.08286333945e-13
6.20085495887e-13
6.44120843606e-13
1.84933343065e-13
1.84057991194e-13
1.82658477801e-13
1.80801793075e-13
1.78762486037e-13
1.76889648932e-13
1.75476046565e-13
1.74875344079e-13
1.76185119403e-13
1.84116736138e-13
2.13553086177e-13
2.81175156189e-13
3.60381619151e-13
4.32475284785e-13
5.02010972063e-13
5.60026282298e-13
6.02243617233e-13
6.29988756613e-13
6.44205842114e-13
6.57775958225e-13
1.81069361062e-13
1.80407051535e-13
1.79451708974e-13
1.78243728397e-13
1.76955896134e-13
1.7581399604e-13
1.75031437467e-13
1.75006488272e-13
1.77165976055e-13
1.87628387577e-13
2.24196929765e-13
2.9883284844e-13
3.77987503064e-13
4.52159257089e-13
5.22249089985e-13
5.79103973655e-13
6.22200243192e-13
6.53447947256e-13
6.72400492036e-13
6.74491119154e-13
1.84555000095e-13
1.84060564846e-13
1.83411945977e-13
1.82630835782e-13
1.81822828437e-13
1.81130105781e-13
1.80701172962e-13
1.80920435702e-13
1.83169734965e-13
1.93628499983e-13
2.30694478007e-13
3.06288879755e-13
3.86877134408e-13
4.65496376653e-13
5.38111459351e-13
5.96307890005e-13
6.42405270381e-13
6.79748319425e-13
7.08304256964e-13
7.07115821183e-13
2.67766304272e-13
2.67355203323e-13
2.66777813783e-13
2.66108602713e-13
2.65427761898e-13
2.64835948026e-13
2.64414621106e-13
2.64384491783e-13
2.6542265663e-13
2.70325826787e-13
2.8835026675e-13
3.33419528582e-13
3.99944327117e-13
4.80206838942e-13
5.56788628583e-13
6.18262548297e-13
6.69332838489e-13
7.16785060067e-13
7.65558501976e-13
7.94402190205e-13
7.28971717797e-13
7.28826937902e-13
7.28465444383e-13
7.28021992036e-13
7.2757625051e-13
7.27183853224e-13
7.26900767779e-13
7.2669391017e-13
7.26627667856e-13
7.2521948765e-13
7.14781476448e-13
6.60313008681e-13
5.73780822764e-13
5.7422972035e-13
6.28417660896e-13
6.85602469677e-13
7.42375334776e-13
8.09214643413e-13
8.99015959313e-13
1.00568072117e-12
1.0706915196e-12
1.92348032571e-12
1.08866339748e-12
2.100258138e-12
1.0943261077e-12
2.25660799742e-12
1.09632476625e-12
2.39412870516e-12
1.10336369822e-12
2.51820446063e-12
1.11516865628e-12
2.63450333454e-12
1.13489433694e-12
2.74730094229e-12
1.1582929358e-12
2.85900055919e-12
1.18442163087e-12
2.96989684148e-12
1.20925956978e-12
3.07961845183e-12
1.236308101e-12
3.1877469886e-12
1.26472459929e-12
3.29382345071e-12
1.29397376727e-12
3.39774423711e-12
1.32401007557e-12
3.49926288474e-12
1.35456673695e-12
3.59838949384e-12
1.38567488964e-12
3.69527417245e-12
1.41706076827e-12
3.78999079355e-12
1.4481363037e-12
3.88263865462e-12
1.47898901951e-12
3.97322111597e-12
1.50988452197e-12
4.06174238183e-12
1.54062686652e-12
4.14820809403e-12
1.57174080146e-12
4.23258665503e-12
1.60335183086e-12
4.31433059956e-12
1.63492386152e-12
4.39245891884e-12
1.66570291589e-12
4.46363792615e-12
1.69682817323e-12
4.5212641692e-12
1.72574306146e-12
4.55527220394e-12
1.75234712814e-12
4.55378637371e-12
1.78043356758e-12
4.50966122486e-12
1.80786643851e-12
4.41767248829e-12
1.8022331062e-12
4.24409760462e-12
1.66875521986e-12
3.86386838957e-12
)
;

boundaryField
{
    inletfuel
    {
        type            calculated;
        value           nonuniform 0();
    }
    inletair
    {
        type            calculated;
        value           nonuniform 0();
    }
    outlet
    {
        type            calculated;
        value           uniform 0;
    }
    axis
    {
        type            empty;
    }
    leftside
    {
        type            calculated;
        value           uniform 0;
    }
    burnerwall
    {
        type            calculated;
        value           nonuniform 0();
    }
    front
    {
        type            wedge;
    }
    back
    {
        type            wedge;
    }
    procBoundary1to0
    {
        type            processor;
        value           uniform 0;
    }
}


// ************************************************************************* //
