/*--------------------------------*- C++ -*----------------------------------*\
  =========                 |
  \\      /  F ield         | OpenFOAM: The Open Source CFD Toolbox
   \\    /   O peration     | Website:  https://openfoam.org
    \\  /    A nd           | Version:  7
     \\/     M anipulation  |
\*---------------------------------------------------------------------------*/
FoamFile
{
    version     2.0;
    format      ascii;
    class       surfaceScalarField;
    location    "0.04";
    object      phi;
}
// * * * * * * * * * * * * * * * * * * * * * * * * * * * * * * * * * * * * * //

dimensions      [1 0 -1 0 0 0 0];

internalField   nonuniform List<scalar> 
1572
(
2.58424194273e-08
2.76159345161e-08
1.0467689961e-07
8.48175873378e-08
1.41878764517e-07
2.36647348949e-07
1.48367736175e-08
3.06320113641e-08
6.00341007545e-08
9.41343359014e-08
1.58206474019e-07
1.34472044099e-07
7.11543769107e-09
3.24464689199e-08
2.95048001206e-08
9.89308067564e-08
1.66796324885e-07
6.65428472659e-08
4.1396677175e-11
3.78685444429e-08
3.7207451577e-10
1.15101172874e-07
1.94023576342e-07
8.39531175267e-10
-2.9900243069e-09
4.46099682557e-08
-1.20742528676e-08
1.35429030762e-07
2.28013302737e-07
-2.72636835237e-08
-4.55256815626e-09
5.18465111503e-08
-1.83281976426e-08
1.57321880365e-07
2.64478573254e-07
-4.11628612475e-08
-4.79366663801e-09
5.89810177985e-08
-1.93302744475e-08
1.7886516027e-07
3.00480120973e-07
-4.3563206356e-08
-4.59319923973e-09
6.5767408496e-08
-1.83453753937e-08
1.9924683791e-07
3.34665710857e-07
-4.13738477911e-08
-4.26483113222e-09
7.22442168226e-08
-1.70211217876e-08
2.18594168669e-07
3.66992020509e-07
-3.82705646011e-08
-4.09839401554e-09
7.84468870225e-08
-1.58663563015e-08
2.36756257258e-07
3.97232297329e-07
-3.53253574819e-08
-3.2475075786e-09
8.37547841528e-08
-1.33003235482e-08
2.53028914329e-07
4.24320948497e-07
-2.99020364584e-08
-3.49403135557e-09
8.92054353398e-08
-1.33553028641e-08
2.68828067617e-07
4.50432832681e-07
-2.94343759457e-08
-2.57237097807e-09
9.36513324576e-08
-1.06795460907e-08
2.82662381014e-07
4.73678249294e-07
-2.42214386871e-08
-2.59832672311e-09
9.80839274702e-08
-1.05374125169e-08
2.96118186663e-07
4.96115173877e-07
-2.36362937379e-08
-2.54305287016e-09
1.02444702571e-07
-1.01081931703e-08
3.09205672893e-07
5.17915184947e-07
-2.25617141613e-08
-2.14579268283e-09
1.06449804214e-07
-9.08902170479e-09
3.2170379614e-07
5.38786264507e-07
-2.05907251175e-08
-2.72814482077e-09
1.10861473561e-07
-1.02434591984e-08
3.34303576437e-07
5.59453431325e-07
-2.23309094646e-08
-2.50495768353e-09
1.1487792752e-07
-9.65866106255e-09
3.46027577924e-07
5.78761752011e-07
-2.1263365456e-08
-2.4647823102e-09
1.18677579188e-07
-9.56746292482e-09
3.57163576171e-07
5.97090302205e-07
-2.11109119612e-08
-2.57359259947e-09
1.22344231783e-07
-9.87550966914e-09
3.6776487227e-07
6.14510658832e-07
-2.17646397985e-08
-2.45390657532e-09
1.25513824895e-07
-9.83716594754e-09
3.77351951766e-07
6.30414121424e-07
-2.20519289194e-08
-2.57019329575e-09
1.28479944403e-07
-1.05127125161e-08
3.86464971271e-07
6.45520803372e-07
-2.36968519922e-08
-3.18714025574e-09
1.31776436536e-07
-1.22933762441e-08
3.95894604315e-07
6.61131119207e-07
-2.74236220245e-08
-3.65134278789e-09
1.35221965133e-07
-1.41911706522e-08
4.05812605851e-07
6.77608526424e-07
-3.17723653422e-08
-4.34882774942e-09
1.39040101284e-07
-1.71439436328e-08
4.17006316569e-07
6.95880674844e-07
-3.81398128691e-08
-4.82921054849e-09
1.43087360287e-07
-1.93293406523e-08
4.29169609511e-07
7.16016524875e-07
-4.34059369884e-08
-4.93722573463e-09
1.47256872109e-07
-2.01912430779e-08
4.42117632391e-07
7.37757255601e-07
-4.58424618897e-08
-4.56659530722e-09
1.51203024435e-07
-1.92128717442e-08
4.54892018452e-07
7.59265021516e-07
-4.39025759528e-08
-4.37707964691e-09
1.55436722849e-07
-1.7242361e-08
4.67253043254e-07
7.79744083878e-07
-3.87285376638e-08
-3.04148946497e-09
1.58508747584e-07
-1.18453383421e-08
4.76163355514e-07
7.93999764117e-07
-2.5981251235e-08
-1.16754756579e-09
-4.9097786083e-09
-1.08297900958e-08
1.70009712316e-07
3.93830895801e-07
1.90637953001e-07
2.21534893792e-07
2.01903008252e-07
1.10126446812e-07
2.34804214712e-07
1.31802294511e-09
2.75654445089e-07
-4.55522507419e-08
3.19415688652e-07
-6.8433759994e-08
3.6253936885e-07
-7.24709772524e-08
4.03546780478e-07
-6.88192858754e-08
4.42239223236e-07
-6.35826996074e-08
4.78031582329e-07
-5.79616271158e-08
5.10930038953e-07
-5.00507838379e-08
5.41546346729e-07
-4.77871738492e-08
5.70090302045e-07
-4.08852341366e-08
5.97169405607e-07
-3.93204631939e-08
6.23348040416e-07
-3.73088737199e-08
6.48761841741e-07
-3.46051405924e-08
6.72934924909e-07
-3.60432647426e-08
6.95756412676e-07
-3.47025001419e-08
7.17435924901e-07
-3.45527490082e-08
7.37917199172e-07
-3.55621327214e-08
7.56927259591e-07
-3.66162027396e-08
7.75043968687e-07
-3.9574706895e-08
7.93279893276e-07
-4.51830872473e-08
8.12608314189e-07
-5.25482859371e-08
8.34140218859e-07
-6.30711673806e-08
8.58120326963e-07
-7.22318348598e-08
8.84401231026e-07
-7.69304786069e-08
9.11017039929e-07
-7.44377808797e-08
9.35011835868e-07
-6.40737786344e-08
9.51533489644e-07
-4.24137805747e-08
-1.79639201585e-08
6.7264441573e-06
2.7153323757e-05
3.22983725618e-06
3.72677234818e-05
7.55649973241e-07
5.34731391415e-05
1.82175845755e-06
8.37371178758e-05
4.47241719827e-06
0.000127899692957
1.01159916897e-06
0.000171174581449
0.000179425535153
-5.52846277094e-07
9.62050954289e-07
6.30334319232e-07
1.78335804941e-06
1.00389426184e-06
2.81035646272e-06
1.47316225408e-06
3.95570442904e-06
2.05833578088e-06
5.12652717808e-06
2.78806110482e-06
6.32020714201e-06
3.61615652389e-06
7.26799167566e-06
4.80878099602e-06
8.06684166223e-06
6.42690507067e-06
8.5613676098e-06
8.58810430566e-06
8.50194926804e-06
1.14687578694e-05
7.5653990303e-06
1.52487987561e-05
5.62555025044e-06
2.00605856441e-05
2.92816898981e-06
2.62716628879e-05
-3.46215213959e-07
3.47854496839e-05
-3.46564271091e-06
4.75013295889e-05
-5.46976307046e-06
6.80405404912e-05
-3.16542743871e-06
0.000101990112048
-2.43528366279e-07
0.000143625784778
-1.26382649729e-06
0.000176891824919
0.000177398543204
-2.12181048299e-07
5.21694296545e-07
7.16624339138e-07
9.52112394203e-07
1.16239045631e-06
1.51392894833e-06
1.73086026905e-06
2.21494238603e-06
2.43492735941e-06
2.98911014909e-06
3.37555326862e-06
3.61574397321e-06
4.62345555796e-06
4.09132822053e-06
6.26322832056e-06
4.2942228948e-06
8.40847932974e-06
4.03972444892e-06
1.11771449369e-05
3.18925032198e-06
1.47051383669e-05
1.72146836087e-06
1.91929040911e-05
-3.42211345441e-07
2.49827733366e-05
-2.99036351431e-06
3.26891480087e-05
-6.07971713091e-06
4.33976021948e-05
-8.91922128129e-06
5.90060478222e-05
-1.0184390069e-05
8.29062826415e-05
-7.15877399577e-06
0.000117313722081
-4.06950781915e-06
0.000154850340863
-2.7461024305e-06
0.000178302547602
0.000174216151403
-2.64407755782e-08
2.66650842136e-07
7.63312974587e-07
4.92682528327e-07
1.2605728313e-06
7.66086699837e-07
1.9275479099e-06
1.01652279297e-06
2.81825935446e-06
1.20983957894e-06
3.99884949298e-06
1.28773874016e-06
5.54675966498e-06
1.16784220715e-06
7.55867593673e-06
7.76809486725e-07
1.01469618696e-05
4.94958082337e-08
1.34573691176e-05
-1.09176231646e-06
1.76874111911e-05
-2.70318159878e-06
2.31222117044e-05
-4.80904323338e-06
3.01916567937e-05
-7.35051953345e-06
3.96053678764e-05
-1.00321385631e-05
5.24571136617e-05
-1.2338804767e-05
7.06115617347e-05
-1.25836776226e-05
9.5964239961e-05
-9.96161372046e-06
0.000129083997249
-6.56311313609e-06
0.000161094993582
-3.67089480222e-06
0.000176903325393
0.000171053958929
7.07107264798e-08
1.43175155929e-09
8.87476519982e-07
-6.44757619254e-09
1.46675216501e-06
-3.61093235555e-08
2.24433247048e-06
-1.10844679089e-07
3.28324668985e-06
-2.64758012501e-07
4.66155436601e-06
-5.43112176835e-07
6.47174623397e-06
-9.96668324883e-07
8.82661873406e-06
-1.68218621819e-06
1.18645016463e-05
-2.65610670375e-06
1.57645091642e-05
-3.96146660956e-06
2.0761590888e-05
-5.61926270655e-06
2.71926987541e-05
-7.61022826316e-06
3.5548592435e-05
-9.82341245169e-06
4.65762268755e-05
-1.20364310619e-05
6.13618744281e-05
-1.35156201282e-05
8.1198450499e-05
-1.33830890444e-05
0.000107036306231
-1.11391251822e-05
0.000137861901707
-7.73729886084e-06
0.000163978966562
-4.31931263847e-06
0.000174520604865
0.000168193705245
-1.28772929567e-08
-1.13966049259e-07
1.03983723763e-06
-2.25652582105e-07
1.71282696672e-06
-3.95324928688e-07
2.61156110318e-06
-6.42993383254e-07
3.80758065929e-06
-9.95067467708e-07
5.39088519743e-06
-1.48279288453e-06
7.46774860457e-06
-2.14228179865e-06
1.01706480807e-05
-3.00945532465e-06
1.36608904748e-05
-4.11518987698e-06
1.81469464293e-05
-5.48145335867e-06
2.39026442513e-05
-7.10671005058e-06
3.13047137217e-05
-8.94586495964e-06
4.08761147848e-05
-1.08493748849e-05
5.33301401703e-05
-1.24911041041e-05
6.95646629812e-05
-1.33530935353e-05
9.0410957133e-05
-1.28983741638e-05
0.00011592609453
-1.06900980957e-05
0.000143917988546
-7.57376836537e-06
0.000165216231618
-4.12758258543e-06
0.000172368738721
0.000166182139768
-9.91656820911e-08
-1.69038294093e-07
1.20257342196e-06
-3.28204099665e-07
1.97371954182e-06
-5.60089924517e-07
2.9977289312e-06
-8.81525830578e-07
4.35355036669e-06
-1.31363326704e-06
6.1425923129e-06
-1.88032337502e-06
8.48437751386e-06
-2.60790371145e-06
1.15299664639e-05
-3.52043145338e-06
1.54621946785e-05
-4.63433686595e-06
2.05154132954e-05
-5.94974100207e-06
2.6990651481e-05
-7.4361479137e-06
3.52856260594e-05
-9.01077232057e-06
4.59203480635e-05
-1.05119495108e-05
5.95453266546e-05
-1.16707904715e-05
7.68572808162e-05
-1.21277516394e-05
9.82411697199e-05
-1.17321385595e-05
0.000123225472353
-9.81801249131e-06
0.000148306447159
-7.18755049293e-06
0.000165896929827
-3.80525264588e-06
0.000170571131063
0.000164763191342
-1.53662215725e-07
-1.79967859125e-07
1.36401388151e-06
-3.49429691261e-07
2.23286535981e-06
-5.94964543431e-07
3.38193416046e-06
-9.31721844167e-07
4.8964444766e-06
-1.37767996573e-06
6.88823685288e-06
-1.95259778542e-06
9.48946689552e-06
-2.6755390256e-06
1.28665929261e-05
-3.56159445135e-06
1.72213841045e-05
-4.6143874121e-06
2.28075117581e-05
-5.81742004346e-06
2.99431687921e-05
-7.12174038233e-06
3.90319957577e-05
-8.43028295842e-06
5.05696781557e-05
-9.58484513891e-06
6.51207778968e-05
-1.03530294549e-05
8.3168457079e-05
-1.05279978758e-05
0.000104772819239
-9.82328782115e-06
0.000128836700485
-8.27467671901e-06
0.000151717250157
-6.06729824973e-06
0.000166512402741
-3.11728115215e-06
0.000169373239513
0.000163898857516
-9.32974340176e-08
-1.70761006736e-07
1.51763019298e-06
-3.31419028622e-07
2.47993274873e-06
-5.62527140756e-07
3.74749780051e-06
-8.77732443319e-07
5.41285297432e-06
-1.2910460665e-06
7.59566027145e-06
-1.81761630381e-06
1.0439772392e-05
-2.47088739877e-06
1.41249393278e-05
-3.25888758977e-06
1.88682004144e-05
-4.17725842953e-06
2.49372699466e-05
-5.20172396851e-06
3.26602627064e-05
-6.27783956536e-06
4.24359051348e-05
-7.31314513862e-06
5.47262639324e-05
-8.17533091938e-06
7.00073727513e-05
-8.70955902998e-06
8.85900878775e-05
-8.80705153321e-06
0.000110280407531
-8.31883721789e-06
0.000133552101692
-7.02946911642e-06
0.000154460193697
-5.00309042899e-06
0.000166999897527
-2.38655109903e-06
0.000168502175457
0.000163443121755
-3.46823181805e-08
-1.56614740925e-07
1.66164488281e-06
-3.03039300381e-07
2.71179442423e-06
-5.12790025953e-07
4.09047429987e-06
-7.97174177355e-07
5.89684453997e-06
-1.16721540619e-06
8.25746946671e-06
-1.63453557771e-06
1.13266420856e-05
-2.20708763522e-06
1.52938690797e-05
-2.88726422477e-06
2.03882840364e-05
-3.66528857394e-06
2.68867226179e-05
-4.51212706062e-06
3.51192598558e-05
-5.3725567391e-06
4.54716317793e-05
-6.16240191808e-06
5.83658214655e-05
-6.77560849019e-06
7.41964793354e-05
-7.10661978705e-06
9.31364468567e-05
-7.08396424362e-06
0.000114795894428
-6.62739973898e-06
0.000137373475186
-5.53348289429e-06
0.00015671480936
-3.75177329834e-06
0.000167447587518
-1.61692835555e-06
0.000167946705427
0.000163295684214
4.41857436819e-08
-1.40425503132e-07
1.79438385625e-06
-2.69476170758e-07
2.92524006392e-06
-4.5313868656e-07
4.40578931182e-06
-7.00300281229e-07
6.34111472223e-06
-1.01879287171e-06
8.86328540578e-06
-1.4157869278e-06
1.21346429359e-05
-1.89548867295e-06
1.63529462967e-05
-2.45649905068e-06
2.17555810072e-05
-3.08696734078e-06
2.86238275793e-05
-3.76074264157e-06
3.72859545894e-05
-4.4320543419e-06
4.81097436672e-05
-5.03908247675e-06
6.14800573657e-05
-5.5094425655e-06
7.77209345425e-05
-5.78375170684e-06
9.69068851901e-05
-5.81556865326e-06
0.000118504139031
-5.44862555166e-06
0.000140434868962
-4.39996650786e-06
0.000158394158898
-2.71851141435e-06
0.000167626391698
-9.16965112568e-07
0.000167422808771
0.000163262727889
2.00148173367e-07
-1.2374953722e-07
1.91679249221e-06
-2.38658387015e-07
3.12204600919e-06
-4.01047668752e-07
4.69604741216e-06
-6.17146628135e-07
6.74852416862e-06
-8.92304455002e-07
9.41653465709e-06
-1.23019852997e-06
1.2868132441e-05
-1.6313409664e-06
1.7306627806e-05
-2.0914454029e-06
2.297432405e-05
-2.59762290774e-06
3.01526029069e-05
-3.12543515185e-06
3.91623539694e-05
-3.63859401808e-06
5.03525376124e-05
-4.0905010923e-06
6.40717216852e-05
-4.43595601794e-06
8.05943702574e-05
-4.65003134548e-06
9.9939562685e-05
-4.68351448624e-06
0.000121456925342
-4.37186454353e-06
0.000142854219772
-3.40912613358e-06
0.000159634066628
-1.84615862042e-06
0.000167539402561
-3.74633343828e-07
0.000166869123459
0.000163226027137
2.86798238706e-07
-1.14234095649e-07
2.0302184801e-06
-2.17028467808e-07
3.30396216317e-06
-3.6134038271e-07
4.96396071796e-06
-5.51695973967e-07
7.12358916225e-06
-7.91106589676e-07
9.92347494616e-06
-1.08049546757e-06
1.35355368775e-05
-1.41817250857e-06
1.81667549713e-05
-1.79743174372e-06
2.40600298856e-05
-2.2064073172e-06
3.14948325733e-05
-2.62585231236e-06
4.07820587007e-05
-3.02895476752e-06
5.22502100779e-05
-3.38875706532e-06
6.62220091438e-05
-3.67786834138e-06
8.29336310034e-05
-3.87584224051e-06
0.00010236750424
-3.91781366457e-06
0.000123784505964
-3.59091290907e-06
0.000144680267133
-2.57891978106e-06
0.000160350380393
-1.09306895246e-06
0.000167113908355
8.38585615498e-08
0.000166199018562
0.000163041300361
3.53618838724e-07
-1.0230139848e-07
2.13718296534e-06
-1.96855905702e-07
3.4752391552e-06
-3.28429863693e-07
5.21530830635e-06
-4.9993215224e-07
7.47356537569e-06
-7.12629683204e-07
1.03933492388e-05
-9.65904244473e-07
1.41491696762e-05
-1.25509064597e-06
1.89478464335e-05
-1.5729903592e-06
2.50318487041e-05
-1.90744234451e-06
3.26739803876e-05
-2.24335189232e-06
4.21746927199e-05
-2.56523650585e-06
5.3846647066e-05
-2.8559536354e-06
6.79876242537e-05
-3.10762526679e-06
8.48177653104e-05
-3.30815784164e-06
0.00010429673849
-3.34914321191e-06
0.000125574434021
-2.97467626283e-06
0.000145949187526
-1.88930164976e-06
0.000160514605187
-4.3497258136e-07
0.00016623901798
5.24638914226e-07
0.00016522834746
0.000162589530486
4.23950868212e-07
-9.64693332492e-08
2.23800297244e-06
-1.84043966275e-07
3.63629861573e-06
-3.05104309374e-07
5.4508151345e-06
-4.61549131185e-07
7.7997220688e-06
-6.534586556e-07
1.08279435918e-05
-8.78381617891e-07
1.47102179072e-05
-1.13135359068e-06
1.96525089455e-05
-1.40443157042e-06
2.58929254474e-05
-1.6875785529e-06
3.36969047927e-05
-1.97096869785e-06
4.33541839571e-05
-2.2450831261e-06
5.516134725e-05
-2.50671370753e-06
6.94039158798e-05
-2.75151899957e-06
8.62874372176e-05
-2.96727362357e-06
0.000105763937018
-3.03424232266e-06
0.000126878000883
-2.59782579483e-06
0.000146635199891
-1.38083994483e-06
0.000160007023088
-2.9869405879e-08
0.000164898612818
7.23098702419e-07
0.000163852254712
0.000161524030411
4.96205816608e-07
-9.08543015127e-08
2.33523357346e-06
-1.72380306318e-07
3.79096509705e-06
-2.8428394254e-07
5.6757367846e-06
-4.27746258545e-07
8.10904725093e-06
-6.01683086266e-07
1.12357116323e-05
-8.03198005233e-07
1.52298064249e-05
-1.02645502607e-06
2.02933354316e-05
-1.26457877196e-06
2.66590183421e-05
-1.51006410409e-06
3.45828119105e-05
-1.75683237086e-06
4.43424314124e-05
-2.00477183693e-06
5.62245055827e-05
-2.25843703113e-06
7.05059478086e-05
-2.52900364825e-06
8.73965124592e-05
-2.78595343227e-06
0.000106819188292
-2.86228476132e-06
0.000127692304481
-2.3509957058e-06
0.000146709461307
-1.05430853911e-06
0.000158825458388
3.14155670792e-07
0.00016293175477
9.48304183174e-07
0.000161897594491
0.000159844635968
5.3148953901e-07
-8.55081758496e-08
2.42947993331e-06
-1.62821676071e-07
3.94034493767e-06
-2.68219116972e-07
5.89137068965e-06
-4.0233985771e-07
8.40281729123e-06
-5.63867218812e-07
1.16184820241e-05
-7.49707278124e-07
1.57101479245e-05
-9.54656702369e-07
2.0874481107e-05
-1.17301030691e-06
2.73369667837e-05
-1.40036014608e-06
3.53439024984e-05
-1.63781443128e-06
4.51648764277e-05
-1.89017585325e-06
5.70768713922e-05
-2.16976954704e-06
7.13572427244e-05
-2.48469409366e-06
8.8216097998e-05
-2.79278711987e-06
0.000107540918944
-2.86055109095e-06
0.000128062315226
-2.20575601126e-06
0.000146139500346
-8.0801558542e-07
0.000156963204286
5.1289653089e-07
0.000160382853731
1.00267201518e-06
0.000159343452819
0.00015746421157
4.84075715362e-07
-8.51451325687e-08
2.51822598777e-06
-1.59507058599e-07
4.08013673362e-06
-2.60747603134e-07
6.09160239632e-06
-3.89522232172e-07
8.67278588978e-06
-5.44628555372e-07
1.1965270247e-05
-7.23672556217e-07
1.61375086446e-05
-9.23009481044e-07
2.13799927652e-05
-1.13958637687e-06
2.79106965653e-05
-1.37231208606e-06
3.59667792755e-05
-1.62461973882e-06
4.58104345934e-05
-1.90634725101e-06
5.77161585569e-05
-2.22988024398e-06
7.19625681954e-05
-2.60797741077e-06
8.87697717339e-05
-2.95367196934e-06
0.000107939434968
-3.00020560123e-06
0.000128013850343
-2.17264133338e-06
0.000144937936835
-6.77919535973e-07
0.000154459740632
5.5562212354e-07
0.000157321642807
9.71675139789e-07
0.000156180442417
0.000154301051569
4.61372449327e-07
-8.31139239435e-08
2.60198714546e-06
-1.56393059248e-07
4.21109648804e-06
-2.56238077351e-07
6.27729171778e-06
-3.83414997293e-07
8.91969610658e-06
-5.37395494471e-07
1.22770075457e-05
-7.1677265066e-07
1.65132782413e-05
-9.19660762916e-07
2.18123107796e-05
-1.14554273278e-06
2.83847543173e-05
-1.39722286646e-06
3.64605658973e-05
-1.68336982192e-06
4.62979144304e-05
-2.01642677793e-06
5.81692432374e-05
-2.41807061742e-06
7.23645052822e-05
-2.88144589229e-06
8.90856695873e-05
-3.28406176107e-06
0.00010802749266
-3.27115637395e-06
0.000127485205586
-2.25847921855e-06
0.000143053613611
-6.89991429493e-07
0.00015130199508
5.31046990145e-07
0.000153632382438
8.79849569371e-07
0.000152370524198
0.000150306124588
4.1703804945e-07
-8.31663750591e-08
2.68137029585e-06
-1.56848944526e-07
4.3341150496e-06
-2.57637523929e-07
6.44971991901e-06
-3.86751821101e-07
9.14544328925e-06
-5.4468201203e-07
1.25566121802e-05
-7.31498020706e-07
1.68423624276e-05
-9.47700384545e-07
2.21801349735e-05
-1.19595363679e-06
2.87742237814e-05
-1.48245376848e-06
3.68486060307e-05
-1.81827094638e-06
4.66582139271e-05
-2.22443237366e-06
5.84816303974e-05
-2.71604268798e-06
7.26059967201e-05
-3.27233087134e-06
8.92059597404e-05
-3.73915813176e-06
0.000107846402689
-3.61918126936e-06
0.000126462928747
-2.4161174729e-06
0.000140508265903
-8.14756627673e-07
0.000147556439638
3.23715234264e-07
0.000149388227577
6.63462189488e-07
0.000147880090318
0.000145449701379
2.98222792719e-07
-8.56067781794e-08
2.7560375475e-06
-1.6178674418e-07
4.44866517925e-06
-2.66845004484e-07
6.60820909901e-06
-4.029345202e-07
9.34938896155e-06
-5.72178479374e-07
1.28040113639e-05
-7.76763671606e-07
1.7126145776e-05
-1.02028802945e-06
2.24878578075e-05
-1.30860442188e-06
2.90878606978e-05
-1.65196101648e-06
3.71466725888e-05
-2.06638042174e-06
4.69190360709e-05
-2.57431966562e-06
5.86880655869e-05
-3.18199206315e-06
7.27283365541e-05
-3.84961003179e-06
8.91741663631e-05
-4.37028603429e-06
0.000107423172867
-4.09613705951e-06
0.00012495115417
-2.72344954051e-06
0.000137378297236
-1.13985776591e-06
0.000143336930604
-1.13379673806e-07
0.000144678873048
2.75191294721e-07
0.000142721964316
0.000139646718776
1.75669005456e-07
-8.98189361469e-08
2.8251959576e-06
-1.71472643711e-07
4.55370701635e-06
-2.85341913741e-07
6.75154180884e-06
-4.35103183103e-07
9.53058101622e-06
-6.25038129396e-07
1.30192045946e-05
-8.60106320534e-07
1.73667812109e-05
-1.14732054126e-06
2.27410696838e-05
-1.49657554623e-06
2.93369100769e-05
-1.92234531345e-06
3.73733078657e-05
-2.44416877364e-06
4.71060709763e-05
-3.08397935305e-06
5.88203708039e-05
-3.85351757458e-06
7.27838455985e-05
-4.65728144982e-06
8.9026017101e-05
-5.19759056854e-06
0.000106741320285
-4.74135802894e-06
0.000122942937173
-3.24344524121e-06
0.000133722537533
-1.71321392973e-06
0.000138701616513
-7.60754051925e-07
0.000139526359151
-3.52444562997e-07
0.000136973757425
0.000132873537319
-7.15989258255e-08
-9.78796827773e-08
2.89089109451e-06
-1.88233731666e-07
4.65276702435e-06
-3.15819723375e-07
6.8853712202e-06
-4.86446964189e-07
9.69790099978e-06
-7.07079141499e-07
1.32155740026e-05
-9.86205038472e-07
1.75839533834e-05
-1.33533096259e-06
2.29680931164e-05
-1.76849857334e-06
2.95596239333e-05
-2.30577781781e-06
3.75790025765e-05
-2.97290335495e-06
4.72851757451e-05
-3.7951767143e-06
5.89633633024e-05
-4.75178508131e-06
7.28372231858e-05
-5.7210409998e-06
8.88352153353e-05
-6.264227563e-06
0.000105837084528
-5.62757804384e-06
0.000120487977361
-4.11458415316e-06
0.000129689652917
-2.75984860843e-06
0.000133821052745
-1.85769561301e-06
0.000133975127163
-1.26062962326e-06
0.00013056099169
0.000125047238237
-4.33855341957e-07
-1.10751738121e-07
2.95701741959e-06
-2.13098204295e-07
4.75214940334e-06
-3.59761212169e-07
7.01988846461e-06
-5.58652141801e-07
9.86621125329e-06
-8.20609183465e-07
1.34148245755e-05
-1.15781133007e-06
1.78075853717e-05
-1.58722681045e-06
2.32091473455e-05
-2.12863700868e-06
2.98091495006e-05
-2.80861241553e-06
3.78311621296e-05
-3.65852669637e-06
4.75371661758e-05
-4.6995490907e-06
5.9202675653e-05
-5.89739310847e-06
7.29971293589e-05
-7.06740139158e-06
8.87004504904e-05
-7.58171257383e-06
0.000104758387143
-6.83415808959e-06
0.000117734143106
-5.43937387528e-06
0.000125509394409
-4.2849299729e-06
0.000128852313454
-3.44626214953e-06
0.000128207080324
-2.56611750569e-06
0.000123596689363
0.000116100912907
-9.07346584072e-07
-1.29521820059e-07
3.02729587207e-06
-2.50705549894e-07
4.85844366791e-06
-4.26095778586e-07
7.16524583676e-06
-6.66737413253e-07
1.00511168374e-05
-9.8734457096e-07
1.36393523041e-05
-1.40495240067e-06
1.80697143045e-05
-1.94194218753e-06
2.35079667656e-05
-2.6258266098e-06
3.01451243076e-05
-3.4904651858e-06
3.82084195966e-05
-4.57346849335e-06
4.79622625003e-05
-5.87604635218e-06
5.96459213038e-05
-7.35290936327e-06
7.33837364587e-05
-8.71804277738e-06
8.87246007421e-05
-9.18587070712e-06
0.000103619023319
-8.45108612285e-06
0.000114930348385
-7.32837513756e-06
0.000121489957332
-6.43053359978e-06
0.000124044405898
-5.58558317369e-06
0.000122376501745
-4.26035916672e-06
0.000116168361622
0.000105987180488
-1.48802132481e-06
-1.54851091544e-07
3.10519078837e-06
-3.00589941096e-07
4.97788372101e-06
-5.12352634623e-07
7.33065317799e-06
-8.05549273672e-07
1.02668400656e-05
-1.19819542561e-06
1.39088723317e-05
-1.71332978017e-06
1.83978234991e-05
-2.3797162584e-06
2.39019572105e-05
-3.23180825369e-06
3.06150673211e-05
-4.3167894958e-06
3.8775224788e-05
-5.65767173706e-06
4.86218964494e-05
-7.26271287528e-06
6.03809961355e-05
-9.03889872663e-06
7.40835522788e-05
-1.05538712108e-05
8.89660403654e-05
-1.09806566759e-05
0.00010255062412
-1.04066701428e-05
0.000112358339184
-9.65476384529e-06
0.000117915905926
-9.04030750586e-06
0.000119659309236
-8.18519661235e-06
0.000116755097447
-6.30731175784e-06
0.000108448161083
9.46840444859e-05
-2.1908245628e-06
-1.79153659178e-07
3.19295678459e-06
-3.4947574442e-07
5.11380155915e-06
-5.98377120631e-07
7.52206483658e-06
-9.44581593486e-07
1.05215408386e-05
-1.41077425097e-06
1.42357503021e-05
-2.02505850424e-06
1.88081986359e-05
-2.82286740564e-06
2.44121669425e-05
-3.84636761467e-06
3.12461735673e-05
-5.1330319084e-06
3.95425654169e-05
-6.71216188893e-06
4.95332166705e-05
-8.59946800927e-06
6.14371618945e-05
-1.06246586542e-05
7.5126853758e-05
-1.22035390324e-05
8.94703540719e-05
-1.26545139016e-05
0.000101763304636
-1.24003469845e-05
0.000110349241641
-1.20936246735e-05
0.000115088067515
-1.17629852648e-05
0.000115962767707
-1.08442329031e-05
0.000111574922791
-8.40020489234e-06
0.000100685798714
8.22863632441e-05
-2.8560802698e-06
-1.93266217467e-07
3.29032117743e-06
-3.789190343e-07
5.26572460218e-06
-6.51593274512e-07
7.73890109818e-06
-1.03193349839e-06
1.08138963444e-05
-1.54799795352e-06
1.46189880541e-05
-2.232030782e-06
1.92993349426e-05
-3.12435758868e-06
2.50342060257e-05
-4.26216062232e-06
3.20175085368e-05
-5.6833469432e-06
4.04824246521e-05
-7.42753384743e-06
5.06673476895e-05
-9.48357741631e-06
6.27622887863e-05
-1.15948109738e-05
7.64607737604e-05
-1.30909391423e-05
9.0261508917e-05
-1.35894423841e-05
0.000101463668748
-1.36835761066e-05
0.000109156924199
-1.3770167926e-05
0.000113218324937
-1.36519025302e-05
0.000113165536004
-1.26539120665e-05
0.000107094607574
-9.8494341341e-06
9.3323621055e-05
6.9294605272e-05
-3.26064789132e-06
-1.89431524468e-07
3.38981405576e-06
-3.73408324541e-07
5.42212187828e-06
-6.44005324351e-07
7.9637895567e-06
-1.02363273919e-06
1.11215147009e-05
-1.53883948383e-06
1.50254766787e-05
-2.21966682286e-06
1.98223386238e-05
-3.09658145644e-06
2.56898867046e-05
-4.21262636665e-06
3.28333909156e-05
-5.61697133542e-06
4.14929283225e-05
-7.3424620839e-06
5.19004705497e-05
-9.33794908257e-06
6.42067478681e-05
-1.12727888232e-05
7.79520986504e-05
-1.2512618433e-05
9.13494004654e-05
-1.30076160059e-05
0.000101808119749
-1.33125011327e-05
0.000108890262811
-1.35387958374e-05
0.000112312692972
-1.34817526654e-05
0.000111361777907
-1.27071749086e-05
0.000103837094126
-9.86767628866e-06
8.68620375695e-05
5.67606858769e-05
-3.11657600972e-06
-1.61084677616e-07
3.4806332864e-06
-3.16995599994e-07
5.5653917037e-06
-5.47263560253e-07
8.17002144209e-06
-8.68552615209e-07
1.14006835763e-05
-1.30275662038e-06
1.53903024054e-05
-1.87566375626e-06
2.02877965424e-05
-2.62093857936e-06
2.62771898972e-05
-3.57536482086e-06
3.35670380311e-05
-4.78413231748e-06
4.24098747975e-05
-6.27623370833e-06
5.30408673694e-05
-7.96931362052e-06
6.55763217788e-05
-9.42031721825e-06
7.93971452353e-05
-1.00038672488e-05
9.2506018291e-05
-1.00766564966e-05
0.000102581063693
-1.01720353402e-05
0.000109328074908
-1.04933090792e-05
0.000112510105634
-1.06958508546e-05
0.000110916569167
-1.01451312924e-05
0.000101907021989
-7.78552024036e-06
8.18747027502e-05
4.62818168912e-05
-2.20920573854e-06
-1.03376734765e-07
3.5412747498e-06
-1.99996967099e-07
5.65968576855e-06
-3.40320321821e-07
8.30336485023e-06
-5.34521810708e-07
1.15795230054e-05
-7.92783708835e-07
1.56195492729e-05
-1.12895981944e-06
2.05749117703e-05
-1.5599688779e-06
2.66312420746e-05
-2.10553053485e-06
3.39996883387e-05
-2.78220122881e-06
4.29328556377e-05
-3.61024122081e-06
5.36899807244e-05
-4.54177152581e-06
6.6412869429e-05
-5.38471439951e-06
8.06331743818e-05
-5.60290584644e-06
9.40427678294e-05
-5.51866930099e-06
0.000104163264255
-5.52207072599e-06
0.000110721361892
-5.73834028987e-06
0.000113674586275
-5.71884582818e-06
0.000111251032855
-5.44863855808e-06
0.000101146603809
-3.6395974431e-06
7.83041673253e-05
3.98066299142e-05
-7.16278822805e-07
-4.42890456815e-08
-8.62001527603e-08
-1.45479878798e-07
-2.26322647154e-07
-3.30984627829e-07
-4.64877765017e-07
-6.28412273429e-07
-8.29198638102e-07
-1.05988380073e-06
-1.33015304897e-06
-1.58991107158e-06
-1.71096858468e-06
-1.19239572329e-06
-3.78858232237e-07
3.13192780203e-07
4.49407361593e-07
6.02333805922e-07
1.66266153239e-07
6.53765368594e-07
7.08177354532e-07
-3.86301701415e-07
2.72086223995e-05
2.36339564108e-05
-6.7606072893e-08
2.81789749928e-05
2.49220405291e-05
1.35260305855e-07
2.9000899726e-05
2.62631922767e-05
2.12511978497e-07
2.97289530133e-05
2.75525396189e-05
2.14477944371e-07
3.03174570155e-05
2.87563168093e-05
1.28893665346e-07
3.08524392133e-05
2.97904759533e-05
9.55285058053e-08
3.12997838356e-05
3.07004518273e-05
9.58980942494e-08
3.17204868687e-05
3.15006552387e-05
9.24365761003e-08
3.20934274962e-05
3.2174367774e-05
1.17685481472e-07
3.24092684347e-05
3.27509061211e-05
1.94421186743e-07
3.26837905356e-05
3.32771257957e-05
1.94094720287e-07
3.29339550444e-05
3.36799968837e-05
2.48895380017e-07
3.30701751961e-05
3.40116655162e-05
2.65109277034e-07
3.311768425e-05
3.42062136377e-05
2.9424093653e-07
3.30401602268e-05
3.42611549012e-05
3.14178007952e-07
3.28007108365e-05
3.41478330903e-05
2.71226004406e-07
3.23736650615e-05
3.38081189802e-05
2.69116053896e-07
3.17518879695e-05
3.32828621019e-05
2.41619711954e-07
3.09316806479e-05
3.25503672136e-05
1.68434742594e-07
2.98936607774e-05
3.15640169085e-05
1.02128477923e-07
2.86385560507e-05
3.0352784886e-05
-2.41814863765e-08
2.71294687452e-05
2.88765315585e-05
-2.18028387207e-07
2.53318312305e-05
2.70951664496e-05
-4.60080935928e-07
2.32311383256e-05
2.50069732125e-05
-7.54917717812e-07
2.08153204504e-05
2.26082061027e-05
-1.08598909412e-06
1.80424095722e-05
1.99079244629e-05
-1.38500229209e-06
1.4956646677e-05
1.69770691342e-05
-1.53967292238e-06
1.16938509577e-05
1.39846043495e-05
-1.40882544206e-06
8.56828365569e-06
1.12200811245e-05
-9.31321908893e-07
6.03250970432e-06
9.01103975141e-06
-1.87533801862e-07
4.46618483595e-06
7.64546834776e-06
4.23649338061e-07
)
;

boundaryField
{
    inletfuel
    {
        type            calculated;
        value           nonuniform 0();
    }
    inletair
    {
        type            calculated;
        value           nonuniform 0();
    }
    outlet
    {
        type            calculated;
        value           nonuniform List<scalar> 
26
(
1.59673476831e-07
4.79859301953e-07
7.99844261949e-07
9.58522601666e-07
3.56684681846e-06
5.69946952836e-06
8.35798345531e-06
1.16515049166e-05
1.57095039249e-05