/*--------------------------------*- C++ -*----------------------------------*\
  =========                 |
  \\      /  F ield         | OpenFOAM: The Open Source CFD Toolbox
   \\    /   O peration     | Website:  https://openfoam.org
    \\  /    A nd           | Version:  7
     \\/     M anipulation  |
\*---------------------------------------------------------------------------*/
FoamFile
{
    version     2.0;
    format      ascii;
    class       volScalarField;
    location    "0.04";
    object      Qdot;
}
// * * * * * * * * * * * * * * * * * * * * * * * * * * * * * * * * * * * * * //

dimensions      [1 -1 -3 0 0 0 0];

internalField   nonuniform List<scalar> 
815
(
82652419.8171
83424701.0237
80960596.1443
7427740.00216
7454903.52553
7321476.19574
2429897.65734
2417374.07532
2383612.07366
960549.821797
954641.049842
939103.70551
308495.409969
306657.162335
301974.487708
84295.9086404
84003.5492981
83020.8478863
21533.1686869
21484.4872082
21299.8419722
5381.00817494
5379.75091791
5350.24154431
1367.30888166
1368.38870333
1365.16254619
365.780706425
366.786105531
367.303104403
113.781531133
114.229115653
114.864870345
50.7441560172
51.0041217519
51.4653846693
37.4093450329
37.5835297599
37.908555611
38.0325163228
38.1472932143
38.3874968002
43.238380733
43.341424633
43.5290630721
50.6274394742
50.6879854997
50.8187546913
59.2938931707
59.3315489188
59.3987773378
68.7455602232
68.7420335628
68.7157702579
78.2749008182
78.2093221395
78.0505827196
86.8715022729
86.7204476709
86.3843536102
93.233977902
92.9844899089
92.4398533717
96.0670841962
95.6993070016
94.9342914156
94.3492534299
93.8933448812
92.948113149
87.9272081939
87.4207407998
86.3661034302
77.5648482216
77.0510295152
75.9851154738
64.7542192735
64.2782109576
63.2913357982
51.2185445551
50.8101307168
49.9667843497
38.4857298972
38.1626183287
37.4964747355
28.2234813953
27.9822476608
27.4862738825
26.1436068052
25.9624766388
25.5480983138
31.7138198287
31.4992871323
30.9941114644
76520237.6279
7106154.13097
2335961.51058
917811.073371
295408.295132
81605.3727575
21019.6687365
5303.68645154
1359.04835735
367.687406237
115.693887212
52.12726327
38.393283547
38.7555406617
43.8233711531
51.0360782703
59.5296024204
68.7217860297
77.8794506471
85.9788738722
91.7588810453
93.9659142509
91.7425080445
85.0182962499
74.6179206051
62.0223351949
48.8812773329
36.6372283801
26.8408747898
24.9666903139
30.2766663279
435691.240696
259780.593081
174806.701408
112098.17576
52564.6862353
14869.9968765
1822.15161626
65886330.3287
49580613.4383
34586658.1421
23456113.5926
15926207.4761
10939913.9409
7474063.80462
4940459.52572
3055013.67739
1742537.24685
923861.227539
491933.201577
274261.182256
169327.837731
119076.746242
87979.1173507
58555.6449604
28928.5694487
8929.45780899
1014.27803843
6609825.94578
5841104.03952
5004120.63481
4157541.9377
3338935.34218
2557793.70978
1850480.27256
1252277.52833
794592.587088
479434.797451
280009.840765
165587.658684
105367.088557
75675.4449492
59607.0654018
46310.4599276
31145.1148781
15861.4007244
4718.65985438
518.500599508
2230318.40497
2026156.72922
1757260.7222
1448153.43415
1134311.05467
843915.214994
595965.66166
399829.643142
256001.204585
158663.850444
98062.5186799
63771.3747172
46113.2198075
37365.9865511
31616.4864258
25120.7741539
16963.3422999
8390.17714623
2221.2311514
251.994735702
870561.922825
777920.666604
659760.679954
530396.276643
405166.139626
294680.654233
204353.024841
135828.250717
87614.6322419
56233.4238285
37496.4651064
27387.7937903
22467.5479596
19907.503645
17487.8099089
13925.9916104
9261.9120351
4255.78826488
996.502402769
119.603020381
280876.040238
251714.357352
213862.381925
172018.64624
131351.235633
95642.1242279
66795.236084
45272.0340018
30439.4895878
21061.7276618
15742.837289
13127.5252851
11991.3405601
11241.7112157
10006.2383539
7891.9628839
5040.76214719
2092.21187211
450.769508289
56.2365883099
78313.6937923
71312.75263
61738.9393558
50683.2072628
39559.1184843
29547.3907969
21351.4586153
15235.5200671
11102.0885184
8635.60354288
7426.72810562
7015.09097605
6918.93664657
6665.01222124
5905.17918167
4546.47125349
2724.67545985
1018.96299023
206.890149672
26.2968066132
20354.1455218
18874.0382604
16737.8789211
14155.6005116
11451.5991066
8946.85475076
6875.68902685
5363.0923513
4427.24563619
4003.49122563
3963.47915687
4119.376847
4242.35732089
4108.03618977
3580.75445462
2656.79428718
1466.85161838
495.82228494
95.8281749626
12.273144668
5184.37842759
4901.6984912
4469.2128123
3921.69267791
3331.53888212
2782.47426783
2351.05833465
2091.37592139
2024.81336139
2134.57167463
2360.56864844
2598.21868252
2716.9140792
2603.98111602
2212.66296595
1559.33721081
783.237805891
240.24980516
44.6803998695
5.73180108656
1341.77700177
1295.95228329
1220.22910872
1121.81029921
1019.10260329
937.836557434
906.782097226
950.527502082
1080.21561857
1283.74349967
1518.35166098
1712.24133581
1783.49139444
1675.87230442
1378.15094125
911.763109524
413.795881828
115.852721752
20.9518620483
2.68487523629
367.411549432
364.433444626
357.931918503
350.986922972
350.747489499
368.31533416
417.617572617
511.581541218
654.85093083
835.143214816
1017.92106219
1150.53298121
1180.30673784
1080.79686097
854.598128006
525.568791793
215.175955739
55.6066962258
9.86278626586
1.26204475511
117.31324136
120.411674484
125.031915054
133.35507343
149.500289479
179.883484641
232.757306258
315.672288015
430.006533234
564.404880754
691.49466347
773.122312214
776.27589852
690.283560515
522.20676291
296.485607083
109.646399092
26.5351732872
4.64569286423
0.594453315482
53.5279777484
56.5576457271
61.5203850374
70.0567737768
84.9265020788
110.25959198
151.280597406
212.492238458
293.728220151
385.468511274
467.195745424
512.627175983
501.883860679
432.236643039
311.57842777
162.664816644
54.6411353779
12.576628939
2.18424485634
0.279898247262
39.4304752146
41.6877309705
45.4391235593
51.8725142356
62.8316061571
80.9466267247
109.421519794
150.779902345
204.16085675
262.285231284
310.821420124
332.702533682
316.620711735
263.41972317
180.311114277
86.3885718327
26.6098535333
5.91314906315
1.02213209392
0.131407749386
39.5299663675
41.1293960919
43.7261002492
48.1430989479
55.5421742901
67.4598175836
85.6673109549
111.384409087
143.585427661
177.190951089
202.957682707
210.552403351
194.034010674
155.538362202
100.792928325
44.2756492077
12.6658855192
2.75101148525
0.474435956707
0.061284545945
44.4048129743
45.4816318525
47.1332703299
49.9061441497
54.451455279
61.5082126498
71.8540000704
85.9112857349
102.817376447
119.433814883
130.377666364
129.923681297
115.304918114
88.7885179578
54.2955611142
21.8717961961
5.89467883689
1.26346823391
0.217850109937
0.0283218719792
51.4373188421
52.0362266046
52.8474163845
54.2159018581
56.4223892374
59.6481029307
64.0328025599
69.5970779
75.8385882018
81.1976803867
83.0013730017
78.4477993029
66.5152641019
49.0104793627
28.1495244199
10.4187543329
2.68608417873
0.571860539185
0.0987735533407
0.0129449307791
59.7172026433
59.7828393336
59.7204560816
59.7331068819
59.8489939065
59.898763935
59.6833438696
59.1237985847
58.161390444
56.4143712268
52.9522711749
46.6823904158
37.4018106159
26.2238589166
14.0432482326
4.79465323974
1.20006056522
0.254961395835
0.04419279772
0.00585363614855
68.6201528295
68.0154860255
66.9272256392
65.470205489
63.5319951759
60.7822941531
56.9314093972
52.0075032367
46.3768420353
40.4381563329
34.2649032832
27.6501649369
20.6476703969
13.6579619369
6.74837886062
2.14016834673
0.526760019709
0.11208292056
0.0195359214967
0.00262075342775
77.383880891
75.9177028773
73.5823379303
70.4588947935
66.4075603227
61.1110757746
54.3783197537
46.4490931738
38.0174170152
29.9124514146
22.6833277268
16.4824255001
11.3032209605
6.96380982246
3.13340752948
0.932554676583
0.227957687381
0.0486919502719
0.00856046458321
0.00116378259137
84.9790461042
82.4634522175
78.6771680803
73.7277145426
67.558881355
60.0087162119
51.0986276068
41.2906857945
31.4643159812
22.5991261561
15.3724979973
9.97530099833
6.20665741702
3.49919342039
1.41462960735
0.400210088729
0.0977897736406
0.0210053327737
0.00373224620265
0.000513956566512
90.1791791246
86.5084411137
81.1949805696
74.4319089392
66.3370408117
56.9897316615
46.6537997794
35.9524553562
25.8073212642
17.1523639889
10.5791173252
6.15004470282
3.45412663804
1.74335250002
0.627384566996
0.171076946319
0.0419258459838
0.00906602588327
0.00162917636333
0.000227003337663
91.80569065
87.0370336942
80.3457157183
72.0530527334
62.4940292279
52.0033171383
41.0444976011
30.3133065305
20.6609264213
12.8563113623
7.29448716707
3.85251888044
1.95903550245
0.864729272325
0.277425554448
0.0738655096374
0.0181681878942
0.00395641349942
0.000718110113769
0.000101051495677
89.1098903621
83.5050715372
75.84404528
66.5835776448
56.2581472806
45.4063397622
34.6137375192
24.5655039936
15.9747948226
9.38969867014
4.97531938547
2.43711659083
1.1281124606
0.428058745416
0.124570615233
0.032732888823
0.00807431592638
0.00176903055433
0.000323743616957
4.58578092597e-05
82.1172433324
76.1097133062
68.0774698379
58.5795640428
48.2830958707
37.8444865337
27.8932475516
19.0480631263
11.8523783808
6.62602641912
3.32798659731
1.54567650368
0.649392528208
0.212212580472
0.0578334700615
0.0151170739766
0.00373446645377
0.000821508250314
0.00015111563747
2.14223340458e-05
71.7056103146
65.7969289885
58.0369249986
49.0254266096
39.4786797445
30.0858785208
21.4571304261
14.1132595122
8.42278827408
4.50781117642
2.17852209986
0.972566518868
0.36594166053
0.10624806325
0.0281288052871
0.00735885477215
0.00181888467231
0.000400575205826
7.36562223987e-05
1.03252021391e-05
59.3373366841
53.9706982818
47.0168527903
39.0549158423
30.774657947
22.8318679381
15.7741348686
10.0068629053
5.74488610233
2.96402271121
1.39588072494
0.596434170035
0.200047416861
0.0543321420548
0.0143815593586
0.0037812626152
0.000934584866318
0.000205283255563
3.74126585541e-05
5.0860653509e-06
46.5935818508
42.0677433478
36.2560066055
29.6710910223
22.9220837219
16.586571052
11.122208881
6.82148255444
3.78013056205
1.89112108278
0.871212715133
0.350566689927
0.107027085029
0.0285120369061
0.00765970486598
0.00202726855338
0.000500348076276
0.000108996421251
1.94513371169e-05
2.48784597941e-06
34.8272346214
31.2630265714
26.7096035978
21.5841775351
16.390806854
11.6013291275
7.57447734947
4.50642139492
2.41778060665
1.17385183091
0.524992092577
0.197528260675
0.0567900645845
0.0152242618462
0.00415854920225
0.00110488538838
0.000270932377692
5.79265792908e-05
9.93416021318e-06
1.14568403085e-06
25.4740115005
22.7731483272
19.3267720847
15.4626713961
11.5779436956
8.04387775797
5.13191854454
2.97169988976
1.54526145407
0.722364788873
0.307123770847
0.107967142071
0.0298653203298
0.00807647291226
0.00222616043569
0.000588702620057
0.000141757926415
2.92337678762e-05
4.68083484735e-06
4.6242188532e-07
23.6942248054
21.1206300707
17.8287811505
14.1465675248
10.4685999572
7.15966374649
4.47777148341
2.52890137575
1.27064887476
0.556915280778
0.206163037243
0.0608390653424
0.0154146829724
0.00409918809251
0.00112034128389
0.000290134701631
6.72364191852e-05
1.30268165681e-05
1.88744123141e-06
1.56577405509e-07
28.7049089812
25.5323290039
21.474385817
16.9401785285
12.429845377
8.40275548946
5.17810875923
2.87070565852
1.40849840774
0.594516632506
0.202805194623
0.0491428930214
0.00924807762968
0.00206700995832
0.000534614529703
0.000134912627404
3.03091193783e-05
5.65942200295e-06
7.83607893781e-07
6.4356151639e-08
316.241199906
62.8288337171
193.824693753
42.1686798103
109.565307264
25.7367453783
58.6110901532
14.5205700985
30.1400512561
7.67208278398
15.1139918165
3.88196388682
7.44301935964
1.90188811915
3.62632138378
0.917350640224
1.75699239615
0.439730507727
0.850379898314
0.211605264613
0.411774013357
0.102014293184
0.199382923159
0.0492007789983
0.0963238266313
0.0237466238591
0.0463028556537
0.0114076272735
0.0220871649722
0.00544811307773
0.0104263295437
0.00257836154567
0.00485963647764
0.00120670243658
0.00224007873611
0.000559827548539
0.00102111264767
0.000257338494156
0.000460804799433
0.000117222129643
0.000206504413406
5.3122355769e-05
9.22509097307e-05
2.39885799247e-05
4.1380689935e-05
1.0863556406e-05
1.88512919683e-05
4.9828339489e-06
8.79656949755e-06
2.33292284462e-06
4.19688468935e-06
1.10505060148e-06
2.01130799114e-06
5.16429023676e-07
9.29094652896e-07
2.25928318822e-07
3.84154055473e-07
8.50352429511e-08
1.28635409229e-07
2.52386821548e-08
3.35547594377e-08
6.16464474273e-09
1.16789876503e-08
2.43172241207e-09
)
;

boundaryField
{
    inletfuel
    {
        type            zeroGradient;
    }
    inletair
    {
        type            zeroGradient;
    }
    outlet
    {
        type            zeroGradient;
    }
    axis
    {
        type            empty;
    }
    leftside
    {
        type            zeroGradient;
    }
    burnerwall
    {
        type            zeroGradient;
    }
    front
    {
        type            wedge;
    }
    back
    {
        type            wedge;
    }
    procBoundary1to0
    {
        type            processor;
        value           nonuniform List<scalar> 
27
(
122583636.48
123977661.869
127199879.452
132419163.397
1244053.59486
625723.159162
370759.654763
221554.308842
96605.886143
23411.5459949
3080.91564783
144871005.922
170488440.043
209634151.835
235374214.23
144505149.604
81187347.0636
44336655.1527
24609999.7144
14028822.2031
7733244.08058
3937753.45557
1850472.23983
857735.910674
857735.910674
492.064373639
89.6264926792
)
;
    }
}


// ************************************************************************* //
