/*--------------------------------*- C++ -*----------------------------------*\
  =========                 |
  \\      /  F ield         | OpenFOAM: The Open Source CFD Toolbox
   \\    /   O peration     | Website:  https://openfoam.org
    \\  /    A nd           | Version:  7
     \\/     M anipulation  |
\*---------------------------------------------------------------------------*/
FoamFile
{
    version     2.0;
    format      ascii;
    class       volScalarField;
    location    "0.04";
    object      T;
}
// * * * * * * * * * * * * * * * * * * * * * * * * * * * * * * * * * * * * * //

dimensions      [0 0 0 1 0 0 0];

internalField   nonuniform List<scalar> 
815
(
1336.55839945
1335.80372115
1329.33178415
903.489139481
902.731603992
899.963730514
736.941654805
736.306529486
734.664234336
658.657191866
658.25677428
657.323441019
621.775066892
621.518127063
620.932926201
603.363852569
603.122159198
602.584631239
591.429183282
591.159915337
590.567367293
581.372254324
581.071546036
580.411626458
571.728853788
571.399726541
570.678191235
562.04838741
561.695562733
560.923251315
552.202503632
551.827760376
551.010630532
542.139039846
541.749814198
540.90008022
531.88715067
531.48362503
530.606945002
521.447940547
521.039038226
520.14890632
510.873268423
510.463407878
509.571824146
500.21839899
499.813425558
498.932994556
489.534951397
489.143681414
488.29115158
478.924687021
478.550499446
477.73839575
468.488123818
468.138499457
467.381603749
458.36201606
458.043737785
457.355994444
448.717635572
448.435721387
447.828254777
439.739821357
439.498985108
438.979738007
431.618545226
431.420279011
430.991795688
424.518340325
424.359787799
424.018137832
418.535474255
418.412957478
418.14986779
413.68549623
413.594114373
413.398207698
409.897910454
409.832517058
409.692120182
407.040605309
406.996081838
406.899818978
404.952700703
404.924108775
404.861134447
403.483959644
403.465783455
403.425533022
402.5048632
402.493100584
402.467077144
1319.68465437
896.16776365
732.473684862
656.073910881
620.138797014
601.848990149
589.754005078
579.503776425
569.684546755
559.859011855
549.886373366
539.731967283
529.404748377
518.930709764
508.353478991
497.732258483
487.129220919
476.632958063
466.352463084
456.421722682
447.003717513
438.275049185
430.409823089
423.553442483
417.791410032
413.131128204
409.500501481
406.768151274
404.774744666
403.370183985
402.431410589
956.42317085
989.629321621
974.270198671
837.108614612
610.926583459
471.131518328
485.328806958
1295.71570743
1260.21486319
1216.00451535
1165.64567555
1112.15279787
1055.57610499
996.707367411
939.158392156
886.851066209
845.432874272
821.944082287
819.773823739
832.881398647
851.680908813
854.135783775
804.716446626
687.725678642
546.255033633
470.690995534
500.763962756
887.761086555
874.071276582
856.484435852
835.946940253
813.741240819
790.287875113
767.850597245
749.303945627
737.136597599
732.3508643
734.653905673
742.730026494
752.219253985
754.256116819
734.417186944
678.52537005
592.216676534
507.37980461
475.783430426
514.22846909
727.929545389
719.837690796
709.877831522
699.220942978
689.308271286
681.067509658
675.117453636
671.807477416
671.239935673
673.20938328
676.901070919
680.440672446
680.05435521
669.551526287
641.804031999
593.814540501
535.27901476
487.890463963
484.042833303
524.183411825
653.531112607
649.097162371
644.065702231
639.175730063
635.074018817
632.097525248
630.290220122
629.498403103
629.435450221
629.63071126
629.181797959
626.411977992
618.603625196
602.305562473
575.012148671
538.322958563
501.404769142
480.080611679
493.16124458
530.959145666
618.514782828
615.620058036
612.302540012
608.996879626
606.037263838
603.538783524
601.36200503
599.204501867
596.687339013
593.340128622
588.435571182
580.816782726
568.927225008
551.379001238
528.135500512
502.445564714
481.872138978
478.260900539
500.91084701
535.395415005
600.32436276
597.487992995
594.076371959
590.406924869
586.700610352
582.983023925
579.049952442
574.565458938
569.176474828
562.536951819
554.210882423
543.606631551
530.113669922
513.621617519
495.36139978
478.954788965
470.708589463
479.230152093
506.993743639
538.350066406
588.053244009
584.805352861
580.758343387
576.185724102
571.263114655
565.98531237
560.144131097
553.433739709
545.588727002
536.438314811
525.853609277
513.732847804
500.142903872
485.728293895
472.289857747
463.371522889
464.291447114
480.943863563
511.512473114
540.486078296
577.592174987
573.881616275
569.161334212
563.679455133
557.600551571
550.920567605
543.462958521
534.98733242
525.339161739
514.520929042
502.670316371
490.049892455
477.170926586
465.092696197
455.857609545
452.829696218
460.599250415
482.759009214
514.915573784
542.245434919
567.582043033
563.459745103
558.152224152
551.898116212
544.86246619
537.062749315
528.375590328
518.642470023
507.821095114
496.0688465
483.724360501
471.300040422
459.565019443
449.778540613
444.040106478
445.572379039
458.396395439
484.423772744
517.596031988
543.921709387
557.598861802
553.141088601
547.363427576
540.502905553
532.73759734
524.120409876
514.58883839
504.070100645
492.6258464
480.530789286
468.263620119
456.482973824
446.08741674
438.403003416
435.514494966
440.569470903
457.180151599
486.063766101
519.938366215
545.710772757
547.495379447
542.772379534
536.633220552
529.322578697
521.037227492
511.872727672
501.834381798
490.932946274
479.317577715
467.348629577
455.586124017
444.756279643
435.785544982
429.976221209
429.374870164
437.140336429
456.720068561
487.832615224
522.22489887
547.75789476
537.244415514
532.32682167
525.931285309
518.314371412
509.699913346
500.229053533
489.975054309
479.027913029
467.60419851
456.118314403
445.164840307
435.471051689
427.926493832
423.766796993
425.008190449
434.920111616
456.951306933
489.873624706
524.66920792
550.165968086
526.846544262
521.801509972
515.249486954
507.463539022
498.69552961
489.133048978
478.916297059
468.201274375
457.258526888
446.52360588
436.581418151
428.120067172
421.953477077
419.233884273
421.983580056
433.685944225
457.88450894
492.310426234
527.438071785
553.001561498
516.338953905
511.237751729
504.628345796
496.803586775
488.044792738
478.586483429
468.6236524
458.369752118
448.125785507
438.32506417
429.514566009
422.310665332
417.435583466
415.965992003
419.995139671
433.343273583
459.572079972
495.253022274
530.650457303
556.310435486
505.763943807
500.679995958
494.114168316
486.378305733
477.783677658
468.603952621
459.082333443
449.471413782
440.086567207
431.338363075
423.71167714
417.735218218
414.036722277
413.65277678
418.833048433
433.836517337
462.046502422
498.755083014
534.37143209
560.121379186
495.183107635
490.192405023
483.772453421
476.25221065
467.966854249
459.223389224
450.300106749
441.474355095
433.058650247
425.421171963
418.971956698
414.147440033
411.498663516
412.073175547
418.378970751
435.154485537
465.311863162
502.853085547
538.650430021
564.454980667
484.664356664
479.847794418
473.676547356
466.493502774
458.65313785
450.486149881
442.292034024
434.355906915
426.970679772
420.450989548
415.126396435
411.350866479
409.626355389
411.076189244
418.586239673
437.333464449
469.376226047
507.571485345
543.523448955
569.32498626
474.291799259
469.729161613
463.908377174
457.179805014
449.908831055
442.438464766
435.074942517
428.094032999
421.755427548
416.315327606
412.030108223
409.187636889
408.277648789
410.576691032
419.459453438
440.41589132
474.23200306
512.934330988
549.016722634
574.74388628
464.175969165
459.94561054
454.572222804
448.404920099
441.810233517
435.129828549
428.661835385
422.659626918
417.343448623
412.913350188
409.562810848
407.536794645
407.356462365
410.545531508
421.062602017
444.463812915
479.888863057
518.998226855
555.150298966
580.716838727
454.448146156
450.620927611
445.779668247
440.262335965
434.424719397
428.59478324
423.04981091
418.013399704
413.664011866
410.151890654
407.623533726
406.307011345
406.8103337
411.016443668
423.531142773
449.566064369
486.391671779
525.818427692
561.956549028
587.233172209
445.263395051
441.894953251
437.64959077
432.843977042
427.811637608
422.855792688
418.224941141
414.108341649
410.645504707
407.946158024
406.127564037
405.43480793
406.635010915
412.104644897
427.081492375
455.843299938
493.825063292
533.462462914
569.446542364
594.242447367
436.787712667
433.911704866
430.297768515
426.231971921
422.016070407
417.920737297
414.160484741
410.890697258
408.216641642
406.218939784
405.007485971
404.888675376
406.8875827
414.027518997
431.995190754
463.428334514
502.297025644
541.966718177
577.580028177
601.640644835
429.180827171
426.804058059
423.824063638
420.489834447
417.064270602
413.780843769
410.818842793
408.301500526
406.307646341
404.90264896
404.216235489
404.677264783
407.70839619
417.116916313
438.568173747
472.402433661
511.829049088
551.266492782
586.189761354
609.256253406
422.571967967
420.673104503
418.296609427
415.65050661
412.955567086
410.405804522
408.14696093
406.274466215
404.84936665
403.939069813
403.72985545
404.862068553
409.340520804
421.775161418
446.96579118
482.690308351
522.269524915
561.099907766
594.970221127
616.869181776
417.03439864
415.56887943
413.737516958
411.70715881
409.65660649
407.741501801
406.076672694
404.736106521
403.773053753
403.278173077
403.54347794
405.545450583
412.064301792
428.2297587
456.936791958
493.828539177
533.063406449
570.858266707
603.422970246
624.275132148
412.566986316
411.474748522
410.111543338
408.606217371
407.09791167
405.70757725
404.523691366
403.604968718
403.008593143
402.871202831
403.649835364
406.800854889
415.985015129
436.176447836
467.624417584
504.866464975
543.227434786
579.642714981
610.931839015
631.293451717
409.095198137
408.310029358
407.330602587
406.252740148
405.180368458
404.204691501
403.392961072
402.795022822
402.480389616
402.64912399
403.970016576
408.485236902
420.643567427
444.430310835
477.472836302
514.29197104
551.351482834
586.313928474
616.801903083
637.848718348
406.488511952
405.945194753
405.267117374
404.522071019
403.785472645
403.123372062
402.586541283
402.21937276
402.10436026
402.498993763
404.271299979
410.034042537
424.804374132
451.109374217
484.600468905
520.406651808
556.000428522
589.839877761
620.474377213
643.935871953
404.589897351
404.228361656
403.776044181
403.279263568
402.790027309
402.354838331
402.011147864
401.797767778
401.799454115
402.292580549
404.23851672
410.627632943
426.87589394
454.286149703
487.308861532
521.823364386
556.15326005
589.583393615
621.675025367
649.491379186
403.251447558
403.017511786
402.724118187
402.401869432
402.085693826
401.806937595
401.591507369
401.468607478
401.507020177
401.937101678
403.604900653
409.470676607
425.4651313
452.715209319
484.903287257
518.390842032
552.198794575
586.308410954
620.989901922
654.096398117
402.354468756
402.202162782
402.01110372
401.801601084
401.59694962
401.417986189
401.281897713
401.208328491
401.245086344
401.552187151
402.722205488
407.083954128
420.823168398
447.081143928
479.073613951
512.662819831
547.291422418
583.121693282
620.590841807
656.817970096
553.037708048
554.694271209
544.219993625
541.766789037
539.137470433
533.083780802
536.512468782
527.292891418
535.116466054
523.252363186
534.334126092
520.297502184
533.900754452
518.082057461
533.787080694
516.459142055
534.000027361
515.369286118
534.596902124
514.792165848
535.561967707
514.69818843
536.928268549
515.076434156
538.722720554
515.928465215
540.96122079
517.243020442
543.657039635
519.022528635
546.816995677
521.260566694
550.448283929
523.95150024
554.557711598
527.09695118
559.139988995
530.683606758
564.175343741
534.684797189
569.632113276
539.069534456
575.44055334
543.764303937
581.499277661
548.679748403
587.672516154
553.678038499
593.803245924
558.584138549
599.688603762
563.143595728
605.200956852
567.041117143
610.230561312
569.926383272
614.671062079
571.567712141
618.26276283
572.140984009
620.494571151
572.557883086
621.367840973
574.141934674
)
;

boundaryField
{
    inletfuel
    {
        type            fixedValue;
        value           nonuniform 0();
    }
    inletair
    {
        type            fixedValue;
        value           nonuniform 0();
    }
    outlet
    {
        type            zeroGradient;
    }
    axis
    {
        type            empty;
    }
    leftside
    {
        type            fixedValue;
        value           uniform 294;
    }
    burnerwall
    {
        type            zeroGradient;
    }
    front
    {
        type            wedge;
    }
    back
    {
        type            wedge;
    }
    procBoundary1to0
    {
        type            processor;
        value           nonuniform List<scalar> 
27
(
1925.04130523
1925.91708529
1930.56896555
1937.06589709
1099.46609914
1128.53924422
1161.5832232
1047.30738584
704.001256728
479.649320069
469.679179032
1948.73159487
1962.77215275
1951.12221364
1884.77569113
1777.16774335
1652.4462307
1519.53283803
1378.78180854
1241.59027241
1117.95809375
1019.32811967
957.45152034
937.769871971
937.769871971
564.836308299
572.428130037
)
;
    }
}


// ************************************************************************* //
