/*--------------------------------*- C++ -*----------------------------------*\
  =========                 |
  \\      /  F ield         | OpenFOAM: The Open Source CFD Toolbox
   \\    /   O peration     | Website:  https://openfoam.org
    \\  /    A nd           | Version:  7
     \\/     M anipulation  |
\*---------------------------------------------------------------------------*/
FoamFile
{
    version     2.0;
    format      ascii;
    class       volVectorField;
    location    "0.04";
    object      U;
}
// * * * * * * * * * * * * * * * * * * * * * * * * * * * * * * * * * * * * * //

dimensions      [0 1 -1 0 0 0 0];

internalField   nonuniform List<vector> 
815
(
(0.18800069995 -2.87821241053e-11 4.92432381406)
(0.47544405429 -7.7881821137e-11 4.99354050631)
(0.758524426476 -1.09706187247e-10 4.98426832254)
(0.0642620884349 -4.9786833361e-11 4.15819461761)
(0.163616566425 -1.41357684819e-10 4.22236869485)
(0.262103311629 -2.55167891384e-10 4.23920822012)
(0.0243452146557 -1.52809498907e-10 3.68113981125)
(0.0617556460239 -1.30816134091e-10 3.75418124932)
(0.100404425341 -1.33045496413e-10 3.79137853858)
(0.000294468258553 -9.25806448102e-11 3.87286202892)
(0.000309911008346 -3.00902635495e-11 3.94451404247)
(0.00129530101408 -1.48112349818e-10 3.98670729597)
(-0.00743369822933 -9.29587633761e-11 4.24926958783)
(-0.020134923901 -7.84528395567e-11 4.32414542223)
(-0.0318471546851 -8.36101257909e-11 4.3704349797)
(-0.0106410319296 -9.08349316284e-12 4.82359277521)
(-0.0280441818567 -2.12778558757e-11 4.89636707447)
(-0.0444285061296 -3.20245125403e-11 4.94101152844)
(-0.010683865396 -3.9737792311e-12 5.41615259436)
(-0.0281247507999 -1.13059647545e-11 5.49145446604)
(-0.0447085166457 -1.92701233784e-11 5.53638137564)
(-0.00963047838725 -8.11493494666e-13 5.99318458747)
(-0.0251350912421 -3.15870795961e-12 6.06652357689)
(-0.0398997087795 -9.72071937144e-12 6.10924195694)
(-0.00853399534193 2.47231588721e-11 6.50881176176)
(-0.0222830858144 7.04998917147e-11 6.58405276858)
(-0.0352310008947 1.55416638933e-11 6.62660934573)
(-0.00774636070635 -6.13523462156e-12 6.97148316031)
(-0.0197243065095 -1.79486347739e-11 7.04375579477)
(-0.0306385584146 -3.55115656735e-11 7.08343942772)
(-0.0057506372588 4.40813664974e-11 7.36108169589)
(-0.0154202913375 -2.96806559042e-11 7.433444405)
(-0.0245531636752 -9.27762073924e-11 7.4720467879)
(-0.00592098387806 -1.00817295821e-11 7.70099287345)
(-0.0149818261107 -3.36320135646e-11 7.77151941738)
(-0.0229639766513 -5.54294313269e-11 7.80775977159)
(-0.00401610176539 -1.86939142184e-11 7.99102170681)
(-0.0109613162685 -5.16778737731e-11 8.05871300619)
(-0.017631961288 -7.67283645296e-11 8.09253334696)
(-0.00387571928832 -5.4099149132e-11 8.23792912744)
(-0.0103655155442 -1.55265420471e-10 8.30535645672)
(-0.0163797825095 -1.77671994282e-10 8.33781476362)
(-0.00356644946379 -2.03235782582e-11 8.45677911098)
(-0.00942319319601 -5.72202229681e-11 8.51988984731)
(-0.0147461751904 -8.77329352308e-11 8.54922998653)
(-0.00282473948583 3.16560866452e-12 8.64381070737)
(-0.00788197645901 1.03686349632e-11 8.70580806304)
(-0.0126495533719 -7.0540207352e-11 8.73349878105)
(-0.00346233014333 -1.38825782828e-11 8.807166585)
(-0.00871363177665 -3.99841502513e-11 8.86521399637)
(-0.0131126722402 -7.28931612815e-11 8.89005040937)
(-0.00296660473314 -1.37457254522e-11 8.94071163158)
(-0.00766569292481 -3.93152645118e-11 8.9952424787)
(-0.0117116396085 -6.67729209723e-11 9.01762286559)
(-0.0027412072097 -3.89877317428e-12 9.05067018988)
(-0.00713088086558 -1.30112331105e-11 9.10165168944)
(-0.0109364579451 -3.20710431977e-11 9.12162550067)
(-0.00270992027997 6.25034677948e-11 9.14062278679)
(-0.00695754797526 1.81139618672e-10 9.18823868768)
(-0.0106229359558 1.38485889835e-10 9.20610467406)
(-0.00240191897741 4.71333925798e-11 9.21428195456)
(-0.00640899373454 1.33926748678e-10 9.2584589173)
(-0.0100695381649 3.72042167109e-11 9.27431234625)
(-0.00237349139837 3.74933450493e-12 9.27724978002)
(-0.00641941849912 8.25398277492e-12 9.31886126726)
(-0.0101985608418 -7.14503016877e-12 9.33332074933)
(-0.00283678249514 -2.1625910071e-12 9.34659493293)
(-0.00722428145719 -6.48551877924e-12 9.38536217605)
(-0.011184716931 -1.28636253407e-11 9.39841933978)
(-0.00308557753621 -2.35703991991e-12 9.43645881667)
(-0.00786325718192 -6.72078976711e-12 9.47267592952)
(-0.0122529933121 -1.12905663853e-11 9.48479647396)
(-0.00348683318065 -1.99926324753e-12 9.56165554415)
(-0.00895893664209 -5.33446495125e-12 9.59570160857)
(-0.0140036138614 -7.19426343605e-12 9.60705951518)
(-0.00367278558844 -9.03243509093e-11 9.73056200381)
(-0.00952804433693 -3.72869692226e-11 9.76268614838)
(-0.0150970409309 -5.71743345365e-12 9.77352377239)
(-0.00356376691011 -1.27113726278e-11 9.94906722502)
(-0.00940571506744 -2.54878706373e-11 9.97970415799)
(-0.0151469048395 -3.65184284466e-11 9.99030072032)
(-0.00313775652976 2.78667942163e-11 10.2006591973)
(-0.00846121915584 -8.27641481837e-11 10.2300416448)
(-0.0138346717045 -6.93357158588e-11 10.2403995264)
(-0.00292396695392 -7.16564683555e-11 10.4552689663)
(-0.00750794795837 -2.46619034364e-11 10.4836401404)
(-0.0117811770737 2.40118883745e-11 10.4934042018)
(-0.00196264270893 1.86045576824e-11 10.6637685153)
(-0.00498769366845 6.96357503426e-11 10.6877280601)
(-0.0076405462299 -3.65182345938e-11 10.6926638464)
(-0.00072945720966 -5.83076353283e-11 10.8007716482)
(-0.00194967047803 1.66438369296e-10 10.8193656898)
(-0.00305331776954 1.62894877453e-10 10.8197198004)
(1.02635827133 -1.14044864657e-10 4.94280872621)
(0.35458854636 -1.86732611293e-10 4.23879248588)
(0.135974951372 -1.38149668836e-10 3.81886248478)
(0.00138999561329 -1.3509073827e-10 4.01919947547)
(-0.0437853299495 -9.99763779162e-11 4.40771148596)
(-0.0610294539472 -4.12763380949e-11 4.97556986483)
(-0.0611784170949 -2.68425630171e-11 5.57093292239)
(-0.0548350264679 -1.80427261844e-11 6.14040075305)
(-0.0481352032235 -1.02409008035e-11 6.65728479485)
(-0.0415823826252 -4.79927878805e-11 7.11054012722)
(-0.033771955986 -8.22439232628e-11 7.4980005783)
(-0.0308128544849 -6.67264540395e-11 7.83109439369)
(-0.0245279539305 -9.06733071096e-11 8.11355943387)
(-0.0224323970668 -1.59876015873e-10 8.35742501676)
(-0.0201198633712 -1.09876142483e-10 8.56609854164)
(-0.017509888808 -1.29591565742e-10 8.7488835822)
(-0.0174630263194 -1.00345026889e-10 8.90309582335)
(-0.0157696061221 -9.29193086016e-11 9.02870377483)
(-0.0147681910447 -5.69143839602e-11 9.13084339821)
(-0.0143251989292 3.31312868897e-11 9.21368124446)
(-0.0138053361605 -3.20410725569e-11 9.28033278842)
(-0.0140439835113 -2.08997092146e-11 9.33823324725)
(-0.0152207755734 -1.90640119913e-11 9.40220910531)
(-0.0167280781859 -1.55212269579e-11 9.48774333801)
(-0.019049121505 -8.1299990931e-12 9.60937983971)
(-0.020683893284 1.77535179159e-11 9.77543241349)
(-0.0209305492919 -5.3133523962e-11 9.99200288024)
(-0.0192671369112 -7.82120060985e-11 10.2419053488)
(-0.0160360908429 -1.25847827932e-11 10.4945402877)
(-0.0102301339766 -1.69426068976e-11 10.6916109691)
(-0.00413780709796 9.61902419668e-11 10.8179300444)
(1.17787192123 1.7403276596e-12 5.13275633236)
(0.63745984525 1.49038880581e-11 6.0079263308)
(0.0815276104453 -8.26019813163e-12 6.87603348233)
(0.0736563105176 -6.98448786332e-12 7.49902237376)
(0.22578403369 -4.12113862606e-12 7.05458439443)
(0.123146969004 -3.52063645759e-12 6.21072803948)
(-0.0579644062631 -7.61645358248e-12 5.70522200711)
(1.49995059158 -9.75641242025e-11 4.82259778667)
(2.01199350942 -4.64836998935e-11 4.68874941357)
(2.38793079206 -5.0429993455e-11 4.55941414879)
(2.58207857723 -5.1227620424e-11 4.43793293564)
(2.60321111538 -3.21805819073e-11 4.3422484382)
(2.52741555078 -1.84521190211e-11 4.28158792056)
(2.35034147992 -1.55002190442e-11 4.257940093)
(2.09885719612 -2.74220448858e-11 4.24906181655)
(1.84289606728 -4.91371791279e-11 4.28589264187)
(1.57399243653 -2.00043733997e-11 4.39431648649)
(1.27986712872 8.09763786284e-12 4.60220852291)
(0.959215038705 1.64003210431e-11 4.90973435558)
(0.565410171319 -1.36726640706e-11 5.3338435455)
(0.167797085144 1.78934011556e-12 5.88960724129)
(-0.268628746072 1.0655171796e-11 6.58497130305)
(-0.452399137534 -6.70857198793e-12 7.24967495884)
(-0.256190212694 -6.00885005604e-12 7.57337628722)
(-0.0112522890778 -5.72817452381e-12 7.15263604971)
(-0.000298398342065 -1.15764168192e-11 6.51823616457)
(-0.08833296007 -7.57955328826e-12 5.91059648682)
(0.507025796616 -1.57591411908e-10 4.2301150184)
(0.681025472794 -2.10857428744e-10 4.2298182011)
(0.828596134282 -4.63202405605e-11 4.23676714952)
(0.94907718498 -6.92672301445e-11 4.25505642292)
(1.03341685112 -2.72972329682e-11 4.29174777164)
(1.04162470207 -1.31260140687e-11 4.35307001255)
(0.985396599297 -1.35237961933e-11 4.43689569612)
(0.890555484923 -3.08905394196e-11 4.56440656906)
(0.754058749165 -2.05657968937e-11 4.73576730436)
(0.57103242428 -1.48518382295e-11 4.95143712702)
(0.348570757525 1.98387201032e-11 5.21918172337)
(0.090631958026 9.04932297664e-14 5.55973110272)
(-0.166956988499 -3.97556813282e-12 5.98537435427)
(-0.464153964836 1.48988165497e-12 6.50624761307)
(-0.704878993874 1.52717270919e-12 7.03959274902)
(-0.680864659221 -4.76585810604e-12 7.50634087494)
(-0.418903651704 -4.68764806775e-12 7.60892046988)
(-0.160633006039 -5.93018834839e-12 7.2724908722)
(-0.12318728985 -9.37559264146e-12 6.72598414714)
(-0.0879053674458 -8.77176496482e-12 5.99216378779)
(0.197052493572 -1.52227493881e-10 3.86553107468)
(0.270852720887 -1.89205619254e-10 3.956144812)
(0.330639908449 -7.82484389705e-11 4.07555035386)
(0.358854547746 -2.3163425133e-11 4.21998406954)
(0.355957385835 -1.98144951111e-11 4.38564228903)
(0.327036532355 -7.72950070287e-12 4.56917648294)
(0.270296657795 -6.60329740732e-12 4.77371168652)
(0.182287468987 -3.99165527466e-11 4.99706168061)
(0.0703436942446 -1.43580415734e-11 5.2420892229)
(-0.0626757872204 -2.80494518204e-11 5.51682855475)
(-0.216527225576 4.60754762848e-12 5.83171011364)
(-0.395601702314 -6.50650111686e-12 6.19360477166)
(-0.594679563123 -4.40976140201e-12 6.60258986255)
(-0.760519051751 3.80904598599e-12 7.0221459313)
(-0.817621063039 3.93809912382e-12 7.42382196342)
(-0.709516882231 1.55463174521e-13 7.69911044014)
(-0.483835147598 4.80536846754e-12 7.70474392905)
(-0.28434462563 -6.15808735484e-12 7.37139123016)
(-0.205480284385 -9.49767410264e-12 6.84015250932)
(-0.0712212194234 -1.43243696513e-11 5.99337343245)
(0.00184831737399 -1.39000973419e-10 4.07790096079)
(-0.000836689627871 -1.52473767118e-10 4.19146127545)
(-0.00859620670339 -7.79030635071e-11 4.34022041344)
(-0.0250240567247 -6.66871905677e-11 4.51970129574)
(-0.0519255757928 -2.12372885991e-11 4.72799382452)
(-0.0928616837399 -2.16075594468e-12 4.96084768827)
(-0.148644982467 2.14611344373e-11 5.21388547686)
(-0.220389992925 -7.64039250077e-12 5.48407376331)
(-0.306983278188 5.77255867359e-12 5.77107344299)
(-0.408827434429 -1.90545193497e-11 6.07487017408)
(-0.523011827012 1.01743340033e-11 6.39754585496)
(-0.640415397106 -1.56073865251e-11 6.73746769583)
(-0.744222855555 -1.11438208296e-11 7.08844271)
(-0.811610696538 7.90359088699e-12 7.42772937015)
(-0.779110620319 1.44616355623e-11 7.70283784578)
(-0.661412973079 -6.15021065623e-13 7.84863901896)
(-0.493794409708 -4.1125153361e-13 7.77787790949)
(-0.331284917679 -5.52917690834e-12 7.4503751618)
(-0.243268966429 -6.80898118359e-12 6.89878767854)
(-0.0725852763401 -9.07840926623e-12 5.96288578781)
(-0.0649583402935 -1.45378159307e-10 4.47317969671)
(-0.0954881055831 -8.36238380103e-11 4.59933007366)
(-0.128941112238 -5.74595941896e-11 4.76662739087)
(-0.16787255822 -3.88308731695e-11 4.97034178793)
(-0.21239656743 -2.06223594894e-11 5.20516710768)
(-0.26448374953 -9.61175268666e-12 5.46482226425)
(-0.324442647515 -4.43707282667e-12 5.74203960291)
(-0.392436684091 -7.79042185178e-12 6.02991929357)
(-0.466836218561 -4.67623794049e-12 6.32381220734)
(-0.545220872187 -4.84713793304e-12 6.62144772495)
(-0.623348314265 2.96271023596e-12 6.92190487031)
(-0.694208840371 1.59948243559e-12 7.22115463134)
(-0.744302769125 -1.00651352068e-11 7.50689732971)
(-0.751236935774 5.27903356641e-12 7.75666508624)
(-0.686699350494 5.55113344912e-12 7.93426117523)
(-0.578255735142 -2.24818912271e-13 7.9881065649)
(-0.463232203325 -6.65284306156e-13 7.86524083873)
(-0.32515609741 -2.51769034043e-12 7.51265727709)
(-0.22544121555 2.84812706878e-12 6.91417030022)
(-0.0666747681889 -5.89034450668e-12 5.91370259725)
(-0.0900226957578 -5.48748782117e-11 5.03774020863)
(-0.130258264991 -5.64479179294e-11 5.16094049991)
(-0.172191184553 -5.13536690582e-11 5.3262636745)
(-0.217515645986 -3.80457983695e-11 5.52887485145)
(-0.265840651071 -2.3459512315e-11 5.76309629119)
(-0.317978617094 -1.3201075032e-11 6.02114151098)
(-0.37383029658 -6.91461265565e-12 6.29405732133)
(-0.432778426666 -6.31672711391e-12 6.57241744802)
(-0.49265898793 -4.39946939139e-12 6.84913393048)
(-0.550651182391 -3.11224900985e-12 7.11959151246)
(-0.601578148314 -5.48331098768e-13 7.38050288784)
(-0.639835195363 -2.40090042246e-12 7.62649067209)
(-0.653434996744 -1.72246560905e-12 7.84708573694)
(-0.635713165524 5.15346959048e-12 8.02454570458)
(-0.568043098488 4.17120805516e-12 8.12846067406)
(-0.485437576775 6.83981459664e-13 8.12297554765)
(-0.418315465683 4.32538260062e-13 7.95745776021)
(-0.303467555386 -2.61370134584e-13 7.59023444087)
(-0.204211019759 6.48247453813e-12 6.92069819688)
(-0.0567594385335 -3.14625433151e-12 5.88707400962)
(-0.0902543056353 -3.86773226313e-11 5.63096739458)
(-0.130679466634 -4.83604202195e-11 5.74875230688)
(-0.172543818334 -5.39976673974e-11 5.90748231174)
(-0.216772341325 -4.45671651246e-11 6.10195148773)
(-0.262700231787 -3.06098418212e-11 6.32614642303)
(-0.310729879939 -2.01739458585e-11 6.57146732474)
(-0.360036549623 -8.69852859624e-12 6.82759193066)
(-0.409495778441 -5.37665317314e-12 7.08352305167)
(-0.456831017449 -3.28763869876e-12 7.33058371911)
(-0.498773020731 -2.26625576291e-12 7.56310645328)
(-0.530999308711 -1.07729797017e-12 7.77741290852)
(-0.548908525142 -2.65193187014e-12 7.96884364682)
(-0.545062558951 -9.96208666837e-14 8.12967372545)
(-0.518098210592 5.36243139563e-12 8.24539819612)
(-0.458715837606 4.56543601716e-12 8.29558751013)
(-0.396161337762 2.18989187257e-12 8.24303791223)
(-0.342412154215 2.70292663793e-12 8.04879454991)
(-0.247490320336 8.35806675467e-13 7.65147201644)
(-0.167655405982 4.01317357326e-12 6.91760026622)
(-0.0395619961647 -8.48616860491e-13 5.87166988269)
(-0.0810759399764 -3.20640313367e-11 6.19588949042)
(-0.117303863812 -4.59693763379e-11 6.30611477119)
(-0.154298592592 -6.64670900574e-11 6.45492721563)
(-0.192955793604 -5.92732171414e-11 6.63691213457)
(-0.232367635015 -4.33804186551e-11 6.84576772244)
(-0.272385216403 -3.35784998867e-11 7.0726134273)
(-0.312208401548 -1.20999872242e-11 7.30641935162)
(-0.350719918556 -5.18910626933e-12 7.53539449955)
(-0.385485356333 -2.04431553694e-12 7.75007536333)
(-0.414149435028 -1.21981558466e-12 7.94439907221)
(-0.433113964008 -7.67902801552e-13 8.11520518264)
(-0.43945677828 -3.04995042535e-12 8.2593830022)
(-0.429317215806 -1.34385206946e-12 8.37220774676)
(-0.404843812683 5.64082290984e-12 8.44323559135)
(-0.362896782182 5.68744420125e-12 8.4568116413)
(-0.319197835921 5.8097963511e-12 8.374015936)
(-0.281154773022 1.2329002763e-11 8.15967686808)
(-0.202755905099 2.58382064198e-12 7.71421189049)
(-0.129745052865 5.23158090276e-12 6.92733384251)
(-0.0241495643587 1.07432708252e-12 5.87587363166)
(-0.0705946924902 -3.23496848838e-11 6.70964122561)
(-0.101611337038 -3.01920422147e-11 6.81211435249)
(-0.133157899234 -1.01133876924e-10 6.94984830275)
(-0.165780518445 -8.27018355508e-11 7.11757034489)
(-0.19828010289 -6.04259231206e-11 7.30879769252)
(-0.230809105583 -6.5051653108e-11 7.51457048595)
(-0.262267326896 -1.71821989106e-11 7.72360225667)
(-0.29127358936 -5.80344469289e-12 7.92390544545)
(-0.316315844582 3.21234902465e-13 8.10580383077)
(-0.335034725047 1.07797863757e-12 8.26345168921)
(-0.345161721626 1.75873273217e-12 8.39455948575)
(-0.344519995821 -4.1812562599e-12 8.49777825169)
(-0.331927367367 -1.17690370315e-11 8.57115904577)
(-0.309033745754 5.99506334703e-12 8.60718517368)
(-0.281385059557 6.60120065205e-12 8.59414304267)
(-0.24402371086 7.9956657739e-12 8.49215680229)
(-0.214957157636 1.59268384954e-11 8.25611276376)
(-0.153313405296 3.89901866881e-12 7.76941080619)
(-0.0891080049555 7.52682709274e-12 6.93866846956)
(-0.0121162714399 2.40237261286e-12 5.88894351021)
(-0.0602665163242 -6.43331567851e-11 7.15788337484)
(-0.0858063477487 -8.25289766206e-11 7.2522747186)
(-0.111524438625 -9.70135850214e-11 7.37872129619)
(-0.137848027714 -1.21427277844e-10 7.53188345577)
(-0.163670295536 -6.62057470905e-11 7.70526984934)
(-0.188741487446 -5.01464015563e-11 7.89003750012)
(-0.212136399664 -1.97463073741e-11 8.07520870565)
(-0.23302132525 -7.94257662398e-12 8.24908471219)
(-0.249897934323 5.69990125117e-12 8.40212392731)
(-0.261455531751 6.15022919067e-12 8.52915121867)
(-0.266373814012 1.54868443333e-11 8.62854018638)
(-0.263217570204 6.59992370082e-12 8.70072976094)
(-0.25340541085 1.34847648745e-11 8.74538540394)
(-0.234825167948 8.72460476846e-12 8.75765834196)
(-0.219269064876 7.24335331072e-12 8.72639115695)
(-0.193337460078 8.23990398816e-12 8.61222292007)
(-0.168748202204 1.12995021862e-11 8.35174545696)
(-0.114897060885 3.50293960235e-12 7.82198562641)
(-0.0560840230018 -1.19686216487e-13 6.95581302789)
(0.000477379141731 2.94026115328e-12 5.91316055105)
(-0.0500237413476 -8.67939157161e-11 7.54174795947)
(-0.0718048404463 -1.21807759742e-10 7.62798899167)
(-0.0934267834103 -9.08420947506e-11 7.74284505769)
(-0.114968986516 -8.2062311416e-11 7.88109349122)
(-0.13551333329 -6.6675740873e-11 8.03635395134)
(-0.154978743266 -7.08863478634e-11 8.2001635836)
(-0.172233795851 -2.52495008179e-11 8.36205846589)
(-0.186961813378 -1.97567680207e-11 8.51097134999)
(-0.19799224032 2.02598104553e-11 8.63816441006)
(-0.204384139933 8.17373417618e-12 8.73889040487)
(-0.205727314267 1.38919069918e-11 8.81248458048)
(-0.201101467894 2.40883623739e-11 8.86046313558)
(-0.192625202089 1.12254382977e-11 8.8838787897)
(-0.176798795026 2.08308563988e-11 8.8803652126)
(-0.170007962053 8.0478324052e-12 8.83716230749)
(-0.148404329183 8.4906140621e-12 8.71479940803)
(-0.130397772627 1.05044243283e-11 8.43209922838)
(-0.0828119097355 3.97967530342e-12 7.86455314951)
(-0.0301323762018 2.56766343364e-12 6.97420189363)
(0.00817144482478 3.42368972346e-12 5.94420400652)
(-0.0441184051587 -8.10526905322e-11 7.87032687456)
(-0.0620653808345 -8.96049542164e-11 7.94838787421)
(-0.0797729676426 -8.32423157563e-11 8.05178827733)
(-0.0973127020675 -7.19819788194e-11 8.17546590896)
(-0.113729993242 -5.6066699121e-11 8.3131540092)
(-0.128629852618 -4.16079672352e-11 8.45703074429)
(-0.14148782294 -1.9905828443e-11 8.59726943502)
(-0.151692454083 -6.47684176718e-12 8.72392371254)
(-0.158596675037 1.32447589908e-11 8.82900990791)
(-0.1620419346 9.28189693951e-12 8.90856874765)
(-0.161451837463 1.23888848081e-11 8.96247203521)
(-0.15721766487 1.4573066519e-11 8.99311891345)
(-0.151089900128 9.67761961829e-12 9.00238787176)
(-0.138251917363 1.41406767986e-11 8.98883224741)
(-0.136357565676 8.19258773061e-12 8.93809803099)
(-0.119388054226 7.26195290713e-12 8.80754938248)
(-0.101219016143 1.01979095868e-11 8.50062777674)
(-0.0557343244402 4.00573168346e-12 7.89934573222)
(-0.00932638846623 2.65060356544e-12 6.99566937746)
(0.0145105957663 3.37589282971e-12 5.981292073)
(-0.0368833877023 -1.03865366451e-10 8.14870197141)
(-0.053055453441 -9.686067642e-11 8.21870382704)
(-0.0684573394735 -8.60842252562e-11 8.31096964543)
(-0.083396311725 -6.72298341525e-11 8.42044291758)
(-0.0967574144271 -4.64844088433e-11 8.54134373156)
(-0.108745920649 -2.69527464832e-11 8.66632858354)
(-0.118349939896 -1.74473280731e-11 8.78663078035)
(-0.125472456192 -5.25939798354e-12 8.89337088783)
(-0.129726106398 2.17268025931e-11 8.97960140085)
(-0.130889054717 1.10147606523e-11 9.04214952213)
(-0.129438897486 1.39356755106e-11 9.081440058)
(-0.125614037365 1.54459837369e-11 9.10018433125)
(-0.120672222117 8.33005118599e-12 9.100810719)
(-0.110092933763 1.30494246838e-11 9.0814957677)
(-0.112972858489 8.72232163584e-12 9.02643610419)
(-0.0974007623347 1.45917681076e-13 8.88763224283)
(-0.0793197728175 1.05985853485e-11 8.55583595001)
(-0.0325903197755 3.54333557254e-12 7.92343860629)
(0.00719738664187 2.2138039793e-12 7.01405411228)
(0.0181762843723 3.22670610556e-12 6.01109305051)
(-0.0330506306714 -1.7432187547e-10 8.38879460361)
(-0.0469442044669 -1.1984215346e-10 8.45077430532)
(-0.060190212371 -1.00069680604e-10 8.53205311314)
(-0.0727721263866 -6.57029743992e-11 8.62777641484)
(-0.0839376982667 -3.44958474012e-11 8.73258102481)
(-0.0934911712286 2.62328155697e-12 8.83976369493)
(-0.100865296362 -1.71840155016e-11 8.94170126761)
(-0.106015791316 -2.49593087349e-11 9.03059114566)
(-0.108571893347 -4.1409321755e-12 9.1008111716)
(-0.108950996211 1.0265391164e-11 9.1497098792)
(-0.107325895015 1.73963820219e-11 9.17821010579)
(-0.104426370836 2.84689736133e-11 9.1889914848)
(-0.101530815261 -3.35229768111e-12 9.18449411522)
(-0.0932757728872 1.38981348537e-11 9.16158204486)
(-0.097371428369 1.84182523139e-11 9.10241103726)
(-0.0856567747697 5.6834197393e-12 8.95364425036)
(-0.0645354288898 1.48133230595e-11 8.59424832198)
(-0.0151309454404 2.01413707374e-12 7.93465106052)
(0.01476516815 1.34821695881e-12 7.0207841874)
(0.0197625788946 2.90582996638e-12 6.0334071282)
(-0.0294806938051 -1.42134017831e-10 8.59323993318)
(-0.0416070682385 -1.35421217078e-10 8.64753579171)
(-0.0529964761734 -1.51172819986e-10 8.71827812633)
(-0.0638117820942 -7.22551533435e-11 8.80091738463)
(-0.0730884690056 -3.25989094178e-11 8.8904851525)
(-0.0808753200822 -8.05791418835e-12 8.98109833227)
(-0.0866571420226 -1.32459100866e-11 9.066074333)
(-0.0903667850658 -1.09989728695e-11 9.13903086711)
(-0.0921325352691 1.42830918169e-12 9.19531431394)
(-0.092073640445 6.58371604256e-12 9.23307926628)
(-0.0908998403272 1.7098233202e-11 9.25335334858)
(-0.0889806726612 2.18720716903e-11 9.2586605728)
(-0.088484608057 5.04781144249e-12 9.25101700806)
(-0.0839191310037 1.33855964124e-11 9.22605952172)
(-0.0881272280389 1.43124565743e-11 9.1625040451)
(-0.077812402569 5.83221119295e-12 9.00007178499)
(-0.0542750590946 8.40859884235e-12 8.61279964309)
(-0.00559194642656 -2.08824701196e-12 7.92894805885)
(0.0208443700195 -1.26829280697e-13 7.01510069181)
(0.0223556049035 2.2935023095e-12 6.04082707541)
(-0.0260663974694 -2.2674005014e-10 8.77242207096)
(-0.0370638234547 -1.43782323122e-10 8.81919623984)
(-0.0472334731859 -1.11488892787e-10 8.87969002299)
(-0.056699783169 -7.23613992781e-11 8.9497176746)
(-0.0647288606333 -2.63450397529e-11 9.02483668536)
(-0.0713897777873 1.34638909251e-11 9.09984913018)
(-0.0762360946822 -1.00063407411e-11 9.16918152197)
(-0.079383789103 -8.9463372163e-12 9.22759296344)
(-0.0808815859461 -3.01995319248e-12 9.27148229598)
(-0.0812598633657 -1.41555394391e-11 9.29962801696)
(-0.0811809291405 1.88067105752e-11 9.31310331752)
(-0.0807451493346 3.43544400795e-11 9.31415758961)
(-0.0824175650627 8.26461883179e-12 9.30403628875)
(-0.0809943614469 1.36636400245e-11 9.27695810551)
(-0.0850107428649 1.91980299134e-11 9.20834961017)
(-0.0749875185031 4.69276532246e-12 9.02788731356)
(-0.0455957424123 4.5240547183e-12 8.61020175122)
(0.00103097441051 -1.02516970444e-11 7.90527460096)
(0.0222232731944 -2.06042473972e-12 6.99326605836)
(0.0221530800884 1.25917293828e-12 6.02746445794)
(-0.0247834616509 -1.39873117938e-10 8.92283813535)
(-0.0343838564711 -1.4136587372e-10 8.96253184142)
(-0.0434026531131 -1.1668055215e-10 9.01343518743)
(-0.0518421835259 -1.09340002924e-10 9.07177666426)
(-0.059046868208 -3.54140209742e-11 9.13360490468)
(-0.065067062016 -8.76505331412e-12 9.19448854315)
(-0.0696000341743 -1.44634588154e-11 9.24983015134)
(-0.0728368038418 -8.96093411892e-12 9.29551749467)
(-0.0749208265079 -2.19853876069e-12 9.32885660515)
(-0.0761821318464 2.12549997753e-13 9.3491133079)
(-0.0775000054045 1.87237616776e-11 9.35739536836)
(-0.0784424132055 2.79116998771e-11 9.35544245484)
(-0.0822331752775 1.12001163734e-11 9.34367385371)
(-0.0819620051663 1.11683183166e-11 9.31392349159)
(-0.0864146770633 3.67257604165e-12 9.23862613457)
(-0.0759374855039 -3.90307272647e-13 9.03510438089)
(-0.0400098404643 2.25278650868e-12 8.58600405549)
(0.00362156910096 -4.47600085631e-12 7.85954362754)
(0.0209545950324 -3.55914060763e-12 6.95065751261)
(0.0206682199463 -3.24490838493e-13 5.98993863536)
(-0.0227150539542 -1.36779087334e-10 9.04509086327)
(-0.031726796283 -1.95299643313e-10 9.07824914459)
(-0.040184743731 -1.1596134467e-10 9.1203369991)
(-0.0481004333725 -8.22733586099e-11 9.16803129203)
(-0.0549292626584 -3.6172810823e-11 9.2178906071)
(-0.0608008929311 -1.87212546766e-11 9.26623308014)
(-0.0654398526903 -3.32001469477e-11 9.30933563146)
(-0.0691289398819 -1.19449623256e-11 9.34412598977)
(-0.0720305593291 -3.51235923643e-12 9.36866329257)
(-0.074557490656 2.96155252204e-12 9.38260089381)
(-0.0776141548957 1.88015664639e-11 9.38699414724)
(-0.0801498106155 4.14927055125e-11 9.38285663502)
(-0.0870597288688 2.36989973931e-11 9.3698203949)
(-0.086677057522 1.02682492414e-11 9.33675261581)
(-0.0928519994655 1.52499985155e-12 9.25141732008)
(-0.0791188206477 -1.68579674075e-11 9.02111978698)
(-0.0384888320438 -9.82041263604e-13 8.53849601141)
(0.00252547233525 -4.62130402618e-12 7.79378966389)
(0.0200964481272 -6.14422955353e-12 6.88475210397)
(0.0179400165031 -1.92739029817e-12 5.92719503286)
(-0.0213739284575 -9.88623861687e-11 9.14406739563)
(-0.0299607073878 -1.18058629805e-10 9.17113997173)
(-0.0380346594054 -9.73840970405e-11 9.20513008023)
(-0.0457236850306 -9.98481212546e-11 9.24317876842)
(-0.0524530694878 -3.93432245554e-11 9.28234060402)
(-0.05850980811 -2.06879514188e-11 9.31962788319)
(-0.0636076011939 -2.40964831365e-11 9.35213580732)
(-0.0680764235516 -1.90645866592e-11 9.37760376701)
(-0.0722889729996 -9.28042636599e-12 9.39474044184)
(-0.0760536888018 7.33844903288e-13 9.40339279901)
(-0.0812696003131 2.19580698713e-12 9.4045668688)
(-0.0852119676379 3.26444845683e-11 9.39840485885)
(-0.0950381583036 1.7695731691e-11 9.38384608959)
(-0.0948638369977 9.4671916098e-12 9.34598363402)
(-0.101265137887 -5.91480444488e-12 9.24654466982)
(-0.0838498250906 -2.1222939917e-11 8.98502439915)
(-0.0390261899535 -2.73451198521e-12 8.46726913079)
(-0.00211456287211 -5.6341012068e-12 7.70633650506)
(0.0154930975353 -9.62661526966e-12 6.79339601561)
(0.0135095949625 -3.57190144899e-12 5.83223680581)
(-0.020706574891 -6.48427370093e-11 9.22407846011)
(-0.0290800315399 -6.96384534608e-11 9.24559687151)
(-0.0370722415758 -3.00171189759e-11 9.27228098601)
(-0.0448335044909 -2.99461082962e-11 9.30171032563)
(-0.0518976638002 -3.29408365536e-11 9.33145659898)
(-0.0585109142173 -2.39286388177e-11 9.35914741565)
(-0.0645694281513 -3.05974209333e-11 9.38260243995)
(-0.0702793718927 -5.34293147743e-11 9.40019879463)
(-0.0761411259241 -3.41439032151e-11 9.41115394171)
(-0.0816922845244 3.46941277778e-12 9.41542646478)
(-0.0895770706631 1.28215144048e-11 9.41376905432)
(-0.0946292078874 4.36713444804e-11 9.40568889345)
(-0.107927929647 1.6391172707e-11 9.38869401912)
(-0.107780276385 1.78085594196e-11 9.34401951011)
(-0.113521647833 1.16831397747e-11 9.22500563912)
(-0.0908730240917 -1.01951439458e-11 8.92746320919)
(-0.044366860635 -1.21373927461e-12 8.37438421739)
(-0.0111644528864 -6.29146634138e-12 7.59722785213)
(0.00609803562465 -1.53647944662e-11 6.67631608842)
(0.00629919373925 -5.1408064637e-12 5.70430596266)
(-0.020343983012 -1.28387156502e-10 9.28812783809)
(-0.0289319801554 -2.29951406634e-11 9.30466102308)
(-0.0372540370399 -1.05237404732e-10 9.32487809306)
(-0.0455371346165 -9.0711842343e-11 9.34678047707)
(-0.0533530497952 -3.94976023624e-11 9.36843060145)
(-0.0610392920174 -2.54239312449e-11 9.38801607697)
(-0.0685029237349 -2.63659643665e-11 9.40394067258)
(-0.0758899067798 -2.72272577116e-11 9.41509702168)
(-0.083927698083 -1.42614063104e-11 9.42104390649)
(-0.0916349771039 2.07380471492e-11 9.42178763657)
(-0.102390733469 2.77582615228e-12 9.41772404336)
(-0.10897166935 4.22670054811e-11 9.40774308534)
(-0.125385495709 3.15918735681e-12 9.38732795505)
(-0.127466877199 1.21325937807e-12 9.33366545572)
(-0.130195489363 1.84740196771e-12 9.1891359338)
(-0.101383940431 -6.61562031702e-12 8.85164750834)
(-0.0555274987635 5.06729656568e-12 8.2637567154)
(-0.0253031351033 -5.50980476621e-12 7.46883834644)
(-0.00963087073423 -1.11301920414e-11 6.53192454142)
(-0.00403953460029 -6.31413043807e-12 5.54026404798)
(-0.0208223778834 -3.56159603754e-11 9.34382672059)
(-0.0298615134209 1.9221969753e-11 9.35596429111)
(-0.0388009185957 -5.6121065072e-11 9.37057861226)
(-0.0479245318792 -5.85468214445e-11 9.38605990772)
(-0.0569130969391 -3.58981239094e-11 9.40093401457)
(-0.0660169540173 -2.42054263728e-11 9.41384326758)
(-0.0753773824849 -1.82140223718e-11 9.42370199533)
(-0.0849422305619 5.76462369313e-12 9.42974483495)
(-0.0954964747531 -8.37218684526e-12 9.43176493573)
(-0.10610008849 1.04919311186e-11 9.42975829968)
(-0.120116364897 1.1407801351e-11 9.42361194999)
(-0.128094726507 2.9969655952e-11 9.41165070603)
(-0.146355347057 7.52067193738e-12 9.38565585898)
(-0.152201684651 2.32961347609e-12 9.32016530325)
(-0.151811247408 -3.52852629998e-12 9.14367764616)
(-0.117417120424 -6.99905900021e-12 8.76236813975)
(-0.076129877308 -2.53506108245e-12 8.13985903814)
(-0.0496671001062 -6.46747300634e-12 7.32153504101)
(-0.0323682895433 -1.35183155358e-11 6.35854969609)
(-0.0185583980887 -7.72769118639e-12 5.33211827953)
(-0.0222753034418 -2.78236328555e-11 9.40581094015)
(-0.0318825789662 -2.51623266353e-11 9.41416230323)
(-0.0416973168687 -4.72402329725e-11 9.42399542281)
(-0.0519392579336 -4.74651091114e-11 9.43407140669)
(-0.0624190695156 -3.32798899342e-11 9.44330959088)